 Gaussian 16, Revision A.03,

 -----------------------------------------------------------
 # opt freq B3LYP/6-31G(d) empiricaldispersion=gd3bj scf=xqc
 -----------------------------------------------------------

 ------------------------------
 CID_91009471_JID_5397_neutraal
 ------------------------------
 Symbolic Z-matrix:
 Charge =  0 Multiplicity = 1

 SCF Done:  E(RB3LYP) =  -635.564980821     A.U. after   14 cycles
 SCF Done:  E(RB3LYP) =  -635.571682122     A.U. after   12 cycles
 SCF Done:  E(RB3LYP) =  -635.573585858     A.U. after   12 cycles
 SCF Done:  E(RB3LYP) =  -635.574062432     A.U. after   11 cycles
 SCF Done:  E(RB3LYP) =  -635.574118857     A.U. after   10 cycles
 SCF Done:  E(RB3LYP) =  -635.574131840     A.U. after    9 cycles
 SCF Done:  E(RB3LYP) =  -635.574133142     A.U. after    9 cycles
 SCF Done:  E(RB3LYP) =  -635.574135698     A.U. after    8 cycles
 SCF Done:  E(RB3LYP) =  -635.574136836     A.U. after    8 cycles
 SCF Done:  E(RB3LYP) =  -635.574137371     A.U. after    9 cycles
 SCF Done:  E(RB3LYP) =  -635.574137583     A.U. after    8 cycles
 SCF Done:  E(RB3LYP) =  -635.574137704     A.U. after    8 cycles
 Optimization completed.
    -- Stationary point found.
 Normal termination of Gaussian 16 at Thu Dec 10 15:49:58 2020.

 --------------------------------------------------------------------
 #N Geom=AllCheck Guess=TCheck SCRF=Check GenChk RB3LYP/6-31G(d) Freq
 --------------------------------------------------------------------

 Structure from the checkpoint file:  "JID_5397.chk"
 ------------------------------
 CID_91009471_JID_5397_neutraal
 ------------------------------
 Charge =  0 Multiplicity = 1

 SCF Done:  E(RB3LYP) =  -635.574137704     A.U. after    1 cycles

  Exact polarizability: 196.145  -9.548 134.292   0.385   0.187  96.954
 Approx polarizability: 254.204 -21.911 236.975  -3.853   2.436 144.974

                      1                      2                      3
                      A                      A                      A
 Frequencies --     25.5148                48.3344                55.8883
 Red. masses --      3.7804                 4.2840                 3.7124
 Frc consts  --      0.0015                 0.0059                 0.0068
 IR Inten    --      0.3414                 3.1255                 1.5500

                      4                      5                      6
                      A                      A                      A
 Frequencies --     69.9226               144.2244               154.0494
 Red. masses --      3.6360                 4.5016                 3.8470
 Frc consts  --      0.0105                 0.0552                 0.0538
 IR Inten    --      1.6628                 2.4024                 2.5512

                      7                      8                      9
                      A                      A                      A
 Frequencies --    230.1105               236.3929               267.5878
 Red. masses --      1.3969                 2.2474                 2.9198
 Frc consts  --      0.0436                 0.0740                 0.1232
 IR Inten    --      0.9769                 1.5195                 0.4850

                     10                     11                     12
                      A                      A                      A
 Frequencies --    278.9118               288.2871               335.0073
 Red. masses --      1.1497                 2.6999                 1.0473
 Frc consts  --      0.0527                 0.1322                 0.0692
 IR Inten    --      0.4236                 2.3360                 0.0078

                     13                     14                     15
                      A                      A                      A
 Frequencies --    343.7188               368.1133               398.8281
 Red. masses --      2.5677                 2.4975                 3.4306
 Frc consts  --      0.1787                 0.1994                 0.3215
 IR Inten    --      0.6444                 1.5139                 1.1727

                     16                     17                     18
                      A                      A                      A
 Frequencies --    416.6631               428.3400               466.0681
 Red. masses --      3.0322                 3.1180                 3.0058
 Frc consts  --      0.3102                 0.3371                 0.3847
 IR Inten    --      0.6979                 4.9459                 0.6285

                     19                     20                     21
                      A                      A                      A
 Frequencies --    480.8909               558.7392               587.8705
 Red. masses --      3.5281                 3.1496                 2.4084
 Frc consts  --      0.4807                 0.5793                 0.4904
 IR Inten    --      0.5929                 2.5414                14.4372

                     22                     23                     24
                      A                      A                      A
 Frequencies --    654.6410               682.9044               719.0891
 Red. masses --      6.8590                 1.7051                 2.3936
 Frc consts  --      1.7319                 0.4685                 0.7292
 IR Inten    --      0.1351                37.1895                32.9155

                     25                     26                     27
                      A                      A                      A
 Frequencies --    759.3408               779.3472               832.2796
 Red. masses --      4.3104                 6.9146                 2.7377
 Frc consts  --      1.4643                 2.4744                 1.1173
 IR Inten    --      5.5712                 3.3937                18.7893

                     28                     29                     30
                      A                      A                      A
 Frequencies --    835.5283               845.6160               855.8691
 Red. masses --      4.0647                 2.4007                 1.3501
 Frc consts  --      1.6719                 1.0114                 0.5827
 IR Inten    --     20.7108                42.1637                 7.5215

                     31                     32                     33
                      A                      A                      A
 Frequencies --    862.4985               870.0092               895.4581
 Red. masses --      3.4707                 2.7473                 1.2776
 Frc consts  --      1.5212                 1.2252                 0.6036
 IR Inten    --     16.7959                22.7684                 4.1217

                     34                     35                     36
                      A                      A                      A
 Frequencies --    929.1650               940.6473               953.1512
 Red. masses --      2.9193                 1.7652                 1.6967
 Frc consts  --      1.4850                 0.9202                 0.9082
 IR Inten    --     21.5596                 0.9890                 0.7103

                     37                     38                     39
                      A                      A                      A
 Frequencies --    957.0807               971.3201               977.8460
 Red. masses --      1.3274                 1.2580                 1.2485
 Frc consts  --      0.7164                 0.6993                 0.7033
 IR Inten    --      0.0501                 0.0270                 0.1309

                     40                     41                     42
                      A                      A                      A
 Frequencies --   1007.7110              1041.8454              1056.6968
 Red. masses --      2.0039                 2.9168                 1.4725
 Frc consts  --      1.1989                 1.8654                 0.9687
 IR Inten    --     10.5057                15.1987                19.3355

                     43                     44                     45
                      A                      A                      A
 Frequencies --   1064.2635              1067.0348              1105.4194
 Red. masses --      1.3914                 2.6038                 2.1601
 Frc consts  --      0.9285                 1.7467                 1.5551
 IR Inten    --      0.1771               124.4541                 4.3141

                     46                     47                     48
                      A                      A                      A
 Frequencies --   1140.9781              1145.1675              1157.7179
 Red. masses --      1.4479                 1.9353                 1.4101
 Frc consts  --      1.1105                 1.4953                 1.1135
 IR Inten    --     10.3429                11.6622                 3.5780

                     49                     50                     51
                      A                      A                      A
 Frequencies --   1221.7698              1243.7426              1245.5314
 Red. masses --      1.3437                 2.7070                 1.8809
 Frc consts  --      1.1818                 2.4672                 1.7192
 IR Inten    --      2.7136                 3.3083                 3.0489

                     52                     53                     54
                      A                      A                      A
 Frequencies --   1246.8925              1299.1637              1308.0722
 Red. masses --      2.4913                 1.4405                 3.0575
 Frc consts  --      2.2821                 1.4325                 3.0824
 IR Inten    --      0.5782                 7.0269                18.2091

                     55                     56                     57
                      A                      A                      A
 Frequencies --   1322.0348              1352.0467              1364.2814
 Red. masses --      1.8761                 2.0873                 1.7268
 Frc consts  --      1.9320                 2.2482                 1.8937
 IR Inten    --     20.6046                 0.8650                 0.2690

                     58                     59                     60
                      A                      A                      A
 Frequencies --   1391.2416              1402.4893              1426.5516
 Red. masses --      1.5547                 1.3549                 1.2151
 Frc consts  --      1.7730                 1.5702                 1.4569
 IR Inten    --     22.0179                13.8750                 3.8023

                     61                     62                     63
                      A                      A                      A
 Frequencies --   1426.8880              1458.5008              1464.1521
 Red. masses --      1.2451                 1.2180                 2.4677
 Frc consts  --      1.4936                 1.5266                 3.1169
 IR Inten    --      2.9189                 2.3159                17.9007

                     64                     65                     66
                      A                      A                      A
 Frequencies --   1512.5580              1517.0424              1520.8142
 Red. masses --      1.0497                 1.0456                 1.0550
 Frc consts  --      1.4149                 1.4178                 1.4377
 IR Inten    --      0.0090                 0.1369                 0.9227

                     67                     68                     69
                      A                      A                      A
 Frequencies --   1533.5794              1538.1782              1550.5231
 Red. masses --      1.0701                 1.0506                 1.0744
 Frc consts  --      1.4828                 1.4645                 1.5218
 IR Inten    --      6.3064                 4.9520                 4.9947

                     70                     71                     72
                      A                      A                      A
 Frequencies --   1566.5277              1634.4062              1676.3503
 Red. masses --      2.2154                 6.0910                 5.7144
 Frc consts  --      3.2032                 9.5864                 9.4612
 IR Inten    --     17.3537                 0.9157                 3.0525

                     73                     74                     75
                      A                      A                      A
 Frequencies --   1704.9937              2979.2925              3044.6439
 Red. masses --      6.0605                 1.0847                 1.0355
 Frc consts  --     10.3802                 5.6727                 5.6553
 IR Inten    --     27.2036                60.1239                27.4620

                     76                     77                     78
                      A                      A                      A
 Frequencies --   3044.7882              3052.6452              3110.4113
 Red. masses --      1.0349                 1.0364                 1.1019
 Frc consts  --      5.6527                 5.6902                 6.2812
 IR Inten    --     24.5157                29.3826                 5.3916

                     79                     80                     81
                      A                      A                      A
 Frequencies --   3111.0971              3117.5513              3118.9813
 Red. masses --      1.1022                 1.1027                 1.1014
 Frc consts  --      6.2852                 6.3145                 6.3130
 IR Inten    --      3.9719                28.4054                98.8984

                     82                     83                     84
                      A                      A                      A
 Frequencies --   3125.0996              3127.5914              3169.4402
 Red. masses --      1.1021                 1.1012                 1.0888
 Frc consts  --      6.3415                 6.3466                 6.4444
 IR Inten    --     16.6852                44.7357                19.9199

                     85                     86                     87
                      A                      A                      A
 Frequencies --   3189.1953              3212.9149              3221.3430
 Red. masses --      1.0871                 1.0932                 1.0905
 Frc consts  --      6.5146                 6.6486                 6.6674
 IR Inten    --     14.6505                 9.7879                13.8271

                     88                     89                     90
                      A                      A                      A
 Frequencies --   3240.4197              3275.1734              3415.0381
 Red. masses --      1.0904                 1.1031                 1.0767
 Frc consts  --      6.7460                 6.9718                 7.3984
 IR Inten    --      2.5034                 3.3946                 2.6467

 - Thermochemistry -
 -------------------
 Temperature   298.150 Kelvin.  Pressure   1.00000 Atm.
 Atom     1 has atomic number  6 and mass  12.00000

 Molecular mass:   203.13101 amu.
 Principal axes and moments of inertia in atomic units:
                           1         2         3
     Eigenvalues --  1072.075056581.073206845.13515
           X            0.99999   0.00376   0.00302
           Y           -0.00373   0.99995  -0.00924
           Z           -0.00305   0.00923   0.99995
 This molecule is an asymmetric top.
 Rotational symmetry number  1.
 Warning -- assumption of classical behavior for rotation
           may cause significant error
 Rotational temperatures (Kelvin)      0.08079     0.01316     0.01265
 Rotational constants (GHZ):           1.68341     0.27423     0.26365
 Zero-point vibrational energy     722401.2 (Joules/Mol)
                                  172.65803 (Kcal/Mol)
 Warning -- explicit consideration of  21 degrees of freedom as
           vibrations may cause significant error
 Vibrational temperatures:     36.71    69.54    80.41   100.60   207.51
          (Kelvin)            221.64   331.08   340.12   385.00   401.29
                              414.78   482.00   494.53   529.63   573.82
                              599.49   616.29   670.57   691.89   803.90
                              845.81   941.88   982.55  1034.61  1092.52
                             1121.31  1197.46  1202.14  1216.65  1231.40
                             1240.94  1251.75  1288.36  1336.86  1353.38
                             1371.37  1377.03  1397.51  1406.90  1449.87
                             1498.98  1520.35  1531.24  1535.23  1590.45
                             1641.61  1647.64  1665.70  1757.85  1789.47
                             1792.04  1794.00  1869.21  1882.02  1902.11
                             1945.29  1962.90  2001.69  2017.87  2052.49
                             2052.97  2098.46  2106.59  2176.23  2182.69
                             2188.11  2206.48  2213.10  2230.86  2253.88
                             2351.55  2411.89  2453.11  4286.54  4380.56
                             4380.77  4392.08  4475.19  4476.17  4485.46
                             4487.52  4496.32  4499.91  4560.12  4588.54
                             4622.67  4634.79  4662.24  4712.24  4913.48

 Zero-point correction=                           0.275148 (Hartree/Particle)
 Thermal correction to Energy=                    0.289459
 Thermal correction to Enthalpy=                  0.290403
 Thermal correction to Gibbs Free Energy=         0.233095
 Sum of electronic and zero-point Energies=           -635.298990
 Sum of electronic and thermal Energies=              -635.284679
 Sum of electronic and thermal Enthalpies=            -635.283734
 Sum of electronic and thermal Free Energies=         -635.341042

                     E (Thermal)             CV                S
                      KCal/Mol        Cal/Mol-Kelvin    Cal/Mol-Kelvin
 Total                  181.638             55.940            120.615
 Electronic               0.000              0.000              0.000
 Translational            0.889              2.981             41.830
 Rotational               0.889              2.981             32.246
 Vibrational            179.861             49.979             46.538
 Vibration     1          0.593              1.985              6.151
 Vibration     2          0.595              1.978              4.884
 Vibration     3          0.596              1.975              4.597
 Vibration     4          0.598              1.968              4.156
 Vibration     5          0.616              1.909              2.747
 Vibration     6          0.620              1.898              2.622
 Vibration     7          0.652              1.795              1.878
 Vibration     8          0.655              1.785              1.830
 Vibration     9          0.673              1.733              1.612
 Vibration    10          0.679              1.713              1.540
 Vibration    11          0.685              1.695              1.484
 Vibration    12          0.716              1.606              1.236
 Vibration    13          0.722              1.588              1.195
 Vibration    14          0.741              1.538              1.088
 Vibration    15          0.765              1.473              0.967
 Vibration    16          0.780              1.434              0.903
 Vibration    17          0.790              1.409              0.864
 Vibration    18          0.823              1.325              0.749
 Vibration    19          0.837              1.292              0.708
 Vibration    20          0.914              1.121              0.526
 Vibration    21          0.945              1.058              0.471

                           ! Non-Optimized Parameters !
 Normal termination of Gaussian 16 at Thu Dec 10 15:59:20 2020.

 ----------------------------------------------------------------------
 # B3LYP/6-311++G(d,p) empiricaldispersion=gd3bj scf=xqc pop=npa geom=c
 heck
 ----------------------------------------------------------------------

 --------------------------------------
 CID_91009471_JID_5397_Energie_neutraal
 --------------------------------------
 Structure from the checkpoint file:  "JID_5397.chk"
 Charge =  0 Multiplicity = 1

 SCF Done:  E(RB3LYP) =  -635.748159821     A.U. after   15 cycles
 Normal termination of Gaussian 16 at Thu Dec 10 16:04:07 2020.

 ----------------------------------------------------------------------
 # B3LYP/6-311++G(d,p) empiricaldispersion=gd3bj scf=xqc pop=npa geom=c
 heck
 ----------------------------------------------------------------------

 ------------------------------------
 CID_91009471_JID_5397_Energie_kation
 ------------------------------------
 Structure from the checkpoint file:  "JID_5397.chk"
 Charge =  1 Multiplicity = 2

 SCF Done:  E(UB3LYP) =  -635.461154134     A.U. after   33 cycles
 SCF Done:  E(UB3LYP) =  -635.461154134     a.u. after    1 cycles
 Normal termination of Gaussian 16 at Thu Dec 10 16:19:05 2020.
 Gaussian 16:  ES64L-G16RevA.03 25-Dec-2016

 ----------------------------------------------------------------------
 # B3LYP/6-311++G(d,p) empiricaldispersion=gd3bj scf=xqc pop=npa geom=c
 heck
 ----------------------------------------------------------------------

 -----------------------------------
 CID_91009471_JID_5397_Energie_anion
 -----------------------------------
 Structure from the checkpoint file:  "JID_5397.chk"
 Charge = -1 Multiplicity = 2

                         Standard orientation:
 ---------------------------------------------------------------------
 Center     Atomic      Atomic             Coordinates (Angstroms)
 Number     Number       Type             X           Y           Z
 ---------------------------------------------------------------------
      1          6           0       -4.019001    1.089278    0.074933
      2          6           0       -3.178294   -0.197850    0.067828
      3          6           0       -3.467212   -0.969756    1.373691
      4          6           0       -3.615560   -1.053325   -1.141119
      5          6           0       -1.674110    0.088522   -0.030137
      6          6           0       -1.150004    1.382434   -0.111754
      7          6           0        0.226922    1.600436   -0.207399
      8          6           0        1.120348    0.532598   -0.213727
      9          6           0        0.610480   -0.767707   -0.133665
     10          6           0       -0.759728   -0.979858   -0.046997
     11          6           0        2.617038    0.774305   -0.255688
     12          6           0        3.293328    0.560624    1.077374
     13          6           0        4.142178   -0.458005    0.963701
     14          7           0        4.128154   -1.046730   -0.320187
     15          8           0        3.270240   -0.184679   -1.122950
     16          1           0       -5.081946    0.834854    0.148876
     17          1           0       -3.879639    1.669649   -0.843744
     18          1           0       -3.770719    1.730882    0.927621
     19          1           0       -4.538323   -1.189192    1.458257
     20          1           0       -2.926409   -1.920625    1.410337
     21          1           0       -3.168137   -0.380390    2.247517
     22          1           0       -3.422001   -0.524758   -2.080962
     23          1           0       -3.079675   -2.006973   -1.177408
     24          1           0       -4.688601   -1.272697   -1.085321
     25          1           0       -1.811530    2.241105   -0.110952
     26          1           0        0.603990    2.618650   -0.280982
     27          1           0        1.296655   -1.608730   -0.153455
     28          1           0       -1.126325   -2.000938    0.007261
     29          1           0        2.802410    1.783384   -0.659154
     30          1           0        3.044548    1.110460    1.974199
     31          1           0        4.768309   -0.917514    1.719745
     32          1           0        5.040089   -0.972803   -0.779185
 ---------------------------------------------------------------------

 SCF Done:  E(UB3LYP) =  -635.734270748     A.U. after   33 cycles
 SCF Done:  E(UB3LYP) =  -635.734270748     a.u. after    1 cycles

 The electronic state is 2-A.
 Alpha  occ. eigenvalues --  -19.05966 -14.27600 -10.14296 -10.11367 -10.10129
 Alpha  occ. eigenvalues --  -10.08844 -10.08503 -10.08182 -10.07951 -10.07948
 Alpha  occ. eigenvalues --  -10.07820 -10.07818 -10.07013 -10.06937 -10.06847
 Alpha  occ. eigenvalues --   -0.98521  -0.77840  -0.76528  -0.73152  -0.69892
 Alpha  occ. eigenvalues --   -0.65540  -0.64299  -0.59849  -0.59778  -0.55639
 Alpha  occ. eigenvalues --   -0.51557  -0.50260  -0.49624  -0.45928  -0.44602
 Alpha  occ. eigenvalues --   -0.41948  -0.38397  -0.37944  -0.35928  -0.35268
 Alpha  occ. eigenvalues --   -0.35041  -0.34640  -0.33406  -0.32829  -0.31300
 Alpha  occ. eigenvalues --   -0.30754  -0.30279  -0.28936  -0.27884  -0.27363
 Alpha  occ. eigenvalues --   -0.26192  -0.26056  -0.25824  -0.24316  -0.23486
 Alpha  occ. eigenvalues --   -0.22953  -0.20267  -0.16208  -0.14817  -0.11769
 Alpha  occ. eigenvalues --    0.04083
 Alpha virt. eigenvalues --    0.05327   0.06807   0.07229   0.07650   0.07794
 Alpha virt. eigenvalues --    0.07824   0.08299   0.08392   0.09544   0.10046
 Alpha virt. eigenvalues --    0.10271   0.10334   0.10816   0.11211   0.12007

  Beta  occ. eigenvalues --  -19.05964 -14.27572 -10.14289 -10.11342 -10.10126
  Beta  occ. eigenvalues --  -10.08843 -10.08503 -10.08174 -10.07943 -10.07941
  Beta  occ. eigenvalues --  -10.07812 -10.07812 -10.06992 -10.06917 -10.06819
  Beta  occ. eigenvalues --   -0.98504  -0.77817  -0.76495  -0.73136  -0.69863
  Beta  occ. eigenvalues --   -0.65523  -0.64274  -0.59803  -0.59737  -0.55603
  Beta  occ. eigenvalues --   -0.51529  -0.50212  -0.49597  -0.45894  -0.44524
  Beta  occ. eigenvalues --   -0.41919  -0.38373  -0.37914  -0.35903  -0.35239
  Beta  occ. eigenvalues --   -0.35009  -0.34606  -0.33380  -0.32806  -0.31271
  Beta  occ. eigenvalues --   -0.30726  -0.30253  -0.28905  -0.27859  -0.27347
  Beta  occ. eigenvalues --   -0.26171  -0.26036  -0.25803  -0.24294  -0.23467
  Beta  occ. eigenvalues --   -0.22933  -0.20252  -0.16195  -0.14808  -0.11745
  Beta virt. eigenvalues --    0.05979   0.06701   0.07177   0.07475   0.07831
  Beta virt. eigenvalues --    0.08233   0.08318   0.08778   0.08982   0.09946
  Beta virt. eigenvalues --    0.10239   0.10393   0.10533   0.11226   0.11343

 Mulliken charges and spin densities:
               1          2
     1  C   -0.238737  -0.240132
     2  C   -0.487257   1.040834
     3  C    0.347070  -1.021344
     4  C    0.184085  -0.862969
     5  C    0.392421   0.013970
     6  C    0.213092  -0.521720
     7  C    0.273502  -0.756925
     8  C    1.632980  -0.775236
     9  C   -0.802718   0.198286
    10  C   -1.076015   0.439352
    11  C    0.272390  -0.268540
    12  C   -0.244062  -0.078231
    13  C    1.035250  -1.283292
    14  N    0.001801  -0.182569
    15  O   -0.092795   0.044637
    16  H   -0.310559   0.484510
    17  H   -0.081130   0.209970
    18  H   -0.138500   0.271580
    19  H   -0.106040   0.257170
    20  H   -0.073700   0.213020
    21  H    0.039316   0.107180
    22  H    0.088035   0.055522
    23  H   -0.035803   0.175285
    24  H   -0.167331   0.318865
    25  H    0.025910   0.140725
    26  H   -0.242058   0.395898
    27  H    0.088125   0.076652
    28  H    0.083856   0.064866
    29  H   -0.057459   0.306876
    30  H   -0.352971   0.524742
    31  H   -1.058701   1.249638
    32  H   -0.111998   0.401381
 Sum of Mulliken charges =  -1.00000   1.00000

 Dipole moment (field-independent basis, Debye):
    X=             -2.4845    Y=              0.6584    Z=             -1.7981  Tot=              3.1368
 Quadrupole moment (field-independent basis, Debye-Ang):
   XX=           -208.8626   YY=           -124.6284   ZZ=           -128.6346
   XY=              5.9050   XZ=             -7.2118   YZ=              0.4090

 Summary of Natural Population Analysis:

                                       Natural Population
                Natural  -----------------------------------------------
    Atom  No    Charge         Core      Valence    Rydberg      Total
 -----------------------------------------------------------------------
      C    1   -0.28914      0.99964     2.28018    0.00932     3.28914
      C    2   -0.06399      0.99958     2.04837    0.01604     3.06399
      C    3   -0.28139      0.99963     2.27352    0.00824     3.28139
      C    4   -0.28129      0.99963     2.27344    0.00822     3.28129
      C    5    0.02420      0.99950     1.96627    0.01003     2.97580
      C    6   -0.09349      0.99956     2.08640    0.00753     3.09349
      C    7   -0.10387      0.99953     2.09154    0.01281     3.10387
      C    8   -0.03011      0.99947     2.01857    0.01208     3.03011
      C    9   -0.08812      0.99950     2.08043    0.00819     3.08812
      C   10   -0.10883      0.99957     2.09748    0.01178     3.10883
      C   11    0.04869      0.99952     1.93459    0.01721     2.95131
      C   12   -0.13742      0.99951     2.12750    0.01042     3.13742
      C   13   -0.00639      0.99951     1.99485    0.01204     3.00639
      N   14   -0.16075      0.99972     2.64651    0.01453     3.66075
      O   15   -0.22786      0.99990     3.21914    0.00882     4.22786
      H   16    0.10261      0.00000     0.39632    0.00108     0.39739
      H   17    0.10062      0.00000     0.39821    0.00116     0.39938
      H   18    0.10158      0.00000     0.39720    0.00122     0.39842
      H   19    0.09909      0.00000     0.39991    0.00099     0.40091
      H   20    0.09937      0.00000     0.39953    0.00109     0.40063
      H   21    0.10181      0.00000     0.39721    0.00098     0.39819
      H   22    0.10102      0.00000     0.39809    0.00089     0.39898
      H   23    0.09934      0.00000     0.39964    0.00102     0.40066
      H   24    0.09936      0.00000     0.39968    0.00096     0.40064
      H   25    0.10062      0.00000     0.39767    0.00170     0.39938
      H   26    0.09805      0.00000     0.39950    0.00245     0.40195
      H   27    0.10866      0.00000     0.38970    0.00164     0.39134
      H   28    0.09874      0.00000     0.39959    0.00167     0.40126
      H   29    0.09016      0.00000     0.40748    0.00236     0.40984
      H   30    0.11132      0.00000     0.38735    0.00133     0.38868
      H   31    0.10885      0.00000     0.38724    0.00390     0.39115
      H   32    0.17873      0.00000     0.31757    0.00370     0.32127
 =======================================================================
   * Total *    0.00015     14.99377    39.81068    0.19540    54.99985

 Normal termination of Gaussian 16 at Thu Dec 10 16:38:25 2020.
