 Gaussian 16, Revision A.03,

 -----------------------------------------------------------
 # opt freq B3LYP/6-31G(d) empiricaldispersion=gd3bj scf=xqc
 -----------------------------------------------------------

 -------------------------------
 CID_112663280_JID_9171_neutraal
 -------------------------------
 Symbolic Z-matrix:
 Charge =  0 Multiplicity = 1

 SCF Done:  E(RB3LYP) =  -1584.82905346     A.U. after   15 cycles
 SCF Done:  E(RB3LYP) =  -1584.83158438     A.U. after   12 cycles
 SCF Done:  E(RB3LYP) =  -1584.82716463     A.U. after   13 cycles
 SCF Done:  E(RB3LYP) =  -1584.83415711     A.U. after   12 cycles
 SCF Done:  E(RB3LYP) =  -1584.83423573     A.U. after   14 cycles
 SCF Done:  E(RB3LYP) =  -1584.83701821     A.U. after   13 cycles
 SCF Done:  E(RB3LYP) =  -1584.83801608     A.U. after   12 cycles
 SCF Done:  E(RB3LYP) =  -1584.83804123     A.U. after   12 cycles
 SCF Done:  E(RB3LYP) =  -1584.83824688     A.U. after   12 cycles
 SCF Done:  E(RB3LYP) =  -1584.83901495     A.U. after   12 cycles
 SCF Done:  E(RB3LYP) =  -1584.83935353     A.U. after    9 cycles
 SCF Done:  E(RB3LYP) =  -1584.83935397     A.U. after    8 cycles
 SCF Done:  E(RB3LYP) =  -1584.83935432     A.U. after    8 cycles
 SCF Done:  E(RB3LYP) =  -1584.83935466     A.U. after    8 cycles
 SCF Done:  E(RB3LYP) =  -1584.83935497     A.U. after    8 cycles
 SCF Done:  E(RB3LYP) =  -1584.83935509     A.U. after    7 cycles
 Optimization completed.
    -- Stationary point found.
 Normal termination of Gaussian 16 at Sun Dec 13 20:43:35 2020.

 --------------------------------------------------------------------
 #N Geom=AllCheck Guess=TCheck SCRF=Check GenChk RB3LYP/6-31G(d) Freq
 --------------------------------------------------------------------

 Structure from the checkpoint file:  "JID_9171.chk"
 -------------------------------
 CID_112663280_JID_9171_neutraal
 -------------------------------
 Charge =  0 Multiplicity = 1

 SCF Done:  E(RB3LYP) =  -1584.83935509     A.U. after    1 cycles

  Exact polarizability: 213.988   8.165 176.548  12.513 -19.595 151.016
 Approx polarizability: 304.023  23.889 266.315  27.128 -41.201 254.726

                      1                      2                      3
                      A                      A                      A
 Frequencies --     10.3875                16.8401                47.3238
 Red. masses --      4.8193                 4.5189                 4.7857
 Frc consts  --      0.0003                 0.0008                 0.0063
 IR Inten    --      0.5034                 1.5526                 1.0120

                      4                      5                      6
                      A                      A                      A
 Frequencies --     54.2494                71.1788                88.6250
 Red. masses --      6.0970                 3.9921                 3.2217
 Frc consts  --      0.0106                 0.0119                 0.0149
 IR Inten    --      1.4946                 0.7531                 1.2562

                      7                      8                      9
                      A                      A                      A
 Frequencies --    105.0940               115.1819               125.2652
 Red. masses --      4.3874                 3.2474                 3.4190
 Frc consts  --      0.0286                 0.0254                 0.0316
 IR Inten    --      2.2299                 1.3663                 0.7140

                     10                     11                     12
                      A                      A                      A
 Frequencies --    156.2453               164.5128               179.3901
 Red. masses --      1.2932                 1.5713                 1.0996
 Frc consts  --      0.0186                 0.0251                 0.0208
 IR Inten    --      0.1950                 0.4020                 0.6322

                     13                     14                     15
                      A                      A                      A
 Frequencies --    191.2262               196.9425               217.8947
 Red. masses --      2.1986                 3.1316                 4.9671
 Frc consts  --      0.0474                 0.0716                 0.1389
 IR Inten    --      0.7607                 4.2257                 0.4552

                     16                     17                     18
                      A                      A                      A
 Frequencies --    242.9373               249.4131               263.4107
 Red. masses --      1.8199                 3.5948                 3.7461
 Frc consts  --      0.0633                 0.1318                 0.1531
 IR Inten    --      3.5987                 0.3700                 0.3929

                     19                     20                     21
                      A                      A                      A
 Frequencies --    280.8393               292.9551               311.4611
 Red. masses --      4.0699                 3.0560                 3.3482
 Frc consts  --      0.1891                 0.1545                 0.1914
 IR Inten    --      3.7435                 4.1616                 3.3807

                     22                     23                     24
                      A                      A                      A
 Frequencies --    320.5061               345.5273               353.7585
 Red. masses --      2.3236                 2.5584                 2.4782
 Frc consts  --      0.1406                 0.1800                 0.1827
 IR Inten    --     27.6860                16.7139                52.9726

                     25                     26                     27
                      A                      A                      A
 Frequencies --    378.9376               422.9830               441.9524
 Red. masses --      3.2378                 2.9075                 3.2864
 Frc consts  --      0.2739                 0.3065                 0.3782
 IR Inten    --     19.3706                 7.3438                 3.3524

                     28                     29                     30
                      A                      A                      A
 Frequencies --    465.7092               472.3303               488.2787
 Red. masses --      3.9752                 4.1747                 5.8201
 Frc consts  --      0.5080                 0.5487                 0.8176
 IR Inten    --     28.8767                 0.7285                12.0632

                     31                     32                     33
                      A                      A                      A
 Frequencies --    520.9252               543.1669               586.9557
 Red. masses --      4.4476                 4.3874                 7.2138
 Frc consts  --      0.7111                 0.7627                 1.4643
 IR Inten    --      8.2747                17.3113                84.9622

                     34                     35                     36
                      A                      A                      A
 Frequencies --    634.1828               654.9729               685.4121
 Red. masses --      4.3933                 4.9123                 4.5689
 Frc consts  --      1.0410                 1.2416                 1.2646
 IR Inten    --     27.1231                27.2177                30.5624

                     37                     38                     39
                      A                      A                      A
 Frequencies --    703.2359               718.5310               722.8036
 Red. masses --      3.9573                 2.7244                 4.5802
 Frc consts  --      1.1531                 0.8287                 1.4099
 IR Inten    --     29.9406                51.7021                16.3321

                     40                     41                     42
                      A                      A                      A
 Frequencies --    802.0946               817.5690               849.4666
 Red. masses --      1.7090                 1.6080                 1.8725
 Frc consts  --      0.6478                 0.6333                 0.7961
 IR Inten    --     10.6040                11.1412                62.3125

                     43                     44                     45
                      A                      A                      A
 Frequencies --    866.7177               924.4688               935.7484
 Red. masses --      1.8889                 1.4043                 1.8900
 Frc consts  --      0.8360                 0.7071                 0.9750
 IR Inten    --      5.5002                 2.5985                 8.0009

                     46                     47                     48
                      A                      A                      A
 Frequencies --    940.7033               945.6296               965.2969
 Red. masses --      2.2916                 1.3959                 1.7534
 Frc consts  --      1.1948                 0.7355                 0.9626
 IR Inten    --    125.2784                 0.9926                 3.3148

                     49                     50                     51
                      A                      A                      A
 Frequencies --    990.0603               991.8905              1017.2132
 Red. masses --      1.1867                 1.3084                 1.6206
 Frc consts  --      0.6853                 0.7584                 0.9880
 IR Inten    --      6.1704                 0.1294                22.1440

                     52                     53                     54
                      A                      A                      A
 Frequencies --   1020.2643              1033.0419              1063.7048
 Red. masses --      5.2919                 4.6796                 2.0808
 Frc consts  --      3.2455                 2.9424                 1.3871
 IR Inten    --     10.3298                63.1465                25.1372

                     55                     56                     57
                      A                      A                      A
 Frequencies --   1074.1113              1097.5344              1108.5851
 Red. masses --      2.0376                 4.2991                 1.8915
 Frc consts  --      1.3851                 3.0512                 1.3696
 IR Inten    --     14.6300                79.1048                 3.1003

                     58                     59                     60
                      A                      A                      A
 Frequencies --   1118.2898              1129.2821              1139.2730
 Red. masses --      1.6469                 1.9668                 2.2302
 Frc consts  --      1.2135                 1.4778                 1.7055
 IR Inten    --     20.2078                42.2339                65.6712

                     61                     62                     63
                      A                      A                      A
 Frequencies --   1154.4683              1162.6578              1207.3177
 Red. masses --      1.8482                 1.3886                 1.1331
 Frc consts  --      1.4513                 1.1060                 0.9731
 IR Inten    --     52.9830                15.2419                 0.6674

                     64                     65                     66
                      A                      A                      A
 Frequencies --   1231.1747              1246.6122              1259.2186
 Red. masses --      2.3884                 1.7745                 1.7661
 Frc consts  --      2.1330                 1.6248                 1.6499
 IR Inten    --     11.0531                30.2438                13.8559

                     67                     68                     69
                      A                      A                      A
 Frequencies --   1269.5587              1288.3951              1306.8190
 Red. masses --      1.3786                 1.3140                 1.4729
 Frc consts  --      1.3092                 1.2851                 1.4820
 IR Inten    --     20.1873                 5.9646                 9.7663

                     70                     71                     72
                      A                      A                      A
 Frequencies --   1321.4543              1331.4883              1358.3906
 Red. masses --      7.2611                 1.5371                 1.2249
 Frc consts  --      7.4706                 1.6055                 1.3316
 IR Inten    --    153.7889                 3.7200                 7.1044

                     73                     74                     75
                      A                      A                      A
 Frequencies --   1369.6590              1373.0218              1387.1770
 Red. masses --      1.3975                 3.4225                 1.1668
 Frc consts  --      1.5447                 3.8014                 1.3229
 IR Inten    --      8.5572                 1.1871                 9.7751

                     76                     77                     78
                      A                      A                      A
 Frequencies --   1406.7392              1419.9495              1434.8781
 Red. masses --      1.5912                 1.2976                 1.2069
 Frc consts  --      1.8552                 1.5415                 1.4640
 IR Inten    --      8.1540                11.9624                60.4424

                     79                     80                     81
                      A                      A                      A
 Frequencies --   1450.2364              1472.5393              1478.5206
 Red. masses --      1.2312                 2.6387                 1.1399
 Frc consts  --      1.5257                 3.3711                 1.4681
 IR Inten    --     13.0247                20.9623                 3.7235

                     82                     83                     84
                      A                      A                      A
 Frequencies --   1491.0035              1496.2818              1515.9775
 Red. masses --      1.0692                 1.0883                 1.0855
 Frc consts  --      1.4005                 1.4355                 1.4698
 IR Inten    --      2.0202                13.5853                 4.3508

                     85                     86                     87
                      A                      A                      A
 Frequencies --   1516.7514              1523.1525              1526.0003
 Red. masses --      1.0517                 1.4623                 1.0856
 Frc consts  --      1.4255                 1.9988                 1.4894
 IR Inten    --      9.2822                 8.4400                 3.6680

                     88                     89                     90
                      A                      A                      A
 Frequencies --   1529.6877              1530.6395              1532.6013
 Red. masses --      1.1688                 1.0853                 1.1586
 Frc consts  --      1.6114                 1.4981                 1.6033
 IR Inten    --      1.6241                 8.1592                15.2866

                     91                     92                     93
                      A                      A                      A
 Frequencies --   1543.5081              1634.9890              1658.1991
 Red. masses --      1.0689                 5.6508                 5.6963
 Frc consts  --      1.5005                 8.9000                 9.2282
 IR Inten    --      3.1067                 0.5301                 1.8275

                     94                     95                     96
                      A                      A                      A
 Frequencies --   2994.3952              3035.3674              3049.6912
 Red. masses --      1.0733                 1.0693                 1.0594
 Frc consts  --      5.6702                 5.8046                 5.8050
 IR Inten    --     66.9706                 7.5899                 4.3122

                     97                     98                     99
                      A                      A                      A
 Frequencies --   3049.9895              3055.0283              3063.2186
 Red. masses --      1.0396                 1.0626                 1.0553
 Frc consts  --      5.6979                 5.8432                 5.8342
 IR Inten    --     32.9717                48.8992                44.4037

                    100                    101                    102
                      A                      A                      A
 Frequencies --   3066.5283              3091.0719              3112.2340
 Red. masses --      1.0398                 1.0962                 1.1035
 Frc consts  --      5.7612                 6.1709                 6.2973
 IR Inten    --     18.0891                23.9626                 9.4682

                    103                    104                    105
                      A                      A                      A
 Frequencies --   3116.1554              3126.4080              3145.4599
 Red. masses --      1.0991                 1.0971                 1.1019
 Frc consts  --      6.2880                 6.3182                 6.4235
 IR Inten    --     26.3327                18.4211                22.7706

                    106                    107                    108
                      A                      A                      A
 Frequencies --   3146.9211              3152.2841              3165.0381
 Red. masses --      1.1000                 1.1033                 1.0901
 Frc consts  --      6.4180                 6.4593                 6.4337
 IR Inten    --     11.0535                15.4902                 2.3107

                    109                    110                    111
                      A                      A                      A
 Frequencies --   3184.0718              3197.8638              3213.6731
 Red. masses --      1.1039                 1.0872                 1.0933
 Frc consts  --      6.5942                 6.5504                 6.6528
 IR Inten    --      3.4385                 6.0555                10.8164

                    112                    113                    114
                      A                      A                      A
 Frequencies --   3231.4570              3245.7340              3720.9228
 Red. masses --      1.0934                 1.0898                 1.0661
 Frc consts  --      6.7270                 6.7644                 8.6963
 IR Inten    --      2.1365                 0.5950                12.0433

 - Thermochemistry -
 -------------------
 Temperature   298.150 Kelvin.  Pressure   1.00000 Atm.
 Atom     1 has atomic number  6 and mass  12.00000

 Molecular mass:   303.09629 amu.
 Principal axes and moments of inertia in atomic units:
                           1         2         3
     Eigenvalues --  4477.049807075.788819286.45540
           X            0.99983   0.01068  -0.01492
           Y           -0.01104   0.99965  -0.02423
           Z            0.01465   0.02439   0.99960
 This molecule is an asymmetric top.
 Rotational symmetry number  1.
 Warning -- assumption of classical behavior for rotation
           may cause significant error
 Rotational temperatures (Kelvin)      0.01935     0.01224     0.00933
 Rotational constants (GHZ):           0.40311     0.25506     0.19434
 Zero-point vibrational energy     874859.4 (Joules/Mol)
                                  209.09642 (Kcal/Mol)
 Warning -- explicit consideration of  33 degrees of freedom as
           vibrations may cause significant error
 Vibrational temperatures:     14.95    24.23    68.09    78.05   102.41
          (Kelvin)            127.51   151.21   165.72   180.23   224.80
                              236.70   258.10   275.13   283.36   313.50
                              349.53   358.85   378.99   404.07   421.50
                              448.12   461.14   497.14   508.98   545.21
                              608.58   635.87   670.05   679.58   702.52
                              749.50   781.50   844.50   912.45   942.36
                              986.16  1011.80  1033.81  1039.95  1154.04
                             1176.30  1222.19  1247.01  1330.10  1346.33
                             1353.46  1360.55  1388.85  1424.48  1427.11
                             1463.54  1467.93  1486.32  1530.43  1545.41
                             1579.11  1595.01  1608.97  1624.79  1639.16
                             1661.02  1672.81  1737.06  1771.39  1793.60
                             1811.73  1826.61  1853.71  1880.22  1901.28
                             1915.71  1954.42  1970.63  1975.47  1995.84
                             2023.98  2042.99  2064.47  2086.57  2118.66
                             2127.26  2145.22  2152.82  2181.15  2182.27
                             2191.48  2195.57  2200.88  2202.25  2205.07
                             2220.76  2352.38  2385.78  4308.27  4367.22
                             4387.83  4388.25  4395.50  4407.29  4412.05
                             4447.36  4477.81  4483.45  4498.20  4525.62
                             4527.72  4535.43  4553.78  4581.17  4601.01
                             4623.76  4649.35  4669.89  5353.58

 Zero-point correction=                           0.333216 (Hartree/Particle)
 Thermal correction to Energy=                    0.354611
 Thermal correction to Enthalpy=                  0.355555
 Thermal correction to Gibbs Free Energy=         0.280857
 Sum of electronic and zero-point Energies=          -1584.506139
 Sum of electronic and thermal Energies=             -1584.484745
 Sum of electronic and thermal Enthalpies=           -1584.483800
 Sum of electronic and thermal Free Energies=        -1584.558498

                     E (Thermal)             CV                S
                      KCal/Mol        Cal/Mol-Kelvin    Cal/Mol-Kelvin
 Total                  222.521             78.798            157.214
 Electronic               0.000              0.000              0.000
 Translational            0.889              2.981             43.023
 Rotational               0.889              2.981             34.041
 Vibrational            220.744             72.837             80.149
 Vibration     1          0.593              1.987              7.936
 Vibration     2          0.593              1.986              6.976
 Vibration     3          0.595              1.979              4.926
 Vibration     4          0.596              1.976              4.656
 Vibration     5          0.598              1.968              4.120
 Vibration     6          0.601              1.957              3.690
 Vibration     7          0.605              1.945              3.358
 Vibration     8          0.608              1.937              3.180
 Vibration     9          0.610              1.928              3.017
 Vibration    10          0.620              1.896              2.595
 Vibration    11          0.623              1.886              2.497
 Vibration    12          0.629              1.868              2.335
 Vibration    13          0.634              1.852              2.216
 Vibration    14          0.636              1.844              2.161
 Vibration    15          0.646              1.814              1.977
 Vibration    16          0.659              1.774              1.781
 Vibration    17          0.662              1.764              1.735
 Vibration    18          0.670              1.740              1.639
 Vibration    19          0.681              1.709              1.529
 Vibration    20          0.688              1.687              1.457
 Vibration    21          0.700              1.652              1.355
 Vibration    22          0.706              1.634              1.308
 Vibration    23          0.724              1.584              1.187
 Vibration    24          0.730              1.568              1.149
 Vibration    25          0.749              1.515              1.043
 Vibration    26          0.785              1.420              0.882
 Vibration    27          0.802              1.379              0.820
 Vibration    28          0.823              1.326              0.750
 Vibration    29          0.829              1.311              0.731
 Vibration    30          0.844              1.276              0.688
 Vibration    31          0.876              1.204              0.608
 Vibration    32          0.898              1.155              0.559
 Vibration    33          0.944              1.060              0.473

 Optimization completed.
    -- Stationary point found.
 Normal termination of Gaussian 16 at Sun Dec 13 21:08:58 2020.

 ----------------------------------------------------------------------
 # B3LYP/6-311++G(d,p) empiricaldispersion=gd3bj scf=xqc pop=npa geom=c
 heck
 ----------------------------------------------------------------------

 ---------------------------------------
 CID_112663280_JID_9171_Energie_neutraal
 ---------------------------------------
 Structure from the checkpoint file:  "JID_9171.chk"
 Charge =  0 Multiplicity = 1

 SCF Done:  E(RB3LYP) =  -1585.12191625     A.U. after   16 cycles
 Normal termination of Gaussian 16 at Sun Dec 13 21:21:38 2020.

 ----------------------------------------------------------------------
 # B3LYP/6-311++G(d,p) empiricaldispersion=gd3bj scf=xqc pop=npa geom=c
 heck
 ----------------------------------------------------------------------

 -------------------------------------
 CID_112663280_JID_9171_Energie_kation
 -------------------------------------
 Structure from the checkpoint file:  "JID_9171.chk"
 Charge =  1 Multiplicity = 2

 SCF Done:  E(UB3LYP) =  -1584.82086985     A.U. after   28 cycles
 Normal termination of Gaussian 16 at Sun Dec 13 21:53:36 2020.
 Gaussian 16:  ES64L-G16RevA.03 25-Dec-2016

 ----------------------------------------------------------------------
 # B3LYP/6-311++G(d,p) empiricaldispersion=gd3bj scf=xqc pop=npa geom=c
 heck
 ----------------------------------------------------------------------

 ------------------------------------
 CID_112663280_JID_9171_Energie_anion
 ------------------------------------
 Structure from the checkpoint file:  "JID_9171.chk"
 Charge = -1 Multiplicity = 2

                         Standard orientation:
 ---------------------------------------------------------------------
 Center     Atomic      Atomic             Coordinates (Angstroms)
 Number     Number       Type             X           Y           Z
 ---------------------------------------------------------------------
      1          6           0        2.332462    2.679550   -0.647869
      2          6           0        3.242426    1.533704   -1.099422
      3          6           0        3.505773    0.476015   -0.024214
      4          6           0        2.348868   -0.461978    0.304677
      5          6           0        1.130451   -0.463056   -0.375503
      6          6           0        0.167227   -1.426646   -0.061198
      7          6           0        0.386808   -2.400338    0.909191
      8          6           0        1.599780   -2.386906    1.601611
      9          6           0        2.563593   -1.430336    1.300412
     10         16           0       -1.399169   -1.391202   -0.923748
     11          8           0       -1.199585   -0.719198   -2.210907
     12          8           0       -1.973321   -2.740341   -0.849529
     13          7           0       -2.302072   -0.341493    0.053058
     14          6           0       -2.948068   -0.981218    1.198167
     15          6           0       -3.056995    0.727465   -0.606001
     16          6           0       -3.008466    2.033453    0.188421
     17         16           0       -1.335235    2.751192    0.381631
     18          6           0       -0.714514    1.848152    1.844516
     19          8           0        4.664057   -0.306791   -0.347378
     20          1           0        1.313936    2.345996   -0.433851
     21          1           0        2.265551    3.449473   -1.423298
     22          1           0        2.729169    3.154932    0.257879
     23          1           0        2.838376    1.054389   -2.002221
     24          1           0        4.225069    1.931782   -1.375268
     25          1           0        3.796065    0.995186    0.898026
     26          1           0        0.911141    0.256956   -1.153766
     27          1           0       -0.363921   -3.160311    1.094394
     28          1           0        1.795058   -3.135636    2.363556
     29          1           0        3.519306   -1.441156    1.815775
     30          1           0       -3.308601   -0.197159    1.868639
     31          1           0       -3.786982   -1.623739    0.903535
     32          1           0       -2.220260   -1.579892    1.750625
     33          1           0       -2.620050    0.884631   -1.591874
     34          1           0       -4.107526    0.423715   -0.745922
     35          1           0       -3.595170    2.786761   -0.348050
     36          1           0       -3.462055    1.927424    1.180246
     37          1           0       -1.394809    1.972621    2.692744
     38          1           0       -0.570022    0.790162    1.626446
     39          1           0        0.248308    2.298040    2.100446
     40          1           0        4.427112   -0.860090   -1.109818
 ---------------------------------------------------------------------

 SCF Done:  E(UB3LYP) =  -1585.12442461     A.U. after   30 cycles

 The electronic state is 2-A.
 Alpha  occ. eigenvalues --  -88.93726 -88.74100 -19.02153 -18.99859 -18.99584
 Alpha  occ. eigenvalues --  -14.22998 -10.12147 -10.10732 -10.10572 -10.09780
 Alpha  occ. eigenvalues --  -10.09031 -10.07219 -10.06597 -10.06387 -10.06044
 Alpha  occ. eigenvalues --  -10.05847 -10.05629 -10.05117 -10.03809  -7.99884
 Alpha  occ. eigenvalues --   -7.82704  -5.96190  -5.96170  -5.95921  -5.79111
 Alpha  occ. eigenvalues --   -5.78736  -5.78059  -0.99846  -0.92310  -0.89049
 Alpha  occ. eigenvalues --   -0.82901  -0.74370  -0.70809  -0.68922  -0.65471
 Alpha  occ. eigenvalues --   -0.64179  -0.63434  -0.60194  -0.57616  -0.56820
 Alpha  occ. eigenvalues --   -0.52128  -0.51300  -0.48567  -0.47454  -0.45790
 Alpha  occ. eigenvalues --   -0.43170  -0.40576  -0.38376  -0.38216  -0.37198
 Alpha  occ. eigenvalues --   -0.36312  -0.35392  -0.35014  -0.34025  -0.33909
 Alpha  occ. eigenvalues --   -0.33122  -0.32597  -0.32152  -0.31949  -0.31260
 Alpha  occ. eigenvalues --   -0.30546  -0.29623  -0.29171  -0.27272  -0.26920
 Alpha  occ. eigenvalues --   -0.26533  -0.25561  -0.25334  -0.25103  -0.23450
 Alpha  occ. eigenvalues --   -0.23107  -0.22269  -0.21276  -0.20547  -0.19327
 Alpha  occ. eigenvalues --   -0.18609  -0.18247  -0.15866  -0.14061  -0.13385
 Alpha  occ. eigenvalues --   -0.12577   0.04161
 Alpha virt. eigenvalues --    0.06323   0.07488   0.07643   0.08374   0.08867
 Alpha virt. eigenvalues --    0.09024   0.09458   0.10055   0.10193   0.11044
 Alpha virt. eigenvalues --    0.11144   0.11441   0.12049   0.12381   0.12611

  Beta  occ. eigenvalues --  -88.93715 -88.74099 -19.02134 -18.99829 -18.99567
  Beta  occ. eigenvalues --  -14.22952 -10.12146 -10.10705 -10.10552 -10.09748
  Beta  occ. eigenvalues --  -10.09022 -10.07217 -10.06593 -10.06125 -10.06027
  Beta  occ. eigenvalues --  -10.05806 -10.05707 -10.04922 -10.03440  -7.99872
  Beta  occ. eigenvalues --   -7.82702  -5.96168  -5.96136  -5.95920  -5.79110
  Beta  occ. eigenvalues --   -5.78733  -5.78058  -0.99753  -0.92261  -0.88996
  Beta  occ. eigenvalues --   -0.82822  -0.74009  -0.70778  -0.68842  -0.65193
  Beta  occ. eigenvalues --   -0.63952  -0.63208  -0.60079  -0.57544  -0.56628
  Beta  occ. eigenvalues --   -0.51951  -0.51134  -0.48294  -0.47400  -0.45659
  Beta  occ. eigenvalues --   -0.43055  -0.40453  -0.38317  -0.38139  -0.37079
  Beta  occ. eigenvalues --   -0.36213  -0.35240  -0.34924  -0.33952  -0.33852
  Beta  occ. eigenvalues --   -0.33040  -0.32554  -0.32110  -0.31874  -0.31214
  Beta  occ. eigenvalues --   -0.30490  -0.29537  -0.29116  -0.27205  -0.26813
  Beta  occ. eigenvalues --   -0.26490  -0.25499  -0.25199  -0.24334  -0.23332
  Beta  occ. eigenvalues --   -0.23022  -0.22179  -0.21244  -0.20482  -0.19228
  Beta  occ. eigenvalues --   -0.18438  -0.18063  -0.15356  -0.13427  -0.12660
  Beta  occ. eigenvalues --   -0.11949
  Beta virt. eigenvalues --    0.06718   0.07390   0.07827   0.08351   0.08726
  Beta virt. eigenvalues --    0.08962   0.09593   0.09679   0.10146   0.10452
  Beta virt. eigenvalues --    0.11080   0.11290   0.11405   0.12087   0.12410

 Mulliken charges and spin densities:
               1          2
     1  C   -0.423341   0.004881
     2  C   -0.017674  -0.082825
     3  C   -0.863343   0.045786
     4  C    0.015085  -0.005047
     5  C    0.087264  -0.009023
     6  C    0.115487   0.252008
     7  C   -0.311619   0.216420
     8  C   -0.458025   0.031569
     9  C   -0.227094   0.301280
    10  S    0.246539  -0.287332
    11  O   -0.251270   0.000098
    12  O   -0.086417   0.014717
    13  N   -0.073225   0.125399
    14  C    0.302514  -0.685862
    15  C   -0.345239   0.120098
    16  C    0.020042  -0.609778
    17  S    0.243708   0.205131
    18  C   -0.638634  -0.170242
    19  O   -0.156006  -0.014061
    20  H   -0.012154  -0.024737
    21  H    0.114844   0.008087
    22  H    0.117413   0.001985
    23  H    0.131044   0.011889
    24  H    0.165761   0.002842
    25  H    0.131847   0.051110
    26  H    0.224515   0.005837
    27  H    0.173352   0.011052
    28  H    0.135975   0.010636
    29  H    0.129766  -0.010997
    30  H   -0.250791   0.375565
    31  H   -0.041494   0.233700
    32  H    0.023554   0.138650
    33  H    0.183676   0.003033
    34  H   -0.106910   0.248660
    35  H    0.020019   0.202616
    36  H   -0.000791   0.177555
    37  H    0.032165   0.161461
    38  H    0.282602  -0.079922
    39  H    0.148218   0.010496
    40  H    0.218637   0.007266
 Sum of Mulliken charges =  -1.00000   1.00000

 Dipole moment (field-independent basis, Debye):
    X=              2.1452    Y=              3.2245    Z=              0.3709  Tot=              3.8906
 Quadrupole moment (field-independent basis, Debye-Ang):
   XX=           -190.5652   YY=           -167.3299   ZZ=           -154.8646
   XY=             -0.7524   XZ=             -1.4382   YZ=             -4.8726

 Summary of Natural Population Analysis:

                                       Natural Population
                Natural  -----------------------------------------------
    Atom  No    Charge         Core      Valence    Rydberg      Total
 -----------------------------------------------------------------------
      C    1   -0.28859      0.99966     2.28466    0.00427     3.28859
      C    2   -0.20149      0.99963     2.19467    0.00719     3.20149
      C    3    0.06079      0.99951     1.92552    0.01417     2.93921
      C    4   -0.03549      0.99949     2.02534    0.01066     3.03549
      C    5   -0.09878      0.99946     2.08789    0.01143     3.09878
      C    6   -0.10004      0.99936     2.08552    0.01516     3.10004
      C    7   -0.06625      0.99950     2.05515    0.01160     3.06625
      C    8   -0.11946      0.99957     2.11145    0.00844     3.11946
      C    9   -0.02188      0.99953     2.01421    0.00814     3.02188
      S   10    1.11839      4.99910     1.78067    0.10185     6.88161
      O   11   -0.46885      0.99990     3.46429    0.00465     4.46885
      O   12   -0.46907      0.99991     3.46429    0.00487     4.46907
      N   13   -0.38003      0.99973     2.86398    0.01632     3.88003
      C   14   -0.18107      0.99963     2.17210    0.00934     3.18107
      C   15   -0.09278      0.99958     2.07970    0.01351     3.09278
      C   16   -0.25567      0.99958     2.24410    0.01199     3.25567
      S   17    0.08075      4.99963     2.90047    0.01915     7.91925
      C   18   -0.34861      0.99961     2.34263    0.00637     3.34861
      O   19   -0.36995      0.99990     3.36386    0.00618     4.36995
      H   20    0.10782      0.00000     0.39084    0.00134     0.39218
      H   21    0.09581      0.00000     0.40333    0.00086     0.40419
      H   22    0.09203      0.00000     0.40706    0.00091     0.40797
      H   23    0.09629      0.00000     0.40260    0.00111     0.40371
      H   24    0.09805      0.00000     0.40082    0.00113     0.40195
      H   25    0.08458      0.00000     0.41367    0.00176     0.41542
      H   26    0.11114      0.00000     0.38778    0.00108     0.38886
      H   27    0.10669      0.00000     0.39234    0.00098     0.39331
      H   28    0.09498      0.00000     0.40415    0.00087     0.40502
      H   29    0.09415      0.00000     0.40467    0.00119     0.40585
      H   30    0.09661      0.00000     0.40189    0.00150     0.40339
      H   31    0.09549      0.00000     0.40329    0.00121     0.40451
      H   32    0.10635      0.00000     0.39256    0.00109     0.39365
      H   33    0.11780      0.00000     0.38067    0.00153     0.38220
      H   34    0.08882      0.00000     0.40942    0.00176     0.41118
      H   35    0.10628      0.00000     0.39274    0.00098     0.39372
      H   36    0.10143      0.00000     0.39694    0.00163     0.39857
      H   37    0.09756      0.00000     0.40113    0.00131     0.40244
      H   38    0.11559      0.00000     0.38298    0.00143     0.38441
      H   39    0.10487      0.00000     0.39436    0.00077     0.39513
      H   40    0.22573      0.00000     0.27199    0.00228     0.27427
 =======================================================================
   * Total *    0.00000     26.99229    53.69572    0.31199    81.00000

 Normal termination of Gaussian 16 at Sun Dec 13 22:28:06 2020.
