 Gaussian 16, Revision A.03,

 -----------------------------------------------------------
 # opt freq B3LYP/6-31G(d) empiricaldispersion=gd3bj scf=xqc
 -----------------------------------------------------------

 ----------------------------
 CID_57080673_JID_98_neutraal
 ----------------------------
 Symbolic Z-matrix:
 Charge =  0 Multiplicity = 1

 SCF Done:  E(RB3LYP) =  -803.962443797     A.U. after   13 cycles
 SCF Done:  E(RB3LYP) =  -803.968451861     A.U. after   11 cycles
 SCF Done:  E(RB3LYP) =  -803.969300508     A.U. after   10 cycles
 SCF Done:  E(RB3LYP) =  -803.969549870     A.U. after   10 cycles
 SCF Done:  E(RB3LYP) =  -803.969595004     A.U. after    9 cycles
 SCF Done:  E(RB3LYP) =  -803.969639345     A.U. after   10 cycles
 SCF Done:  E(RB3LYP) =  -803.969698523     A.U. after   10 cycles
 SCF Done:  E(RB3LYP) =  -803.969724867     A.U. after   10 cycles
 SCF Done:  E(RB3LYP) =  -803.969718192     A.U. after   10 cycles
 SCF Done:  E(RB3LYP) =  -803.969779389     A.U. after   10 cycles
 SCF Done:  E(RB3LYP) =  -803.970200629     A.U. after    9 cycles
 SCF Done:  E(RB3LYP) =  -803.970205602     A.U. after   11 cycles
 SCF Done:  E(RB3LYP) =  -803.961326339     A.U. after   11 cycles
 SCF Done:  E(RB3LYP) =  -803.970208034     A.U. after   10 cycles
 SCF Done:  E(RB3LYP) =  -803.970208288     A.U. after    8 cycles
 SCF Done:  E(RB3LYP) =  -803.970208546     A.U. after    8 cycles
 Optimization completed.
    -- Stationary point found.
 Normal termination of Gaussian 16 at Tue Dec  8 10:24:53 2020.

 --------------------------------------------------------------------
 #N Geom=AllCheck Guess=TCheck SCRF=Check GenChk RB3LYP/6-31G(d) Freq
 --------------------------------------------------------------------

 Structure from the checkpoint file:  "JID_98.chk"
 ----------------------------
 CID_57080673_JID_98_neutraal
 ----------------------------
 Charge =  0 Multiplicity = 1

 SCF Done:  E(RB3LYP) =  -803.970208546     A.U. after    1 cycles

  Exact polarizability: 122.937   3.793  86.644   1.365   0.628  86.923
 Approx polarizability: 143.420   5.603 125.023   5.277   1.852 138.233

                      1                      2                      3
                      A                      A                      A
 Frequencies --     14.2567                58.2619                87.4098
 Red. masses --      3.0526                 3.7213                 3.6938
 Frc consts  --      0.0004                 0.0074                 0.0166
 IR Inten    --      0.6329                 1.5777                 0.9749

                      4                      5                      6
                      A                      A                      A
 Frequencies --    127.9597               179.3290               200.2766
 Red. masses --      2.8647                 3.2683                 1.2523
 Frc consts  --      0.0276                 0.0619                 0.0296
 IR Inten    --      1.8901                 2.1789                10.4987

                      7                      8                      9
                      A                      A                      A
 Frequencies --    236.1409               243.0941               297.4975
 Red. masses --      2.8418                 1.0957                 3.0479
 Frc consts  --      0.0934                 0.0382                 0.1589
 IR Inten    --      7.2491                 0.4422                 1.3136

                     10                     11                     12
                      A                      A                      A
 Frequencies --    370.2102               379.4173               426.1739
 Red. masses --      1.6908                 1.7521                 2.4531
 Frc consts  --      0.1365                 0.1486                 0.2625
 IR Inten    --     51.0786                44.1099                27.3146

                     13                     14                     15
                      A                      A                      A
 Frequencies --    434.2281               450.4404               510.0388
 Red. masses --      2.4276                 2.2458                 3.0517
 Frc consts  --      0.2697                 0.2685                 0.4677
 IR Inten    --      5.4852                12.5973                12.2315

                     16                     17                     18
                      A                      A                      A
 Frequencies --    582.3190               622.3811               731.7193
 Red. masses --      2.0945                 2.4999                 2.0713
 Frc consts  --      0.4185                 0.5705                 0.6534
 IR Inten    --     29.0855                15.2415                17.0048

                     19                     20                     21
                      A                      A                      A
 Frequencies --    757.9115               813.9818               861.3174
 Red. masses --      2.1233                 1.7902                 1.8575
 Frc consts  --      0.7186                 0.6988                 0.8119
 IR Inten    --     43.1322                11.3340                 7.6806

                     22                     23                     24
                      A                      A                      A
 Frequencies --    879.0042               912.0742               938.9350
 Red. masses --      2.5239                 1.5235                 2.1462
 Frc consts  --      1.1489                 0.7467                 1.1148
 IR Inten    --      8.5260                 8.6313                 7.9737

                     25                     26                     27
                      A                      A                      A
 Frequencies --    954.1587               978.2773               983.8694
 Red. masses --      2.0124                 1.9272                 1.4131
 Frc consts  --      1.0794                 1.0867                 0.8059
 IR Inten    --     15.1924                 3.9255                 3.5438

                     28                     29                     30
                      A                      A                      A
 Frequencies --   1034.0784              1063.7670              1070.3066
 Red. masses --      1.4858                 2.4552                 2.0461
 Frc consts  --      0.9361                 1.6370                 1.3810
 IR Inten    --      2.6097                36.2290                29.7048

                     31                     32                     33
                      A                      A                      A
 Frequencies --   1089.6964              1115.9935              1140.6342
 Red. masses --      3.5397                 2.1169                 2.3112
 Frc consts  --      2.4764                 1.5534                 1.7717
 IR Inten    --     31.2537                 1.0617                19.7125

                     34                     35                     36
                      A                      A                      A
 Frequencies --   1178.7031              1225.8127              1235.8624
 Red. masses --      2.3286                 1.5100                 1.5232
 Frc consts  --      1.9061                 1.3368                 1.3707
 IR Inten    --    122.4733                 8.8706                 3.6463

                     37                     38                     39
                      A                      A                      A
 Frequencies --   1251.8396              1283.5390              1307.5930
 Red. masses --      1.5110                 1.3077                 1.2931
 Frc consts  --      1.3951                 1.2693                 1.3026
 IR Inten    --      6.5078                 6.5000                12.4790

                     40                     41                     42
                      A                      A                      A
 Frequencies --   1314.5144              1340.4386              1345.9157
 Red. masses --      1.3495                 1.2463                 1.2570
 Frc consts  --      1.3739                 1.3194                 1.3416
 IR Inten    --      5.0979                 1.9536                 3.0825

                     43                     44                     45
                      A                      A                      A
 Frequencies --   1357.5587              1363.2997              1376.1977
 Red. masses --      1.2709                 1.3483                 1.3961
 Frc consts  --      1.3800                 1.4764                 1.5579
 IR Inten    --      5.5828                 0.5349                17.4373

                     46                     47                     48
                      A                      A                      A
 Frequencies --   1405.6842              1434.4266              1451.2715
 Red. masses --      1.3292                 1.3342                 1.2062
 Frc consts  --      1.5474                 1.6175                 1.4968
 IR Inten    --      7.5402                22.6418                77.2389

                     49                     50                     51
                      A                      A                      A
 Frequencies --   1507.9600              1512.1508              1516.3268
 Red. masses --      1.1741                 1.0880                 1.0818
 Frc consts  --      1.5730                 1.4657                 1.4654
 IR Inten    --     30.6694                 0.4321                 3.8276

                     52                     53                     54
                      A                      A                      A
 Frequencies --   1523.8012              1531.3115              1533.6805
 Red. masses --      1.0598                 1.1532                 1.1011
 Frc consts  --      1.4498                 1.5932                 1.5260
 IR Inten    --      1.3611                25.3308                 5.5482

                     55                     56                     57
                      A                      A                      A
 Frequencies --   2663.2349              2995.3648              3036.2310
 Red. masses --      1.0383                 1.0835                 1.0716
 Frc consts  --      4.3391                 5.7277                 5.8204
 IR Inten    --     21.9447                47.2728                11.9694

                     58                     59                     60
                      A                      A                      A
 Frequencies --   3043.1046              3047.6622              3060.3849
 Red. masses --      1.0719                 1.0377                 1.0615
 Frc consts  --      5.8485                 5.6790                 5.8578
 IR Inten    --     12.7802                16.4132                31.5468

                     61                     62                     63
                      A                      A                      A
 Frequencies --   3065.3204              3091.9701              3104.7467
 Red. masses --      1.0807                 1.0943                 1.0941
 Frc consts  --      5.9828                 6.1642                 6.2140
 IR Inten    --     21.7047                 6.4168                19.8391

                     64                     65                     66
                      A                      A                      A
 Frequencies --   3112.5530              3122.5987              3130.9405
 Red. masses --      1.1017                 1.0979                 1.0959
 Frc consts  --      6.2887                 6.3075                 6.3298
 IR Inten    --     32.8212                36.9699                27.8893

                     67                     68                     69
                      A                      A                      A
 Frequencies --   3147.6974              3492.5944              3699.2986
 Red. masses --      1.1009                 1.0739                 1.0647
 Frc consts  --      6.4267                 7.7182                 8.5841
 IR Inten    --     20.3213                 0.4944                10.8289

 - Thermochemistry -
 -------------------
 Temperature   298.150 Kelvin.  Pressure   1.00000 Atm.
 Atom     1 has atomic number  6 and mass  12.00000

 Molecular mass:   161.08744 amu.
 Principal axes and moments of inertia in atomic units:
                           1         2         3
     Eigenvalues --   602.614924116.175124227.47596
           X            0.99994  -0.00386  -0.00996
           Y            0.00401   0.99987   0.01558
           Z            0.00990  -0.01562   0.99983
 This molecule is an asymmetric top.
 Rotational symmetry number  1.
 Warning -- assumption of classical behavior for rotation
           may cause significant error
 Rotational temperatures (Kelvin)      0.14373     0.02104     0.02049
 Rotational constants (GHZ):           2.99485     0.43845     0.42691
 Zero-point vibrational energy     576341.4 (Joules/Mol)
                                  137.74889 (Kcal/Mol)
 Warning -- explicit consideration of  16 degrees of freedom as
           vibrations may cause significant error
 Vibrational temperatures:     20.51    83.83   125.76   184.11   258.01
          (Kelvin)            288.15   339.75   349.76   428.03   532.65
                              545.90   613.17   624.76   648.08   733.83
                              837.83   895.47  1052.78  1090.47  1171.14
                             1239.24  1264.69  1312.27  1350.92  1372.82
                             1407.52  1415.57  1487.81  1530.52  1539.93
                             1567.83  1605.67  1641.12  1695.89  1763.67
                             1778.13  1801.12  1846.73  1881.33  1891.29
                             1928.59  1936.47  1953.22  1961.48  1980.04
                             2022.47  2063.82  2088.06  2169.62  2175.65
                             2181.66  2192.41  2203.22  2206.62  3831.80
                             4309.66  4368.46  4378.35  4384.91  4403.21
                             4410.31  4448.66  4467.04  4478.27  4492.72
                             4504.73  4528.83  5025.06  5322.47

 Zero-point correction=                           0.219517 (Hartree/Particle)
 Thermal correction to Energy=                    0.231085
 Thermal correction to Enthalpy=                  0.232029
 Thermal correction to Gibbs Free Energy=         0.180479
 Sum of electronic and zero-point Energies=           -803.750692
 Sum of electronic and thermal Energies=              -803.739124
 Sum of electronic and thermal Enthalpies=            -803.738179
 Sum of electronic and thermal Free Energies=         -803.789730

                     E (Thermal)             CV                S
                      KCal/Mol        Cal/Mol-Kelvin    Cal/Mol-Kelvin
 Total                  145.008             42.902            108.497
 Electronic               0.000              0.000              0.000
 Translational            0.889              2.981             41.139
 Rotational               0.889              2.981             30.729
 Vibrational            143.231             36.940             36.629
 Vibration     1          0.593              1.986              7.307
 Vibration     2          0.596              1.974              4.515
 Vibration     3          0.601              1.958              3.717
 Vibration     4          0.611              1.925              2.976
 Vibration     5          0.629              1.868              2.335
 Vibration     6          0.638              1.839              2.131
 Vibration     7          0.655              1.785              1.832
 Vibration     8          0.659              1.774              1.780
 Vibration     9          0.691              1.678              1.431
 Vibration    10          0.742              1.533              1.079
 Vibration    11          0.749              1.514              1.041
 Vibration    12          0.788              1.413              0.871
 Vibration    13          0.795              1.396              0.845
 Vibration    14          0.809              1.360              0.794
 Vibration    15          0.865              1.228              0.633
 Vibration    16          0.939              1.070              0.481

                           ! Non-Optimized Parameters !
 Normal termination of Gaussian 16 at Tue Dec  8 10:29:09 2020.

 ----------------------------------------------------------------------
 # B3LYP/6-311++G(d,p) empiricaldispersion=gd3bj scf=xqc pop=npa geom=c
 heck
 ----------------------------------------------------------------------

 ------------------------------------
 CID_57080673_JID_98_Energie_neutraal
 ------------------------------------
 Structure from the checkpoint file:  "JID_98.chk"
 Charge =  0 Multiplicity = 1

 SCF Done:  E(RB3LYP) =  -804.128976347     A.U. after   14 cycles
 Normal termination of Gaussian 16 at Tue Dec  8 10:30:49 2020.

 ----------------------------------------------------------------------
 # B3LYP/6-311++G(d,p) empiricaldispersion=gd3bj scf=xqc pop=npa geom=c
 heck
 ----------------------------------------------------------------------

 ----------------------------------
 CID_57080673_JID_98_Energie_kation
 ----------------------------------
 Structure from the checkpoint file:  "JID_98.chk"
 Charge =  1 Multiplicity = 2

 SCF Done:  E(UB3LYP) =  -803.822144221     A.U. after   26 cycles
 Normal termination of Gaussian 16 at Tue Dec  8 10:39:27 2020.
 Gaussian 16:  ES64L-G16RevA.03 25-Dec-2016

 ----------------------------------------------------------------------
 # B3LYP/6-311++G(d,p) empiricaldispersion=gd3bj scf=xqc pop=npa geom=c
 heck
 ----------------------------------------------------------------------

 ---------------------------------
 CID_57080673_JID_98_Energie_anion
 ---------------------------------
 Structure from the checkpoint file:  "JID_98.chk"
 Charge = -1 Multiplicity = 2

                         Standard orientation:
 ---------------------------------------------------------------------
 Center     Atomic      Atomic             Coordinates (Angstroms)
 Number     Number       Type             X           Y           Z
 ---------------------------------------------------------------------
      1          6           0        3.790617   -0.016817   -1.132325
      2          6           0        2.779834    0.124926    0.002396
      3          7           0        1.493182   -0.412633   -0.411019
      4          6           0        0.367103   -0.036844    0.443133
      5          6           0       -0.113879    1.455583    0.347690
      6          6           0       -1.581985    1.399089   -0.118809
      7          6           0       -2.065845    0.038667    0.403240
      8          6           0       -0.879485   -0.885660    0.110630
      9         16           0       -3.693161   -0.527552   -0.229737
     10          8           0        3.205222   -0.553299    1.175675
     11          1           0        3.837212   -1.060451   -1.464987
     12          1           0        4.780990    0.286303   -0.783183
     13          1           0        3.518749    0.608040   -1.992021
     14          1           0        2.725022    1.180204    0.315320
     15          1           0        1.298338   -0.164155   -1.379538
     16          1           0        0.693688   -0.243571    1.465754
     17          1           0       -0.044669    1.939481    1.328057
     18          1           0        0.516587    2.034760   -0.336150
     19          1           0       -1.637885    1.397326   -1.215447
     20          1           0       -2.193744    2.232551    0.236981
     21          1           0       -2.223875    0.101705    1.487208
     22          1           0       -0.872619   -1.133800   -0.959961
     23          1           0       -0.917012   -1.829579    0.659894
     24          1           0       -3.334932   -0.568951   -1.532741
     25          1           0        3.072522   -1.497878    0.982620
 ---------------------------------------------------------------------

 SCF Done:  E(UB3LYP) =  -804.116295192     A.U. after   27 cycles

 The electronic state is 2-A.
 Alpha  occ. eigenvalues --  -88.73526 -19.01854 -14.19588 -10.14223 -10.10087
 Alpha  occ. eigenvalues --  -10.09282 -10.06260 -10.06233 -10.05898 -10.05737
 Alpha  occ. eigenvalues --   -7.82224  -5.78599  -5.78245  -5.77620  -0.93038
 Alpha  occ. eigenvalues --   -0.80113  -0.73497  -0.65409  -0.63120  -0.60103
 Alpha  occ. eigenvalues --   -0.55786  -0.51525  -0.47165  -0.46853  -0.41428
 Alpha  occ. eigenvalues --   -0.38963  -0.36961  -0.36484  -0.33586  -0.31942
 Alpha  occ. eigenvalues --   -0.31368  -0.30142  -0.28129  -0.27589  -0.26108
 Alpha  occ. eigenvalues --   -0.25366  -0.24662  -0.24162  -0.23367  -0.22233
 Alpha  occ. eigenvalues --   -0.21320  -0.18113  -0.13678  -0.12987   0.04679
 Alpha virt. eigenvalues --    0.07254   0.07625   0.08070   0.09662   0.09903
 Alpha virt. eigenvalues --    0.10019   0.11025   0.11191   0.11499   0.12281
 Alpha virt. eigenvalues --    0.12859   0.13288   0.13976   0.14508   0.15727

  Beta  occ. eigenvalues --  -88.73509 -19.01838 -14.19557 -10.14215 -10.10070
  Beta  occ. eigenvalues --  -10.09277 -10.06238 -10.06199 -10.05874 -10.05696
  Beta  occ. eigenvalues --   -7.82206  -5.78550  -5.78236  -5.77609  -0.93001
  Beta  occ. eigenvalues --   -0.80069  -0.73457  -0.65354  -0.63058  -0.60039
  Beta  occ. eigenvalues --   -0.55705  -0.51456  -0.47081  -0.46770  -0.41384
  Beta  occ. eigenvalues --   -0.38894  -0.36905  -0.36441  -0.33513  -0.31885
  Beta  occ. eigenvalues --   -0.31310  -0.30079  -0.28063  -0.27527  -0.26070
  Beta  occ. eigenvalues --   -0.25322  -0.24619  -0.24120  -0.23299  -0.22179
  Beta  occ. eigenvalues --   -0.21258  -0.18079  -0.13634  -0.12943
  Beta virt. eigenvalues --    0.07106   0.07957   0.08481   0.08686   0.10024
  Beta virt. eigenvalues --    0.10223   0.10406   0.11377   0.11567   0.11876
  Beta virt. eigenvalues --    0.12591   0.13350   0.13848   0.14122   0.14899

 Mulliken charges and spin densities:
               1          2
     1  C    0.289227  -0.761389
     2  C    0.399378  -0.600451
     3  N    0.052605   0.014357
     4  C   -2.025855   1.648166
     5  C    0.537766  -0.892627
     6  C    1.193514  -1.809202
     7  C   -1.061825   1.693921
     8  C    1.652956  -2.341461
     9  S    0.277613  -0.503148
    10  O   -0.272678   0.040958
    11  H   -0.235746   0.385445
    12  H   -0.057759   0.204843
    13  H   -0.605864   0.760719
    14  H    0.083831   0.104427
    15  H    0.227904   0.014672
    16  H   -0.000732   0.170550
    17  H   -0.135632   0.301881
    18  H   -0.116737   0.262832
    19  H   -0.434540   0.628395
    20  H   -0.098925   0.223623
    21  H   -0.175855   0.411192
    22  H   -0.350768   0.508589
    23  H    0.003444   0.128882
    24  H   -0.251626   0.270852
    25  H    0.106302   0.133974
 Sum of Mulliken charges =  -1.00000   1.00000

 Dipole moment (field-independent basis, Debye):
    X=             -1.1081    Y=             -1.4797    Z=              3.1002  Tot=              3.6095
 Quadrupole moment (field-independent basis, Debye-Ang):
   XX=           -136.5889   YY=           -102.4084   ZZ=           -108.3622
   XY=             -0.7675   XZ=              3.5014   YZ=              2.8013

 Summary of Natural Population Analysis:

                                       Natural Population
                Natural  -----------------------------------------------
    Atom  No    Charge         Core      Valence    Rydberg      Total
 -----------------------------------------------------------------------
      C    1   -0.29908      0.99965     2.29331    0.00612     3.29908
      C    2    0.14778      0.99963     1.83645    0.01614     2.85222
      N    3   -0.35104      0.99971     2.83877    0.01257     3.85104
      C    4   -0.01154      0.99959     1.99947    0.01248     3.01154
      C    5   -0.20102      0.99962     2.19276    0.00864     3.20102
      C    6   -0.19494      0.99960     2.18498    0.01036     3.19494
      C    7   -0.16029      0.99952     2.14966    0.01111     3.16029
      C    8   -0.19251      0.99958     2.18302    0.00991     3.19251
      S    9   -0.02441      4.99963     3.00939    0.01539     8.02441
      O   10   -0.37423      0.99990     3.36836    0.00597     4.37423
      H   11    0.09928      0.00000     0.39928    0.00144     0.40072
      H   12    0.10251      0.00000     0.39641    0.00108     0.39749
      H   13    0.10448      0.00000     0.39345    0.00208     0.39552
      H   14    0.07242      0.00000     0.42503    0.00255     0.42758
      H   15    0.18255      0.00000     0.31178    0.00566     0.31745
      H   16    0.09938      0.00000     0.39888    0.00174     0.40062
      H   17    0.09787      0.00000     0.40085    0.00128     0.40213
      H   18    0.10470      0.00000     0.39371    0.00159     0.39530
      H   19    0.10005      0.00000     0.39734    0.00261     0.39995
      H   20    0.10309      0.00000     0.39554    0.00137     0.39691
      H   21    0.10095      0.00000     0.39780    0.00124     0.39905
      H   22    0.10055      0.00000     0.39739    0.00206     0.39945
      H   23    0.10481      0.00000     0.39392    0.00128     0.39519
      H   24    0.06139      0.00000     0.43548    0.00313     0.43861
      H   25    0.22726      0.00000     0.26953    0.00321     0.27274
 =======================================================================
   * Total *   -0.00000     13.99643    29.86257    0.14101    44.00000

 Normal termination of Gaussian 16 at Tue Dec  8 10:50:26 2020.
