 Gaussian 16, Revision A.03,

 -----------------------------------------------------------
 # opt freq B3LYP/6-31G(d) empiricaldispersion=gd3bj scf=xqc
 -----------------------------------------------------------

 ------------------------------
 CID_15563449_JID_2798_neutraal
 ------------------------------
 Symbolic Z-matrix:
 Charge =  0 Multiplicity = 1

 SCF Done:  E(RB3LYP) =  -862.935751661     A.U. after   14 cycles
 SCF Done:  E(RB3LYP) =  -862.937057684     A.U. after   12 cycles
 SCF Done:  E(RB3LYP) =  -862.936405277     A.U. after   13 cycles
 SCF Done:  E(RB3LYP) =  -862.937337205     A.U. after   11 cycles
 SCF Done:  E(RB3LYP) =  -862.937453861     A.U. after   11 cycles
 SCF Done:  E(RB3LYP) =  -862.937456830     A.U. after   10 cycles
 SCF Done:  E(RB3LYP) =  -862.937474255     A.U. after   10 cycles
 SCF Done:  E(RB3LYP) =  -862.937479260     A.U. after    9 cycles
 SCF Done:  E(RB3LYP) =  -862.937479625     A.U. after    8 cycles
 SCF Done:  E(RB3LYP) =  -862.937479743     A.U. after    8 cycles
 SCF Done:  E(RB3LYP) =  -862.937479782     A.U. after    7 cycles
 Optimization completed.
    -- Stationary point found.
 Normal termination of Gaussian 16 at Wed Dec  9 18:01:02 2020.

 --------------------------------------------------------------------
 #N Geom=AllCheck Guess=TCheck SCRF=Check GenChk RB3LYP/6-31G(d) Freq
 --------------------------------------------------------------------

 Structure from the checkpoint file:  "JID_2798.chk"
 ------------------------------
 CID_15563449_JID_2798_neutraal
 ------------------------------
 Charge =  0 Multiplicity = 1

 SCF Done:  E(RB3LYP) =  -862.937479782     A.U. after    1 cycles

  Exact polarizability: 157.418 -14.159 107.312 -15.534 -13.126  98.254
 Approx polarizability: 217.783 -27.765 175.795 -28.500 -30.692 160.756

                      1                      2                      3
                      A                      A                      A
 Frequencies --     22.1616                50.0653                61.3125
 Red. masses --      3.5566                 4.6148                 3.8720
 Frc consts  --      0.0010                 0.0068                 0.0086
 IR Inten    --      0.0589                 0.5424                 0.4204

                      4                      5                      6
                      A                      A                      A
 Frequencies --     83.9826               146.6595               193.4420
 Red. masses --      2.2043                 3.3999                 4.3931
 Frc consts  --      0.0092                 0.0431                 0.0969
 IR Inten    --      3.0259                 1.4913                 0.2307

                      7                      8                      9
                      A                      A                      A
 Frequencies --    218.2725               248.0841               275.9802
 Red. masses --      1.1680                 4.2177                 1.3348
 Frc consts  --      0.0328                 0.1529                 0.0599
 IR Inten    --      1.2692                 0.3049                 0.3714

                     10                     11                     12
                      A                      A                      A
 Frequencies --    291.6850               314.6297               387.1405
 Red. masses --      2.8748                 2.3375                 2.2569
 Frc consts  --      0.1441                 0.1363                 0.1993
 IR Inten    --      0.3040                 0.7725                 2.7707

                     13                     14                     15
                      A                      A                      A
 Frequencies --    411.3994               421.4912               429.9959
 Red. masses --      4.5003                 4.5657                 3.0832
 Frc consts  --      0.4488                 0.4779                 0.3359
 IR Inten    --      0.6992                 0.2335                 9.6787

                     16                     17                     18
                      A                      A                      A
 Frequencies --    498.9428               616.8007               633.2384
 Red. masses --      3.3100                 3.3769                 6.1597
 Frc consts  --      0.4855                 0.7569                 1.4553
 IR Inten    --      7.2003                 1.0192                 0.1374

                     19                     20                     21
                      A                      A                      A
 Frequencies --    680.1158               707.5243               712.7753
 Red. masses --      3.8650                 2.3716                 5.8490
 Frc consts  --      1.0533                 0.6995                 1.7508
 IR Inten    --      1.6604                15.7487                 7.8777

                     22                     23                     24
                      A                      A                      A
 Frequencies --    759.0619               790.6029               854.6785
 Red. masses --      1.5476                 3.1460                 1.2502
 Frc consts  --      0.5254                 1.1586                 0.5381
 IR Inten    --     39.5475                15.2559                 0.2089

                     25                     26                     27
                      A                      A                      A
 Frequencies --    872.5642               923.0036               924.0485
 Red. masses --      1.8415                 1.3555                 2.4160
 Frc consts  --      0.8261                 0.6804                 1.2154
 IR Inten    --      1.4344                 1.3575                11.4645

                     28                     29                     30
                      A                      A                      A
 Frequencies --    970.6115               996.3930              1020.1374
 Red. masses --      1.3511                 1.2527                 6.2627
 Frc consts  --      0.7499                 0.7328                 3.8400
 IR Inten    --      0.1426                 0.1616                 3.4052

                     31                     32                     33
                      A                      A                      A
 Frequencies --   1027.2338              1054.9440              1078.7584
 Red. masses --      1.9478                 2.9144                 1.4790
 Frc consts  --      1.2110                 1.9110                 1.0140
 IR Inten    --      7.1341                 6.5645                 4.2159

                     34                     35                     36
                      A                      A                      A
 Frequencies --   1107.7478              1115.5802              1124.4966
 Red. masses --      1.6761                 2.7830                 2.5492
 Frc consts  --      1.2118                 2.0407                 1.8992
 IR Inten    --     15.2321                14.1433                55.6325

                     37                     38                     39
                      A                      A                      A
 Frequencies --   1180.4030              1189.2949              1194.0443
 Red. masses --      1.9721                 1.4018                 1.0969
 Frc consts  --      1.6189                 1.1682                 0.9215
 IR Inten    --     55.7988                12.8162                 0.0558

                     40                     41                     42
                      A                      A                      A
 Frequencies --   1213.9083              1236.4531              1269.2216
 Red. masses --      1.1429                 1.4442                 1.4507
 Frc consts  --      0.9923                 1.3009                 1.3769
 IR Inten    --      0.7485                 6.0548                55.4392

                     43                     44                     45
                      A                      A                      A
 Frequencies --   1306.5945              1332.6517              1361.0240
 Red. masses --      1.3715                 2.5482                 2.0034
 Frc consts  --      1.3795                 2.6663                 2.1865
 IR Inten    --      3.6762                 0.7583                 1.0572

                     46                     47                     48
                      A                      A                      A
 Frequencies --   1374.7725              1417.3058              1434.6566
 Red. masses --      1.3285                 1.1859                 1.2860
 Frc consts  --      1.4794                 1.4035                 1.5595
 IR Inten    --     23.0553                16.7926                11.2254

                     49                     50                     51
                      A                      A                      A
 Frequencies --   1473.3928              1488.7067              1501.3142
 Red. masses --      1.1032                 2.1089                 1.1020
 Frc consts  --      1.4110                 2.7537                 1.4634
 IR Inten    --      6.3284                 8.7459                 3.7055

                     52                     53                     54
                      A                      A                      A
 Frequencies --   1516.7006              1525.1933              1528.4547
 Red. masses --      1.0789                 1.0647                 1.3156
 Frc consts  --      1.4622                 1.4592                 1.8108
 IR Inten    --      3.2108                 5.4199                21.3914

                     55                     56                     57
                      A                      A                      A
 Frequencies --   1530.6396              1540.5412              1636.8333
 Red. masses --      1.4427                 1.0639                 5.4813
 Frc consts  --      1.9915                 1.4876                 8.6525
 IR Inten    --      7.1692                13.7600                 1.5705

                     58                     59                     60
                      A                      A                      A
 Frequencies --   1647.7305              3024.3512              3039.3961
 Red. masses --      5.4333                 1.0350                 1.0836
 Frc consts  --      8.6913                 5.5779                 5.8977
 IR Inten    --     11.3577                49.5534                17.5840

                     61                     62                     63
                      A                      A                      A
 Frequencies --   3067.2798              3080.3425              3084.8290
 Red. masses --      1.0398                 1.0995                 1.0600
 Frc consts  --      5.7637                 6.1465                 5.9434
 IR Inten    --      3.6393                50.6634                19.0346

                     64                     65                     66
                      A                      A                      A
 Frequencies --   3128.8507              3135.1493              3137.1956
 Red. masses --      1.1014                 1.1038                 1.1050
 Frc consts  --      6.3527                 6.3920                 6.4073
 IR Inten    --     55.9874                 9.7491                20.9583

                     67                     68                     69
                      A                      A                      A
 Frequencies --   3150.8182              3184.4637              3191.6726
 Red. masses --      1.1011                 1.0848                 1.0876
 Frc consts  --      6.4404                 6.4816                 6.5279
 IR Inten    --     24.5140                 1.9648                 3.8009

                     70                     71                     72
                      A                      A                      A
 Frequencies --   3201.5463              3207.7907              3214.9870
 Red. masses --      1.0915                 1.0941                 1.0979
 Frc consts  --      6.5914                 6.6328                 6.6863
 IR Inten    --     16.2676                24.9479                14.6864

 - Thermochemistry -
 -------------------
 Temperature   298.150 Kelvin.  Pressure   1.00000 Atm.
 Atom     1 has atomic number  6 and mass  12.00000

 Molecular mass:   182.07654 amu.
 Principal axes and moments of inertia in atomic units:
                           1         2         3
     Eigenvalues --  1051.803624076.376824149.70597
           X            0.99996  -0.00087  -0.00928
           Y           -0.00243   0.93679  -0.34988
           Z            0.00899   0.34988   0.93675
 This molecule is an asymmetric top.
 Rotational symmetry number  1.
 Warning -- assumption of classical behavior for rotation
           may cause significant error
 Rotational temperatures (Kelvin)      0.08235     0.02125     0.02087
 Rotational constants (GHZ):           1.71585     0.44273     0.43491
 Zero-point vibrational energy     578837.5 (Joules/Mol)
                                  138.34548 (Kcal/Mol)
 Warning -- explicit consideration of  17 degrees of freedom as
           vibrations may cause significant error
 Vibrational temperatures:     31.89    72.03    88.22   120.83   211.01
          (Kelvin)            278.32   314.05   356.94   397.07   419.67
                              452.68   557.01   591.91   606.43   618.67
                              717.87   887.44   911.09   978.53  1017.97
                             1025.52  1092.12  1137.50  1229.69  1255.43
                             1328.00  1329.50  1396.49  1433.59  1467.75
                             1477.96  1517.83  1552.09  1593.80  1605.07
                             1617.90  1698.34  1711.13  1717.96  1746.54
                             1778.98  1826.13  1879.90  1917.39  1958.21
                             1977.99  2039.19  2064.15  2119.88  2141.92
                             2160.06  2182.19  2194.41  2199.11  2202.25
                             2216.50  2355.04  2370.72  4351.37  4373.01
                             4413.13  4431.93  4438.38  4501.72  4510.78
                             4513.72  4533.32  4581.73  4592.11  4606.31
                             4615.30  4625.65

 Zero-point correction=                           0.220468 (Hartree/Particle)
 Thermal correction to Energy=                    0.233037
 Thermal correction to Enthalpy=                  0.233982
 Thermal correction to Gibbs Free Energy=         0.180072
 Sum of electronic and zero-point Energies=           -862.717012
 Sum of electronic and thermal Energies=              -862.704442
 Sum of electronic and thermal Enthalpies=            -862.703498
 Sum of electronic and thermal Free Energies=         -862.757408

                     E (Thermal)             CV                S
                      KCal/Mol        Cal/Mol-Kelvin    Cal/Mol-Kelvin
 Total                  146.233             46.612            113.463
 Electronic               0.000              0.000              0.000
 Translational            0.889              2.981             41.504
 Rotational               0.889              2.981             31.254
 Vibrational            144.456             40.650             40.705
 Vibration     1          0.593              1.985              6.430
 Vibration     2          0.595              1.978              4.815
 Vibration     3          0.597              1.973              4.414
 Vibration     4          0.601              1.960              3.796
 Vibration     5          0.617              1.906              2.715
 Vibration     6          0.635              1.849              2.195
 Vibration     7          0.646              1.813              1.973
 Vibration     8          0.662              1.766              1.744
 Vibration     9          0.678              1.718              1.558
 Vibration    10          0.687              1.689              1.464
 Vibration    11          0.702              1.646              1.338
 Vibration    12          0.756              1.498              1.011
 Vibration    13          0.775              1.445              0.922
 Vibration    14          0.784              1.424              0.887
 Vibration    15          0.791              1.405              0.859
 Vibration    16          0.854              1.252              0.661
 Vibration    17          0.976              0.996              0.422

 Optimization completed.
    -- Stationary point found.
 Normal termination of Gaussian 16 at Wed Dec  9 18:08:28 2020.

 ----------------------------------------------------------------------
 # B3LYP/6-311++G(d,p) empiricaldispersion=gd3bj scf=xqc pop=npa geom=c
 heck
 ----------------------------------------------------------------------

 --------------------------------------
 CID_15563449_JID_2798_Energie_neutraal
 --------------------------------------
 Structure from the checkpoint file:  "JID_2798.chk"
 Charge =  0 Multiplicity = 1

 SCF Done:  E(RB3LYP) =  -863.093283099     A.U. after   15 cycles
 Normal termination of Gaussian 16 at Wed Dec  9 18:11:57 2020.

 ----------------------------------------------------------------------
 # B3LYP/6-311++G(d,p) empiricaldispersion=gd3bj scf=xqc pop=npa geom=c
 heck
 ----------------------------------------------------------------------

 ------------------------------------
 CID_15563449_JID_2798_Energie_kation
 ------------------------------------
 Structure from the checkpoint file:  "JID_2798.chk"
 Charge =  1 Multiplicity = 2

 SCF Done:  E(UB3LYP) =  -862.801357098     A.U. after   23 cycles
 Normal termination of Gaussian 16 at Wed Dec  9 18:19:52 2020.
 Gaussian 16:  ES64L-G16RevA.03 25-Dec-2016

 ----------------------------------------------------------------------
 # B3LYP/6-311++G(d,p) empiricaldispersion=gd3bj scf=xqc pop=npa geom=c
 heck
 ----------------------------------------------------------------------

 -----------------------------------
 CID_15563449_JID_2798_Energie_anion
 -----------------------------------
 Structure from the checkpoint file:  "JID_2798.chk"
 Charge = -1 Multiplicity = 2

                         Standard orientation:
 ---------------------------------------------------------------------
 Center     Atomic      Atomic             Coordinates (Angstroms)
 Number     Number       Type             X           Y           Z
 ---------------------------------------------------------------------
      1          6           0        1.244360    1.276503    1.191762
      2          6           0        2.097965    0.014137    1.083525
      3          6           0        1.372326   -1.188938    0.450065
      4         16           0        0.422266   -0.910129   -1.107087
      5          6           0       -1.160575   -0.347076   -0.484171
      6          6           0       -1.685082    0.859819   -0.960688
      7          6           0       -2.937160    1.299633   -0.530279
      8          6           0       -3.666682    0.548909    0.391716
      9          6           0       -3.145951   -0.656181    0.868131
     10          6           0       -1.906316   -1.111325    0.422207
     11          8           0        3.381622    0.258770    0.516529
     12          6           0        3.431338    0.648119   -0.844421
     13          1           0        0.943867    1.651876    0.210558
     14          1           0        1.809730    2.057010    1.709668
     15          1           0        0.327975    1.070062    1.754300
     16          1           0        2.350224   -0.311633    2.101388
     17          1           0        2.112668   -1.957450    0.208429
     18          1           0        0.681386   -1.618204    1.180709
     19          1           0       -1.104075    1.454024   -1.659222
     20          1           0       -3.334927    2.238154   -0.906152
     21          1           0       -4.636346    0.897496    0.734965
     22          1           0       -3.713798   -1.252771    1.576748
     23          1           0       -1.521842   -2.065505    0.770184
     24          1           0        3.161834   -0.171397   -1.524302
     25          1           0        2.780020    1.503176   -1.065953
     26          1           0        4.468722    0.935457   -1.037249
 ---------------------------------------------------------------------

 SCF Done:  E(UB3LYP) =  -863.078744563     A.U. after   33 cycles
 SCF Done:  E(UB3LYP) =  -863.078744581     a.u. after    2 cycles

 The electronic state is 2-A.
 Alpha  occ. eigenvalues --  -88.74578 -19.02936 -10.13070 -10.11682 -10.10332
 Alpha  occ. eigenvalues --  -10.10331 -10.07754 -10.07732 -10.07550 -10.07543
 Alpha  occ. eigenvalues --  -10.07217 -10.05923  -7.83204  -5.79599  -5.79227
 Alpha  occ. eigenvalues --   -5.78577  -0.94043  -0.76448  -0.71100  -0.67031
 Alpha  occ. eigenvalues --   -0.64977  -0.62603  -0.59634  -0.56071  -0.50932
 Alpha  occ. eigenvalues --   -0.49113  -0.46727  -0.41875  -0.39841  -0.38319
 Alpha  occ. eigenvalues --   -0.36967  -0.35629  -0.35305  -0.32977  -0.32519
 Alpha  occ. eigenvalues --   -0.32092  -0.31230  -0.29973  -0.27749  -0.27362
 Alpha  occ. eigenvalues --   -0.26505  -0.25256  -0.24901  -0.22252  -0.21325
 Alpha  occ. eigenvalues --   -0.17665  -0.16422  -0.15797  -0.12224   0.04535
 Alpha virt. eigenvalues --    0.06579   0.06804   0.07091   0.08095   0.08214
 Alpha virt. eigenvalues --    0.08690   0.08959   0.10108   0.10538   0.11051
 Alpha virt. eigenvalues --    0.11435   0.11727   0.12661   0.13733   0.14129

  Beta  occ. eigenvalues --  -88.74574 -19.02935 -10.13062 -10.11666 -10.10309
  Beta  occ. eigenvalues --  -10.10295 -10.07744 -10.07709 -10.07535 -10.07522
  Beta  occ. eigenvalues --  -10.07167 -10.05901  -7.83201  -5.79594  -5.79222
  Beta  occ. eigenvalues --   -5.78575  -0.94037  -0.76385  -0.71055  -0.66973
  Beta  occ. eigenvalues --   -0.64919  -0.62546  -0.59599  -0.56011  -0.50876
  Beta  occ. eigenvalues --   -0.49037  -0.46678  -0.41801  -0.39797  -0.38284
  Beta  occ. eigenvalues --   -0.36944  -0.35581  -0.35226  -0.32934  -0.32478
  Beta  occ. eigenvalues --   -0.32056  -0.31186  -0.29936  -0.27691  -0.27286
  Beta  occ. eigenvalues --   -0.26472  -0.25196  -0.24844  -0.22201  -0.21290
  Beta  occ. eigenvalues --   -0.17622  -0.16313  -0.15722  -0.12163
  Beta virt. eigenvalues --    0.06613   0.07235   0.07524   0.07767   0.08252
  Beta virt. eigenvalues --    0.08855   0.09251   0.09485   0.10424   0.10911
  Beta virt. eigenvalues --    0.11230   0.11916   0.12069   0.12967   0.13816

 Mulliken charges and spin densities:
               1          2
     1  C    0.604404  -1.033275
     2  C   -1.715176   1.283701
     3  C    0.622243  -1.049885
     4  S    1.540882  -1.525971
     5  C    1.025570  -0.378392
     6  C   -1.589946   1.257908
     7  C   -0.574021   0.281017
     8  C    2.271923  -2.579509
     9  C   -0.021844  -0.221732
    10  C   -0.508653   0.284490
    11  O   -0.069726  -0.005895
    12  C    0.106527  -0.371651
    13  H    0.032589   0.141290
    14  H   -0.040484   0.207726
    15  H    0.139787   0.004091
    16  H   -0.384832   0.598467
    17  H    0.146237   0.095646
    18  H   -0.106759   0.247119
    19  H   -0.085855   0.266327
    20  H   -0.793890   0.980106
    21  H   -0.322361   0.478556
    22  H   -1.021976   1.216704
    23  H   -0.232301   0.403955
    24  H    0.127461  -0.001050
    25  H   -0.039952   0.169811
    26  H   -0.109849   0.250446
 Sum of Mulliken charges =  -1.00000   1.00000

 Dipole moment (field-independent basis, Debye):
    X=              5.5520    Y=             -1.0887    Z=             -3.2855  Tot=              6.5425
 Quadrupole moment (field-independent basis, Debye-Ang):
   XX=           -161.1089   YY=           -119.0262   ZZ=           -117.2425
   XY=              0.6453   XZ=              2.5375   YZ=              5.7968

 Summary of Natural Population Analysis:

                                       Natural Population
                Natural  -----------------------------------------------
    Atom  No    Charge         Core      Valence    Rydberg      Total
 -----------------------------------------------------------------------
      C    1   -0.30628      0.99964     2.30004    0.00660     3.30628
      C    2    0.06195      0.99953     1.92237    0.01615     2.93805
      C    3   -0.26059      0.99955     2.24968    0.01136     3.26059
      S    4    0.09917      4.99955     2.88332    0.01797     7.90083
      C    5   -0.08833      0.99939     2.07484    0.01410     3.08833
      C    6   -0.10577      0.99949     2.09456    0.01173     3.10577
      C    7   -0.09670      0.99956     2.08632    0.01082     3.09670
      C    8   -0.09383      0.99956     2.08397    0.01030     3.09383
      C    9   -0.09596      0.99956     2.08541    0.01100     3.09596
      C   10   -0.10509      0.99948     2.09385    0.01177     3.10509
      O   11   -0.30478      0.99988     3.29442    0.01048     4.30478
      C   12   -0.09940      0.99960     2.09126    0.00855     3.09940
      H   13    0.10326      0.00000     0.39511    0.00163     0.39674
      H   14    0.10230      0.00000     0.39671    0.00099     0.39770
      H   15    0.10936      0.00000     0.38934    0.00129     0.39064
      H   16    0.09409      0.00000     0.40381    0.00209     0.40591
      H   17    0.10801      0.00000     0.39084    0.00115     0.39199
      H   18    0.11209      0.00000     0.38619    0.00172     0.38791
      H   19    0.10451      0.00000     0.39422    0.00127     0.39549
      H   20    0.10295      0.00000     0.39529    0.00175     0.39705
      H   21    0.10329      0.00000     0.39461    0.00211     0.39671
      H   22    0.10452      0.00000     0.39279    0.00269     0.39548
      H   23    0.10412      0.00000     0.39443    0.00146     0.39588
      H   24    0.07840      0.00000     0.42012    0.00148     0.42160
      H   25    0.08282      0.00000     0.41562    0.00156     0.41718
      H   26    0.08590      0.00000     0.41294    0.00116     0.41410
 =======================================================================
   * Total *    0.00000     15.99478    32.84206    0.16317    49.00000

 Normal termination of Gaussian 16 at Wed Dec  9 18:37:11 2020.
