 Gaussian 16, Revision A.03,

 -----------------------------------------------------------
 # opt freq B3LYP/6-31G(d) empiricaldispersion=gd3bj scf=xqc
 -----------------------------------------------------------

 -------------------------------
 CID_107226597_JID_4440_neutraal
 -------------------------------
 Symbolic Z-matrix:
 Charge =  0 Multiplicity = 1

 SCF Done:  E(RB3LYP) =  -685.082676871     A.U. after   14 cycles
 SCF Done:  E(RB3LYP) =  -685.092069177     A.U. after   12 cycles
 SCF Done:  E(RB3LYP) =  -685.091246861     A.U. after   13 cycles
 SCF Done:  E(RB3LYP) =  -685.094255885     A.U. after   11 cycles
 SCF Done:  E(RB3LYP) =  -685.094365081     A.U. after   12 cycles
 SCF Done:  E(RB3LYP) =  -685.095186292     A.U. after   11 cycles
 SCF Done:  E(RB3LYP) =  -685.095567402     A.U. after   11 cycles
 SCF Done:  E(RB3LYP) =  -685.095747358     A.U. after   12 cycles
 SCF Done:  E(RB3LYP) =  -685.096012829     A.U. after   11 cycles
 SCF Done:  E(RB3LYP) =  -685.096218822     A.U. after   11 cycles
 SCF Done:  E(RB3LYP) =  -685.096763652     A.U. after   10 cycles
 SCF Done:  E(RB3LYP) =  -685.096783866     A.U. after   11 cycles
 SCF Done:  E(RB3LYP) =  -685.096790696     A.U. after   10 cycles
 SCF Done:  E(RB3LYP) =  -685.096791584     A.U. after    8 cycles
 SCF Done:  E(RB3LYP) =  -685.096791712     A.U. after    8 cycles
 SCF Done:  E(RB3LYP) =  -685.096791792     A.U. after    7 cycles
 Optimization completed.
    -- Stationary point found.
 Normal termination of Gaussian 16 at Thu Dec 10 09:53:53 2020.

 --------------------------------------------------------------------
 #N Geom=AllCheck Guess=TCheck SCRF=Check GenChk RB3LYP/6-31G(d) Freq
 --------------------------------------------------------------------

 Structure from the checkpoint file:  "JID_4440.chk"
 -------------------------------
 CID_107226597_JID_4440_neutraal
 -------------------------------
 Charge =  0 Multiplicity = 1

 SCF Done:  E(RB3LYP) =  -685.096791792     A.U. after    1 cycles

  Exact polarizability: 143.887   4.612 123.491  -2.574   1.742  88.645
 Approx polarizability: 189.047  13.063 185.403  -8.396   4.107 131.961

                      1                      2                      3
                      A                      A                      A
 Frequencies --     34.2256                43.8402                72.4817
 Red. masses --      4.1151                 4.9849                 4.6258
 Frc consts  --      0.0028                 0.0056                 0.0143
 IR Inten    --      1.1213                 0.3808                 0.6284

                      4                      5                      6
                      A                      A                      A
 Frequencies --    105.2660               119.1829               157.8592
 Red. masses --      5.1658                 2.9903                 3.0621
 Frc consts  --      0.0337                 0.0250                 0.0450
 IR Inten    --      1.8060                 0.2168                 0.2145

                      7                      8                      9
                      A                      A                      A
 Frequencies --    181.5154               241.4935               251.1269
 Red. masses --      2.6098                 4.8103                 2.4245
 Frc consts  --      0.0507                 0.1653                 0.0901
 IR Inten    --      7.0236                 7.4585                10.1424

                     10                     11                     12
                      A                      A                      A
 Frequencies --    266.8759               293.0665               310.6883
 Red. masses --      2.7170                 4.4864                 1.3740
 Frc consts  --      0.1140                 0.2270                 0.0781
 IR Inten    --     44.3791                10.6512               132.0305

                     13                     14                     15
                      A                      A                      A
 Frequencies --    321.8498               334.1977               361.3605
 Red. masses --      1.4732                 2.3083                 1.8359
 Frc consts  --      0.0899                 0.1519                 0.1412
 IR Inten    --     78.7404                19.6293                20.6238

                     16                     17                     18
                      A                      A                      A
 Frequencies --    376.6426               417.1267               436.6324
 Red. masses --      2.7776                 1.3462                 2.2067
 Frc consts  --      0.2322                 0.1380                 0.2479
 IR Inten    --      1.6519                23.1393                12.5898

                     19                     20                     21
                      A                      A                      A
 Frequencies --    447.0416               485.0808               525.2410
 Red. masses --      1.6599                 2.7434                 1.9827
 Frc consts  --      0.1954                 0.3803                 0.3223
 IR Inten    --     14.3862                20.4323                 9.7392

                     22                     23                     24
                      A                      A                      A
 Frequencies --    544.5287               579.4743               644.3476
 Red. masses --      2.2615                 3.6520                 3.9404
 Frc consts  --      0.3951                 0.7225                 0.9639
 IR Inten    --     12.7041                 0.7815                28.7918

                     25                     26                     27
                      A                      A                      A
 Frequencies --    659.6015               718.5821               735.3861
 Red. masses --      5.5839                 1.9590                 3.0143
 Frc consts  --      1.4314                 0.5960                 0.9604
 IR Inten    --     11.0569                 3.5209                 8.2549

                     28                     29                     30
                      A                      A                      A
 Frequencies --    776.6980               817.9353               853.8146
 Red. masses --      1.5163                 1.6249                 2.9461
 Frc consts  --      0.5389                 0.6405                 1.2654
 IR Inten    --      4.3175               169.4412                 5.9712

                     31                     32                     33
                      A                      A                      A
 Frequencies --    856.6841               912.3236               943.6720
 Red. masses --      2.4869                 2.3619                 3.4073
 Frc consts  --      1.0754                 1.1583                 1.7877
 IR Inten    --      8.4141                10.9275                79.9339

                     34                     35                     36
                      A                      A                      A
 Frequencies --    953.4125               965.4585              1008.2760
 Red. masses --      2.1995                 2.5967                 2.1393
 Frc consts  --      1.1780                 1.4261                 1.2814
 IR Inten    --     39.5730                21.7362                22.4279

                     37                     38                     39
                      A                      A                      A
 Frequencies --   1045.1544              1052.0943              1071.9307
 Red. masses --      1.8385                 2.2153                 2.5972
 Frc consts  --      1.1832                 1.4448                 1.7583
 IR Inten    --     25.9640                66.9524                39.2541

                     40                     41                     42
                      A                      A                      A
 Frequencies --   1089.3022              1110.8089              1148.1440
 Red. masses --      2.4352                 3.6687                 1.9508
 Frc consts  --      1.7025                 2.6671                 1.5151
 IR Inten    --      9.4305                53.1425                17.3157

                     43                     44                     45
                      A                      A                      A
 Frequencies --   1174.3889              1192.9478              1207.6198
 Red. masses --      1.5063                 1.6346                 1.6467
 Frc consts  --      1.2240                 1.3706                 1.4149
 IR Inten    --      3.3640                27.8905                31.0994

                     46                     47                     48
                      A                      A                      A
 Frequencies --   1217.0512              1259.8415              1282.1782
 Red. masses --      2.3544                 1.4529                 1.4192
 Frc consts  --      2.0547                 1.3587                 1.3746
 IR Inten    --     34.1254                27.6160                11.4827

                     49                     50                     51
                      A                      A                      A
 Frequencies --   1299.8026              1333.8585              1339.8123
 Red. masses --      1.2401                 1.2798                 1.3959
 Frc consts  --      1.2344                 1.3415                 1.4764
 IR Inten    --      2.6253                 2.6839                55.5625

                     52                     53                     54
                      A                      A                      A
 Frequencies --   1375.5201              1383.7292              1392.2718
 Red. masses --      1.5157                 1.3907                 1.2854
 Frc consts  --      1.6897                 1.5689                 1.4681
 IR Inten    --     30.4181                23.5667                 8.4479

                     55                     56                     57
                      A                      A                      A
 Frequencies --   1408.6039              1412.7390              1418.6116
 Red. masses --      1.3598                 1.2420                 1.4272
 Frc consts  --      1.5896                 1.4604                 1.6922
 IR Inten    --     30.4389                28.6251                 3.8670

                     58                     59                     60
                      A                      A                      A
 Frequencies --   1421.1773              1430.3781              1433.5882
 Red. masses --      1.3112                 1.4900                 1.3063
 Frc consts  --      1.5603                 1.7961                 1.5817
 IR Inten    --     15.9931                13.3030                33.8413

                     61                     62                     63
                      A                      A                      A
 Frequencies --   1442.6749              1450.0248              1466.5961
 Red. masses --      1.4382                 1.2896                 1.9917
 Frc consts  --      1.7636                 1.5975                 2.5240
 IR Inten    --     25.6802                21.3457               110.1942

                     64                     65                     66
                      A                      A                      A
 Frequencies --   1486.1853              1493.2656              1502.7521
 Red. masses --      1.0931                 1.0825                 1.1236
 Frc consts  --      1.4226                 1.4222                 1.4950
 IR Inten    --      2.5466                 2.5205                 8.0312

                     67                     68                     69
                      A                      A                      A
 Frequencies --   1512.3935              1517.4701              1531.5501
 Red. masses --      1.0993                 1.0948                 1.1009
 Frc consts  --      1.4814                 1.4854                 1.5215
 IR Inten    --      7.2197                 9.4649                 0.8476

                     70                     71                     72
                      A                      A                      A
 Frequencies --   1538.2813              1658.1352              1729.5442
 Red. masses --      1.1688                 1.2526                 4.4326
 Frc consts  --      1.6296                 2.0291                 7.8122
 IR Inten    --     16.9882               141.3675               229.5767

                     73                     74                     75
                      A                      A                      A
 Frequencies --   2970.1178              2991.0464              2994.2731
 Red. masses --      1.0657                 1.0710                 1.0639
 Frc consts  --      5.5390                 5.6450                 5.6199
 IR Inten    --     20.4803               160.6952                43.6809

                     76                     77                     78
                      A                      A                      A
 Frequencies --   3001.0815              3031.7528              3033.5932
 Red. masses --      1.0637                 1.0967                 1.0693
 Frc consts  --      5.6447                 5.9391                 5.7981
 IR Inten    --     67.9782                13.4314                36.1772

                     79                     80                     81
                      A                      A                      A
 Frequencies --   3039.7824              3052.5815              3071.1910
 Red. masses --      1.0998                 1.0890                 1.0779
 Frc consts  --      5.9874                 5.9790                 5.9905
 IR Inten    --     76.9171                16.8643                77.7740

                     82                     83                     84
                      A                      A                      A
 Frequencies --   3089.2852              3096.6403              3113.9448
 Red. masses --      1.0797                 1.0751                 1.0912
 Frc consts  --      6.0712                 6.0738                 6.2344
 IR Inten    --     21.1547                54.8002                37.0002

                     85                     86                     87
                      A                      A                      A
 Frequencies --   3144.0370              3163.8994              3506.4330
 Red. masses --      1.1074                 1.0960                 1.0488
 Frc consts  --      6.4496                 6.4643                 7.5976
 IR Inten    --     14.6701                 5.7146                 5.2286

                     88                     89                     90
                      A                      A                      A
 Frequencies --   3613.9100              3738.8387              3772.3187
 Red. masses --      1.0950                 1.0661                 1.0677
 Frc consts  --      8.4260                 8.7808                 8.9523
 IR Inten    --     11.2540                10.1485                52.7262

 - Thermochemistry -
 -------------------
 Temperature   298.150 Kelvin.  Pressure   1.00000 Atm.
 Atom     1 has atomic number  6 and mass  12.00000

 Molecular mass:   202.14298 amu.
 Principal axes and moments of inertia in atomic units:
                           1         2         3
     Eigenvalues --  1497.562084073.755054483.27949
           X            0.99997  -0.00742  -0.00014
           Y            0.00742   0.99996   0.00424
           Z            0.00011  -0.00425   0.99999
 This molecule is an asymmetric top.
 Rotational symmetry number  1.
 Warning -- assumption of classical behavior for rotation
           may cause significant error
 Rotational temperatures (Kelvin)      0.05784     0.02126     0.01932
 Rotational constants (GHZ):           1.20512     0.44302     0.40255
 Zero-point vibrational energy     741733.4 (Joules/Mol)
                                  177.27854 (Kcal/Mol)
 Warning -- explicit consideration of  23 degrees of freedom as
           vibrations may cause significant error
 Vibrational temperatures:     49.24    63.08   104.29   151.45   171.48
          (Kelvin)            227.12   261.16   347.46   361.32   383.97
                              421.66   447.01   463.07   480.84   519.92
                              541.90   600.15   628.22   643.19   697.92
                              755.70   783.46   833.73   927.07   949.02
                             1033.88  1058.06  1117.50  1176.83  1228.45
                             1232.58  1312.63  1357.73  1371.75  1389.08
                             1450.68  1503.74  1513.73  1542.27  1567.26
                             1598.21  1651.92  1689.68  1716.39  1737.50
                             1751.07  1812.63  1844.77  1870.13  1919.12
                             1927.69  1979.07  1990.88  2003.17  2026.67
                             2032.62  2041.07  2044.76  2058.00  2062.61
                             2075.69  2086.26  2110.10  2138.29  2148.48
                             2162.13  2176.00  2183.30  2203.56  2213.24
                             2385.69  2488.43  4273.34  4303.45  4308.09
                             4317.89  4362.02  4364.66  4373.57  4391.98
                             4418.76  4444.79  4455.37  4480.27  4523.57
                             4552.15  5044.97  5199.61  5379.35  5427.53

 Zero-point correction=                           0.282511 (Hartree/Particle)
 Thermal correction to Energy=                    0.297250
 Thermal correction to Enthalpy=                  0.298194
 Thermal correction to Gibbs Free Energy=         0.240839
 Sum of electronic and zero-point Energies=           -684.814280
 Sum of electronic and thermal Energies=              -684.799542
 Sum of electronic and thermal Enthalpies=            -684.798598
 Sum of electronic and thermal Free Energies=         -684.855952

                     E (Thermal)             CV                S
                      KCal/Mol        Cal/Mol-Kelvin    Cal/Mol-Kelvin
 Total                  186.527             56.428            120.714
 Electronic               0.000              0.000              0.000
 Translational            0.889              2.981             41.816
 Rotational               0.889              2.981             31.681
 Vibrational            184.750             50.467             47.216
 Vibration     1          0.594              1.983              5.568
 Vibration     2          0.595              1.980              5.078
 Vibration     3          0.599              1.967              4.085
 Vibration     4          0.605              1.945              3.354
 Vibration     5          0.609              1.933              3.114
 Vibration     6          0.621              1.894              2.575
 Vibration     7          0.630              1.865              2.313
 Vibration     8          0.658              1.777              1.792
 Vibration     9          0.663              1.761              1.723
 Vibration    10          0.672              1.734              1.616
 Vibration    11          0.688              1.687              1.456
 Vibration    12          0.700              1.653              1.359
 Vibration    13          0.707              1.632              1.301
 Vibration    14          0.716              1.607              1.240
 Vibration    15          0.736              1.552              1.116
 Vibration    16          0.747              1.520              1.053
 Vibration    17          0.780              1.433              0.902
 Vibration    18          0.797              1.390              0.837
 Vibration    19          0.806              1.367              0.805
 Vibration    20          0.841              1.283              0.696
 Vibration    21          0.880              1.194              0.598
 Vibration    22          0.900              1.152              0.556
 Vibration    23          0.936              1.076              0.486

                           ! Non-Optimized Parameters !
 Normal termination of Gaussian 16 at Thu Dec 10 10:03:54 2020.

 ----------------------------------------------------------------------
 # B3LYP/6-311++G(d,p) empiricaldispersion=gd3bj scf=xqc pop=npa geom=c
 heck
 ----------------------------------------------------------------------

 ---------------------------------------
 CID_107226597_JID_4440_Energie_neutraal
 ---------------------------------------
 Structure from the checkpoint file:  "JID_4440.chk"
 Charge =  0 Multiplicity = 1

 SCF Done:  E(RB3LYP) =  -685.316282111     A.U. after   14 cycles
 Normal termination of Gaussian 16 at Thu Dec 10 10:07:38 2020.

 ----------------------------------------------------------------------
 # B3LYP/6-311++G(d,p) empiricaldispersion=gd3bj scf=xqc pop=npa geom=c
 heck
 ----------------------------------------------------------------------

 -------------------------------------
 CID_107226597_JID_4440_Energie_kation
 -------------------------------------
 Structure from the checkpoint file:  "JID_4440.chk"
 Charge =  1 Multiplicity = 2

 SCF Done:  E(UB3LYP) =  -685.058133323     A.U. after   22 cycles
 Normal termination of Gaussian 16 at Thu Dec 10 10:15:32 2020.
 Gaussian 16:  ES64L-G16RevA.03 25-Dec-2016

 ----------------------------------------------------------------------
 # B3LYP/6-311++G(d,p) empiricaldispersion=gd3bj scf=xqc pop=npa geom=c
 heck
 ----------------------------------------------------------------------

 ------------------------------------
 CID_107226597_JID_4440_Energie_anion
 ------------------------------------
 Structure from the checkpoint file:  "JID_4440.chk"
 Charge = -1 Multiplicity = 2

                         Standard orientation:
 ---------------------------------------------------------------------
 Center     Atomic      Atomic             Coordinates (Angstroms)
 Number     Number       Type             X           Y           Z
 ---------------------------------------------------------------------
      1          6           0        0.666253    1.874438   -0.108026
      2          6           0        0.995318    1.160325    1.219443
      3          7           0        1.417145   -0.221231    1.169822
      4          6           0        0.379397   -1.227272    1.088746
      5          6           0       -0.434899   -1.267144   -0.216297
      6          7           0       -1.053124    0.020837   -0.525621
      7          6           0       -0.173879    1.040580   -1.101863
      8          6           0       -2.303538    0.353836   -0.051557
      9          7           0       -3.349331   -0.395048    0.124666
     10          8           0       -3.214321   -1.681796   -0.493098
     11          7           0       -2.503119    1.718919    0.220341
     12          6           0        2.779008   -0.574472    0.859125
     13          6           0        3.133710   -0.922388   -0.595999
     14          8           0        2.963549    0.145297   -1.520268
     15          1           0        1.594577    2.152307   -0.618668
     16          1           0        0.151399    2.813945    0.137124
     17          1           0        1.764592    1.744794    1.745067
     18          1           0        0.101946    1.187140    1.861266
     19          1           0       -0.329946   -1.063358    1.915563
     20          1           0        0.837440   -2.212537    1.252535
     21          1           0       -1.213677   -2.025653   -0.139901
     22          1           0        0.213438   -1.529699   -1.059751
     23          1           0       -0.779421    1.708055   -1.719289
     24          1           0        0.516980    0.506481   -1.757740
     25          1           0       -4.051772   -2.092130   -0.232715
     26          1           0       -1.862828    2.091907    0.915751
     27          1           0       -3.468459    1.874640    0.493465
     28          1           0        3.423567    0.255269    1.186844
     29          1           0        3.071783   -1.448677    1.465982
     30          1           0        4.169353   -1.302139   -0.619420
     31          1           0        2.486150   -1.726437   -0.957684
     32          1           0        3.551832    0.866322   -1.247392
 ---------------------------------------------------------------------

 SCF Done:  E(UB3LYP) =  -685.303951296     A.U. after   32 cycles

 The electronic state is 2-A.
 Alpha  occ. eigenvalues --  -19.05675 -19.01552 -14.23271 -14.22877 -14.22176
 Alpha  occ. eigenvalues --  -14.19293 -10.16473 -10.10756 -10.09503 -10.09376
 Alpha  occ. eigenvalues --  -10.09234 -10.08936 -10.08787 -10.05434  -0.96812
 Alpha  occ. eigenvalues --   -0.91716  -0.87447  -0.82228  -0.79495  -0.71751
 Alpha  occ. eigenvalues --   -0.67671  -0.65076  -0.60844  -0.58124  -0.54354
 Alpha  occ. eigenvalues --   -0.52084  -0.46564  -0.46146  -0.43402  -0.40639
 Alpha  occ. eigenvalues --   -0.40483  -0.39249  -0.38243  -0.36511  -0.35840
 Alpha  occ. eigenvalues --   -0.35047  -0.34795  -0.33687  -0.32420  -0.31369
 Alpha  occ. eigenvalues --   -0.30768  -0.29279  -0.28405  -0.26837  -0.26210
 Alpha  occ. eigenvalues --   -0.24752  -0.24562  -0.23105  -0.23088  -0.22269
 Alpha  occ. eigenvalues --   -0.17994  -0.17906  -0.15681  -0.10961  -0.09282
 Alpha  occ. eigenvalues --    0.04625
 Alpha virt. eigenvalues --    0.06513   0.07054   0.07943   0.08649   0.09310
 Alpha virt. eigenvalues --    0.10244   0.10298   0.10929   0.11025   0.12208
 Alpha virt. eigenvalues --    0.12427   0.13411   0.13753   0.13960   0.14439

  Beta  occ. eigenvalues --  -19.05672 -19.01501 -14.23268 -14.22863 -14.22142
  Beta  occ. eigenvalues --  -14.19277 -10.16467 -10.10731 -10.09491 -10.09371
  Beta  occ. eigenvalues --  -10.09231 -10.08896 -10.08756 -10.05408  -0.96803
  Beta  occ. eigenvalues --   -0.91603  -0.87428  -0.82192  -0.79464  -0.71718
  Beta  occ. eigenvalues --   -0.67635  -0.65017  -0.60800  -0.58083  -0.54299
  Beta  occ. eigenvalues --   -0.52011  -0.46514  -0.46065  -0.43382  -0.40612
  Beta  occ. eigenvalues --   -0.40431  -0.39185  -0.38200  -0.36468  -0.35802
  Beta  occ. eigenvalues --   -0.34997  -0.34767  -0.33643  -0.32356  -0.31334
  Beta  occ. eigenvalues --   -0.30732  -0.29247  -0.28372  -0.26804  -0.26167
  Beta  occ. eigenvalues --   -0.24712  -0.24520  -0.23072  -0.23043  -0.22229
  Beta  occ. eigenvalues --   -0.17936  -0.17874  -0.15648  -0.10920  -0.09170
  Beta virt. eigenvalues --    0.06831   0.07421   0.07685   0.08680   0.09212
  Beta virt. eigenvalues --    0.09624   0.10607   0.10840   0.11260   0.11474
  Beta virt. eigenvalues --    0.12477   0.12784   0.13658   0.13994   0.14212

 Mulliken charges and spin densities:
               1          2
     1  C    0.091324  -0.297676
     2  C    0.587257  -1.023920
     3  N   -0.167429   0.259428
     4  C    0.256267  -0.632400
     5  C   -0.343602   0.111247
     6  N   -0.056686   0.013350
     7  C   -0.424815   0.131304
     8  C    0.325323  -0.467218
     9  N   -0.310622   0.018495
    10  O   -0.175546  -0.006512
    11  N   -0.423566   0.098011
    12  C    0.280780  -0.581193
    13  C    0.495254  -0.844691
    14  O   -0.240057   0.008015
    15  H    0.146321  -0.031024
    16  H   -0.192066   0.352482
    17  H   -0.857740   1.044269
    18  H    0.078199   0.056522
    19  H   -0.053729   0.229223
    20  H    0.101448   0.029973
    21  H    0.263023  -0.061727
    22  H    0.070991   0.089060
    23  H    0.127471   0.081948
    24  H    0.217862   0.004584
    25  H    0.251759   0.016433
    26  H    0.040386   0.201016
    27  H    0.034251   0.245060
    28  H   -0.361514   0.530729
    29  H   -0.209619   0.336199
    30  H   -0.618237   0.771233
    31  H    0.201327  -0.070420
    32  H   -0.134015   0.388200
 Sum of Mulliken charges =  -1.00000   1.00000

 Dipole moment (field-independent basis, Debye):
    X=             -7.0670    Y=             -4.5739    Z=             -1.5505  Tot=              8.5596
 Quadrupole moment (field-independent basis, Debye-Ang):
   XX=           -166.5833   YY=           -119.9731   ZZ=           -120.6067
   XY=             -0.9478   XZ=             -2.0429   YZ=             -4.2878

 Summary of Natural Population Analysis:

                                       Natural Population
                Natural  -----------------------------------------------
    Atom  No    Charge         Core      Valence    Rydberg      Total
 -----------------------------------------------------------------------
      C    1   -0.20678      0.99962     2.19771    0.00945     3.20678
      C    2   -0.07850      0.99960     2.06553    0.01338     3.07850
      N    3   -0.28789      0.99971     2.77121    0.01697     3.78789
      C    4   -0.08324      0.99960     2.07298    0.01065     3.08324
      C    5   -0.09147      0.99959     2.08316    0.00872     3.09147
      N    6   -0.26090      0.99964     2.75091    0.01035     3.76090
      C    7   -0.08940      0.99961     2.07915    0.01064     3.08940
      C    8    0.28807      0.99961     1.69269    0.01962     2.71193
      N    9   -0.16758      0.99961     2.65469    0.01328     3.66758
      O   10   -0.30252      0.99990     3.29571    0.00690     4.30252
      N   11   -0.40514      0.99973     2.89605    0.00937     3.90514
      C   12   -0.09111      0.99960     2.07798    0.01353     3.09111
      C   13   -0.01591      0.99959     2.00294    0.01339     3.01591
      O   14   -0.37360      0.99990     3.36598    0.00773     4.37360
      H   15    0.10326      0.00000     0.39512    0.00162     0.39674
      H   16    0.09313      0.00000     0.40512    0.00174     0.40687
      H   17    0.10009      0.00000     0.39787    0.00204     0.39991
      H   18    0.08603      0.00000     0.41190    0.00207     0.41397
      H   19    0.09010      0.00000     0.40859    0.00132     0.40990
      H   20    0.09390      0.00000     0.40506    0.00105     0.40610
      H   21    0.11411      0.00000     0.38467    0.00122     0.38589
      H   22    0.09110      0.00000     0.40770    0.00119     0.40890
      H   23    0.10254      0.00000     0.39641    0.00105     0.39746
      H   24    0.10724      0.00000     0.39132    0.00144     0.39276
      H   25    0.22988      0.00000     0.26729    0.00283     0.27012
      H   26    0.18677      0.00000     0.31022    0.00301     0.31323
      H   27    0.18905      0.00000     0.30824    0.00271     0.31095
      H   28    0.09994      0.00000     0.39654    0.00352     0.40006
      H   29    0.08968      0.00000     0.40885    0.00147     0.41032
      H   30    0.07701      0.00000     0.42099    0.00201     0.42299
      H   31    0.07910      0.00000     0.41939    0.00151     0.42090
      H   32    0.23305      0.00000     0.25961    0.00735     0.26695
 =======================================================================
   * Total *    0.00000     13.99531    40.80157    0.20312    55.00000

 Normal termination of Gaussian 16 at Thu Dec 10 10:29:09 2020.
