 Gaussian 16, Revision A.03,

 -----------------------------------------------------------
 # opt freq B3LYP/6-31G(d) empiricaldispersion=gd3bj scf=xqc
 -----------------------------------------------------------

 ------------------------------
 CID_81238579_JID_8400_neutraal
 ------------------------------
 Symbolic Z-matrix:
 Charge =  0 Multiplicity = 1

 SCF Done:  E(RB3LYP) =  -1127.27653304     A.U. after   15 cycles
 SCF Done:  E(RB3LYP) =  -1127.28199331     A.U. after   13 cycles
 SCF Done:  E(RB3LYP) =  -1127.28264439     A.U. after   12 cycles
 SCF Done:  E(RB3LYP) =  -1127.28177193     A.U. after   14 cycles
 SCF Done:  E(RB3LYP) =  -1127.28468252     A.U. after   12 cycles
 SCF Done:  E(RB3LYP) =  -1127.28627461     A.U. after   12 cycles
 SCF Done:  E(RB3LYP) =  -1127.28711453     A.U. after   12 cycles
 SCF Done:  E(RB3LYP) =  -1127.28738521     A.U. after   11 cycles
 SCF Done:  E(RB3LYP) =  -1127.28746912     A.U. after   12 cycles
 SCF Done:  E(RB3LYP) =  -1127.28759503     A.U. after   11 cycles
 SCF Done:  E(RB3LYP) =  -1127.28801169     A.U. after    9 cycles
 SCF Done:  E(RB3LYP) =  -1127.28801235     A.U. after    8 cycles
 SCF Done:  E(RB3LYP) =  -1127.28801241     A.U. after    7 cycles
 SCF Done:  E(RB3LYP) =  -1127.28801248     A.U. after    7 cycles
 Optimization completed.
    -- Stationary point found.
 Normal termination of Gaussian 16 at Fri Dec 11 21:00:55 2020.

 --------------------------------------------------------------------
 #N Geom=AllCheck Guess=TCheck SCRF=Check GenChk RB3LYP/6-31G(d) Freq
 --------------------------------------------------------------------

 Structure from the checkpoint file:  "JID_8400.chk"
 ------------------------------
 CID_81238579_JID_8400_neutraal
 ------------------------------
 Charge =  0 Multiplicity = 1

 SCF Done:  E(RB3LYP) =  -1127.28801248     A.U. after    1 cycles

  Exact polarizability: 218.147  -2.436 172.006  -2.483  -9.537 137.456
 Approx polarizability: 319.367  -0.394 272.345 -16.280 -22.453 230.335

                      1                      2                      3
                      A                      A                      A
 Frequencies --     27.6003                41.6336                57.0452
 Red. masses --      5.8373                 4.5460                 2.1782
 Frc consts  --      0.0026                 0.0046                 0.0042
 IR Inten    --      0.5636                 0.3156                 0.1778

                      4                      5                      6
                      A                      A                      A
 Frequencies --     64.5644                93.5994               115.6311
 Red. masses --      1.4487                 3.7608                 3.2174
 Frc consts  --      0.0036                 0.0194                 0.0253
 IR Inten    --      0.4769                 0.1954                 1.1105

                      7                      8                      9
                      A                      A                      A
 Frequencies --    123.7414               149.9774               163.5818
 Red. masses --      4.0546                 3.3044                 2.8444
 Frc consts  --      0.0366                 0.0438                 0.0448
 IR Inten    --      3.3424                 4.3265                 1.5932

                     10                     11                     12
                      A                      A                      A
 Frequencies --    171.4275               212.5369               223.5111
 Red. masses --      2.8951                 2.9117                 1.9602
 Frc consts  --      0.0501                 0.0775                 0.0577
 IR Inten    --      0.7987                 1.4608                 2.5367

                     13                     14                     15
                      A                      A                      A
 Frequencies --    232.5410               246.0029               276.1401
 Red. masses --      1.8400                 2.2081                 2.5839
 Frc consts  --      0.0586                 0.0787                 0.1161
 IR Inten    --      1.0435                 1.6223                 2.0735

                     16                     17                     18
                      A                      A                      A
 Frequencies --    322.6541               332.3486               336.3167
 Red. masses --      2.2105                 2.8464                 2.5397
 Frc consts  --      0.1356                 0.1852                 0.1693
 IR Inten    --      4.7049                12.6501                 5.2947

                     19                     20                     21
                      A                      A                      A
 Frequencies --    357.0734               382.3910               421.5785
 Red. masses --      1.4308                 4.7233                 3.0859
 Frc consts  --      0.1075                 0.4069                 0.3231
 IR Inten    --    119.4344                 6.5095                11.8674

                     22                     23                     24
                      A                      A                      A
 Frequencies --    449.9727               462.1867               505.7218
 Red. masses --      3.8210                 3.1482                 4.8998
 Frc consts  --      0.4558                 0.3962                 0.7383
 IR Inten    --      4.0376                 2.8382                 7.3525

                     25                     26                     27
                      A                      A                      A
 Frequencies --    527.5921               560.3547               574.4247
 Red. masses --      4.3739                 4.3603                 3.4422
 Frc consts  --      0.7173                 0.8067                 0.6692
 IR Inten    --      3.4512                 2.8146                 0.8220

                     28                     29                     30
                      A                      A                      A
 Frequencies --    611.8816               629.6952               642.5441
 Red. masses --      4.1453                 5.0623                 4.6552
 Frc consts  --      0.9144                 1.1827                 1.1324
 IR Inten    --      4.8502                 1.4221                 2.6926

                     31                     32                     33
                      A                      A                      A
 Frequencies --    704.1775               732.4874               741.8089
 Red. masses --      1.2127                 3.9156                 4.4480
 Frc consts  --      0.3543                 1.2378                 1.4421
 IR Inten    --     51.8034                 2.2093                 2.4674

                     34                     35                     36
                      A                      A                      A
 Frequencies --    747.9145               751.8976               812.4576
 Red. masses --      5.0811                 5.7210                 4.5929
 Frc consts  --      1.6746                 1.9056                 1.7862
 IR Inten    --      1.9685                 1.1260                17.8727

                     37                     38                     39
                      A                      A                      A
 Frequencies --    847.8953               860.7483               886.5923
 Red. masses --      1.2630                 4.1511                 2.9802
 Frc consts  --      0.5350                 1.8120                 1.3802
 IR Inten    --     10.8858                15.8501                 6.4136

                     40                     41                     42
                      A                      A                      A
 Frequencies --    903.7894               914.1463               953.4477
 Red. masses --      1.3566                 1.3118                 1.5203
 Frc consts  --      0.6529                 0.6459                 0.8143
 IR Inten    --      8.8744                 0.7042                15.3980

                     43                     44                     45
                      A                      A                      A
 Frequencies --    960.1336               992.8783              1020.6792
 Red. masses --      1.7043                 2.2764                 2.5709
 Frc consts  --      0.9257                 1.3222                 1.5780
 IR Inten    --     17.7761                55.5761                49.0999

                     46                     47                     48
                      A                      A                      A
 Frequencies --   1028.2988              1040.1140              1066.6529
 Red. masses --      3.0218                 1.6464                 1.9756
 Frc consts  --      1.8826                 1.0494                 1.3243
 IR Inten    --     30.0398                 6.9893                26.4232

                     49                     50                     51
                      A                      A                      A
 Frequencies --   1074.6592              1095.8810              1101.6476
 Red. masses --      1.5770                 1.7415                 2.3821
 Frc consts  --      1.0730                 1.2322                 1.7033
 IR Inten    --      5.6478                27.8252                 6.6426

                     52                     53                     54
                      A                      A                      A
 Frequencies --   1121.1201              1152.2385              1161.9371
 Red. masses --      1.2025                 2.1684                 1.4342
 Frc consts  --      0.8905                 1.6962                 1.1409
 IR Inten    --     22.3052                24.7307                33.1059

                     55                     56                     57
                      A                      A                      A
 Frequencies --   1179.5082              1196.6837              1200.5233
 Red. masses --      2.2752                 1.8194                 1.6808
 Frc consts  --      1.8650                 1.5351                 1.4273
 IR Inten    --     20.8997                48.6917                 5.2068

                     58                     59                     60
                      A                      A                      A
 Frequencies --   1246.4475              1264.9710              1267.9769
 Red. masses --      2.9737                 2.0581                 1.4230
 Frc consts  --      2.7221                 1.9404                 1.3479
 IR Inten    --     10.4421                11.3123                30.9005

                     61                     62                     63
                      A                      A                      A
 Frequencies --   1319.8461              1350.1113              1354.1889
 Red. masses --      5.4543                 1.4495                 1.8233
 Frc consts  --      5.5981                 1.5567                 1.9700
 IR Inten    --     14.4716                41.5088                44.1041

                     64                     65                     66
                      A                      A                      A
 Frequencies --   1358.7403              1375.7398              1392.9696
 Red. masses --      1.5002                 1.3210                 2.2228
 Frc consts  --      1.6318                 1.4731                 2.5412
 IR Inten    --     26.0483                20.7020                 1.2941

                     67                     68                     69
                      A                      A                      A
 Frequencies --   1406.0615              1435.5921              1438.2537
 Red. masses --      2.1031                 1.2648                 1.2751
 Frc consts  --      2.4497                 1.5358                 1.5540
 IR Inten    --     27.4914                40.4479                32.3091

                     70                     71                     72
                      A                      A                      A
 Frequencies --   1442.1671              1475.4878              1504.4472
 Red. masses --      1.2452                 1.7937                 2.9908
 Frc consts  --      1.5259                 2.3008                 3.9884
 IR Inten    --      4.7609                52.5480                14.6305

                     73                     74                     75
                      A                      A                      A
 Frequencies --   1505.9558              1509.8613              1519.3815
 Red. masses --      1.0493                 1.4694                 1.1439
 Frc consts  --      1.4020                 1.9736                 1.5558
 IR Inten    --      4.6159                17.7640                 7.2873

                     76                     77                     78
                      A                      A                      A
 Frequencies --   1523.1498              1530.8184              1532.9871
 Red. masses --      1.1963                 1.1636                 1.1710
 Frc consts  --      1.6352                 1.6066                 1.6213
 IR Inten    --      8.7477                 5.7093                15.2664

                     79                     80                     81
                      A                      A                      A
 Frequencies --   1547.6207              1550.0690              1561.4561
 Red. masses --      1.0661                 1.4368                 1.3304
 Frc consts  --      1.5045                 2.0341                 1.9111
 IR Inten    --      2.1880                43.1157                27.6511

                     82                     83                     84
                      A                      A                      A
 Frequencies --   1589.3357              1600.2902              1651.5173
 Red. masses --      6.3993                 5.2494                 5.4274
 Frc consts  --      9.5238                 7.9207                 8.7218
 IR Inten    --    107.8921                 1.2495               260.4851

                     85                     86                     87
                      A                      A                      A
 Frequencies --   3016.7552              3025.2023              3027.6052
 Red. masses --      1.0763                 1.0556                 1.0619
 Frc consts  --      5.7712                 5.6917                 5.7350
 IR Inten    --      6.1641                92.6114                55.3384

                     88                     89                     90
                      A                      A                      A
 Frequencies --   3055.4818              3068.9487              3072.7805
 Red. masses --      1.0361                 1.1045                 1.0378
 Frc consts  --      5.6990                 6.1292                 5.7731
 IR Inten    --     18.7821                29.1937                16.3850

                     91                     92                     93
                      A                      A                      A
 Frequencies --   3114.4573              3126.4253              3130.7344
 Red. masses --      1.1005                 1.0925                 1.0896
 Frc consts  --      6.2891                 6.2915                 6.2921
 IR Inten    --     12.5951                17.0627                53.2987

                     94                     95                     96
                      A                      A                      A
 Frequencies --   3137.6080              3138.2376              3169.7662
 Red. masses --      1.1027                 1.1032                 1.1001
 Frc consts  --      6.3960                 6.4012                 6.5124
 IR Inten    --     19.5145                21.6150                13.7122

                     97                     98                     99
                      A                      A                      A
 Frequencies --   3187.2971              3221.1425              3238.3957
 Red. masses --      1.0977                 1.0887                 1.0947
 Frc consts  --      6.5700                 6.6558                 6.7640
 IR Inten    --      7.9377                 9.3122                 4.8296

                    100                    101                    102
                      A                      A                      A
 Frequencies --   3248.4352              3271.8793              3734.6912
 Red. masses --      1.0901                 1.0973                 1.0662
 Frc consts  --      6.7776                 6.9210                 8.7623
 IR Inten    --      1.8292                 1.1945                14.0141

 - Thermochemistry -
 -------------------
 Temperature   298.150 Kelvin.  Pressure   1.00000 Atm.
 Atom     1 has atomic number  6 and mass  12.00000

 Molecular mass:   262.11399 amu.
 Principal axes and moments of inertia in atomic units:
                           1         2         3
     Eigenvalues --  3074.442907062.173608519.81443
           X            0.99996  -0.00815   0.00380
           Y            0.00818   0.99995  -0.00620
           Z           -0.00375   0.00623   0.99997
 This molecule is an asymmetric top.
 Rotational symmetry number  1.
 Warning -- assumption of classical behavior for rotation
           may cause significant error
 Rotational temperatures (Kelvin)      0.02817     0.01226     0.01017
 Rotational constants (GHZ):           0.58701     0.25555     0.21183
 Zero-point vibrational energy     788386.2 (Joules/Mol)
                                  188.42882 (Kcal/Mol)
 Warning -- explicit consideration of  28 degrees of freedom as
           vibrations may cause significant error
 Vibrational temperatures:     39.71    59.90    82.08    92.89   134.67
          (Kelvin)            166.37   178.04   215.78   235.36   246.65
                              305.79   321.58   334.57   353.94   397.30
                              464.23   478.18   483.88   513.75   550.18
                              606.56   647.41   664.98   727.62   759.09
                              806.23   826.47   880.36   905.99   924.48
                             1013.15  1053.89  1067.30  1076.08  1081.81
                             1168.95  1219.93  1238.42  1275.61  1300.35
                             1315.25  1371.80  1381.42  1428.53  1468.53
                             1479.49  1496.49  1534.68  1546.19  1576.73
                             1585.03  1613.04  1657.81  1671.77  1697.05
                             1721.76  1727.29  1793.36  1820.01  1824.34
                             1898.96  1942.51  1948.38  1954.92  1979.38
                             2004.17  2023.01  2065.50  2069.33  2074.96
                             2122.90  2164.56  2166.73  2172.35  2186.05
                             2191.47  2202.51  2205.63  2226.68  2230.20
                             2246.59  2286.70  2302.46  2376.17  4340.44
                             4352.59  4356.05  4396.16  4415.53  4421.05
                             4481.01  4498.23  4504.43  4514.32  4515.22
                             4560.59  4585.81  4634.51  4659.33  4673.77
                             4707.50  5373.39

 Zero-point correction=                           0.300280 (Hartree/Particle)
 Thermal correction to Energy=                    0.318344
 Thermal correction to Enthalpy=                  0.319288
 Thermal correction to Gibbs Free Energy=         0.253520
 Sum of electronic and zero-point Energies=          -1126.987732
 Sum of electronic and thermal Energies=             -1126.969669
 Sum of electronic and thermal Enthalpies=           -1126.968724
 Sum of electronic and thermal Free Energies=        -1127.034493

                     E (Thermal)             CV                S
                      KCal/Mol        Cal/Mol-Kelvin    Cal/Mol-Kelvin
 Total                  199.764             68.262            138.421
 Electronic               0.000              0.000              0.000
 Translational            0.889              2.981             42.590
 Rotational               0.889              2.981             33.580
 Vibrational            197.986             62.300             62.250
 Vibration     1          0.593              1.984              5.995
 Vibration     2          0.594              1.981              5.180
 Vibration     3          0.596              1.975              4.557
 Vibration     4          0.597              1.971              4.313
 Vibration     5          0.603              1.954              3.583
 Vibration     6          0.608              1.936              3.172
 Vibration     7          0.610              1.929              3.041
 Vibration     8          0.618              1.903              2.673
 Vibration     9          0.623              1.887              2.508
 Vibration    10          0.626              1.878              2.420
 Vibration    11          0.644              1.822              2.022
 Vibration    12          0.649              1.805              1.930
 Vibration    13          0.653              1.791              1.859
 Vibration    14          0.660              1.769              1.759
 Vibration    15          0.678              1.718              1.557
 Vibration    16          0.708              1.630              1.297
 Vibration    17          0.714              1.611              1.249
 Vibration    18          0.717              1.603              1.230
 Vibration    19          0.732              1.561              1.135
 Vibration    20          0.752              1.508              1.030
 Vibration    21          0.784              1.423              0.887
 Vibration    22          0.809              1.361              0.796
 Vibration    23          0.820              1.334              0.760
 Vibration    24          0.861              1.237              0.644
 Vibration    25          0.883              1.189              0.593
 Vibration    26          0.916              1.117              0.523
 Vibration    27          0.931              1.087              0.496
 Vibration    28          0.971              1.007              0.430

 Optimization completed.
    -- Stationary point found.
 Normal termination of Gaussian 16 at Fri Dec 11 21:18:38 2020.

 ----------------------------------------------------------------------
 # B3LYP/6-311++G(d,p) empiricaldispersion=gd3bj scf=xqc pop=npa geom=c
 heck
 ----------------------------------------------------------------------

 --------------------------------------
 CID_81238579_JID_8400_Energie_neutraal
 --------------------------------------
 Structure from the checkpoint file:  "JID_8400.chk"
 Charge =  0 Multiplicity = 1

 SCF Done:  E(RB3LYP) =  -1127.51717323     A.U. after   16 cycles
 Normal termination of Gaussian 16 at Fri Dec 11 21:27:14 2020.

 ----------------------------------------------------------------------
 # B3LYP/6-311++G(d,p) empiricaldispersion=gd3bj scf=xqc pop=npa geom=c
 heck
 ----------------------------------------------------------------------

 ------------------------------------
 CID_81238579_JID_8400_Energie_kation
 ------------------------------------
 Structure from the checkpoint file:  "JID_8400.chk"
 Charge =  1 Multiplicity = 2

 SCF Done:  E(UB3LYP) =  -1127.23687771     A.U. after   33 cycles
 SCF Done:  E(UB3LYP) =  -1127.23687771     a.u. after    1 cycles
 Normal termination of Gaussian 16 at Fri Dec 11 21:52:13 2020.
 Gaussian 16:  ES64L-G16RevA.03 25-Dec-2016

 ----------------------------------------------------------------------
 # B3LYP/6-311++G(d,p) empiricaldispersion=gd3bj scf=xqc pop=npa geom=c
 heck
 ----------------------------------------------------------------------

 -----------------------------------
 CID_81238579_JID_8400_Energie_anion
 -----------------------------------
 Structure from the checkpoint file:  "JID_8400.chk"
 Charge = -1 Multiplicity = 2

                         Standard orientation:
 ---------------------------------------------------------------------
 Center     Atomic      Atomic             Coordinates (Angstroms)
 Number     Number       Type             X           Y           Z
 ---------------------------------------------------------------------
      1          6           0        1.172483    3.702296   -0.058041
      2          6           0        1.641157    2.271172    0.002180
      3          6           0        0.730358    1.223679    0.118967
      4          6           0        1.164006   -0.116651    0.161191
      5          6           0        2.568207   -0.323688    0.101209
      6          6           0        3.379779    0.807959   -0.017707
      7          7           0        2.969733    2.075622   -0.074151
      8          6           0        3.249948   -1.662625    0.208464
      9          8           0        3.416076   -2.334216   -1.050589
     10          7           0        0.261494   -1.167392    0.308765
     11          6           0        0.361444   -2.390987   -0.487140
     12          6           0       -1.037064   -0.997782    0.963658
     13          6           0       -0.935598   -0.288037    2.323363
     14          6           0       -2.096725   -0.410117    0.046153
     15          6           0       -1.996555   -0.070867   -1.277265
     16          6           0       -3.223851    0.398950   -1.840853
     17          6           0       -4.251189    0.406277   -0.941563
     18         16           0       -3.732194   -0.158024    0.618373
     19          1           0        1.542490    4.184652   -0.969304
     20          1           0        0.081215    3.774442   -0.038404
     21          1           0        1.576278    4.268863    0.788857
     22          1           0       -0.326979    1.448537    0.134545
     23          1           0        4.461800    0.663641   -0.042172
     24          1           0        4.230979   -1.522938    0.684387
     25          1           0        2.675507   -2.349571    0.834211
     26          1           0        3.793589   -1.682652   -1.662813
     27          1           0        0.391885   -3.278540    0.158659
     28          1           0       -0.511536   -2.481358   -1.147099
     29          1           0        1.261893   -2.381059   -1.098747
     30          1           0       -1.353818   -2.025023    1.191587
     31          1           0       -0.677744    0.767547    2.228176
     32          1           0       -1.893209   -0.356555    2.848772
     33          1           0       -0.171328   -0.779600    2.932487
     34          1           0       -1.066527   -0.141000   -1.828520
     35          1           0       -3.328994    0.719923   -2.871323
     36          1           0       -5.276000    0.717717   -1.090542
 ---------------------------------------------------------------------

 SCF Done:  E(UB3LYP) =  -1127.50759932     A.U. after   33 cycles
 SCF Done:  E(UB3LYP) =  -1127.50759932     a.u. after    1 cycles

 The electronic state is 2-A.
 Alpha  occ. eigenvalues --  -88.76213 -19.03239 -14.22998 -14.19671 -10.12778
 Alpha  occ. eigenvalues --  -10.12403 -10.11734 -10.10960 -10.10038 -10.08632
 Alpha  occ. eigenvalues --  -10.08596 -10.08446 -10.07779 -10.07436 -10.06977
 Alpha  occ. eigenvalues --  -10.06554 -10.06157 -10.05991  -7.84842  -5.81132
 Alpha  occ. eigenvalues --   -5.80766  -5.80448  -0.93076  -0.85465  -0.83363
 Alpha  occ. eigenvalues --   -0.76989  -0.70624  -0.68506  -0.66898  -0.63060
 Alpha  occ. eigenvalues --   -0.62433  -0.60891  -0.57910  -0.56550  -0.54706
 Alpha  occ. eigenvalues --   -0.51302  -0.47848  -0.45470  -0.43913  -0.42079
 Alpha  occ. eigenvalues --   -0.41116  -0.39830  -0.38597  -0.37162  -0.36100
 Alpha  occ. eigenvalues --   -0.34625  -0.33676  -0.33467  -0.33376  -0.32457
 Alpha  occ. eigenvalues --   -0.31812  -0.30167  -0.29354  -0.29239  -0.28679
 Alpha  occ. eigenvalues --   -0.28447  -0.27796  -0.27158  -0.26117  -0.25806
 Alpha  occ. eigenvalues --   -0.24860  -0.24638  -0.23279  -0.20300  -0.18962
 Alpha  occ. eigenvalues --   -0.15975  -0.15367  -0.14723  -0.12700  -0.11236
 Alpha  occ. eigenvalues --    0.04546
 Alpha virt. eigenvalues --    0.06393   0.07027   0.07433   0.07803   0.07982
 Alpha virt. eigenvalues --    0.08043   0.08576   0.09155   0.09402   0.10132
 Alpha virt. eigenvalues --    0.10753   0.10967   0.11353   0.11833   0.12499

  Beta  occ. eigenvalues --  -88.76192 -19.03222 -14.23000 -14.19687 -10.12778
  Beta  occ. eigenvalues --  -10.12384 -10.11735 -10.10917 -10.09972 -10.08567
  Beta  occ. eigenvalues --  -10.08454 -10.08303 -10.07770 -10.07437 -10.06984
  Beta  occ. eigenvalues --  -10.06533 -10.06141 -10.05945  -7.84822  -5.81124
  Beta  occ. eigenvalues --   -5.80758  -5.80376  -0.93037  -0.85442  -0.83324
  Beta  occ. eigenvalues --   -0.76823  -0.70571  -0.68437  -0.66795  -0.63020
  Beta  occ. eigenvalues --   -0.62310  -0.60703  -0.57862  -0.56486  -0.54632
  Beta  occ. eigenvalues --   -0.51218  -0.47765  -0.45312  -0.43791  -0.42022
  Beta  occ. eigenvalues --   -0.41040  -0.39780  -0.38543  -0.37078  -0.36022
  Beta  occ. eigenvalues --   -0.34581  -0.33628  -0.33402  -0.33314  -0.32417
  Beta  occ. eigenvalues --   -0.31733  -0.30125  -0.29311  -0.29200  -0.28540
  Beta  occ. eigenvalues --   -0.28316  -0.27691  -0.27084  -0.26001  -0.25691
  Beta  occ. eigenvalues --   -0.24735  -0.24550  -0.23143  -0.20235  -0.18932
  Beta  occ. eigenvalues --   -0.15938  -0.15154  -0.14389  -0.11905  -0.11192
  Beta virt. eigenvalues --    0.06600   0.06908   0.07383   0.07638   0.08028
  Beta virt. eigenvalues --    0.08412   0.08737   0.09103   0.09323   0.09708
  Beta virt. eigenvalues --    0.10528   0.10779   0.10995   0.11483   0.11909

 Mulliken charges and spin densities:
               1          2
     1  C   -0.391051  -0.286628
     2  C   -0.164613  -0.688141
     3  C    0.492826   0.134869
     4  C   -0.374279   0.188453
     5  C   -0.101160   0.592618
     6  C   -0.190974   0.216982
     7  N   -0.026718   0.029136
     8  C    0.099102  -1.187190
     9  O   -0.200297   0.017165
    10  N    0.310635   0.038178
    11  C    0.501698  -0.830964
    12  C   -1.100347   0.815084
    13  C    0.249767  -0.894803
    14  C    0.573516  -0.306931
    15  C    0.826506  -0.498171
    16  C   -0.538033   0.161830
    17  C   -0.147865  -0.065239
    18  S   -0.493859   0.226309
    19  H    0.143911   0.005417
    20  H    0.139839  -0.000337
    21  H    0.107045   0.047993
    22  H    0.144722  -0.059191
    23  H   -0.095484   0.271161
    24  H   -0.215359   0.353978
    25  H   -0.056833   0.291055
    26  H    0.113016   0.119974
    27  H   -0.286913   0.450525
    28  H   -0.081756   0.237159
    29  H    0.244476  -0.068706
    30  H   -0.565156   0.813417
    31  H    0.003783   0.150443
    32  H   -0.081088   0.230357
    33  H   -0.218717   0.379323
    34  H    0.162846   0.000789
    35  H    0.058592   0.078077
    36  H    0.158222   0.036010
 Sum of Mulliken charges =  -1.00000   1.00000

 Dipole moment (field-independent basis, Debye):
    X=             -1.4644    Y=              4.8301    Z=             -2.9147  Tot=              5.8283
 Quadrupole moment (field-independent basis, Debye-Ang):
   XX=           -177.5539   YY=           -164.2083   ZZ=           -146.0207
   XY=             -5.1825   XZ=              0.4391   YZ=              4.8009

 Summary of Natural Population Analysis:

                                       Natural Population
                Natural  -----------------------------------------------
    Atom  No    Charge         Core      Valence    Rydberg      Total
 -----------------------------------------------------------------------
      C    1   -0.29626      0.99964     2.29123    0.00539     3.29626
      C    2    0.11700      0.99955     1.87130    0.01215     2.88300
      C    3   -0.14522      0.99947     2.13829    0.00747     3.14522
      C    4    0.12452      0.99943     1.86429    0.01176     2.87548
      C    5   -0.08049      0.99946     2.07180    0.00923     3.08049
      C    6    0.04563      0.99954     1.93946    0.01537     2.95437
      N    7   -0.26474      0.99968     2.75297    0.01210     3.76474
      C    8   -0.02199      0.99955     2.00954    0.01290     3.02199
      O    9   -0.36942      0.99990     3.36295    0.00657     4.36942
      N   10   -0.25849      0.99965     2.74409    0.01475     3.75849
      C   11   -0.18076      0.99961     2.17292    0.00822     3.18076
      C   12   -0.02124      0.99952     2.00518    0.01654     3.02124
      C   13   -0.28429      0.99964     2.27822    0.00643     3.28429
      C   14   -0.07299      0.99946     2.05972    0.01381     3.07299
      C   15   -0.13827      0.99945     2.12856    0.01026     3.13827
      C   16   -0.13162      0.99953     2.12239    0.00970     3.13162
      C   17   -0.17826      0.99954     2.16758    0.01114     3.17826
      S   18    0.20124      4.99940     2.77934    0.02002     7.79876
      H   19    0.10436      0.00000     0.39457    0.00107     0.39564
      H   20    0.09958      0.00000     0.39973    0.00069     0.40042
      H   21    0.10480      0.00000     0.39388    0.00132     0.39520
      H   22    0.11330      0.00000     0.38477    0.00193     0.38670
      H   23    0.08503      0.00000     0.41333    0.00164     0.41497
      H   24    0.08356      0.00000     0.41476    0.00168     0.41644
      H   25    0.09651      0.00000     0.40170    0.00179     0.40349
      H   26    0.22703      0.00000     0.26996    0.00301     0.27297
      H   27    0.09458      0.00000     0.40388    0.00154     0.40542
      H   28    0.09491      0.00000     0.40373    0.00136     0.40509
      H   29    0.11269      0.00000     0.38560    0.00171     0.38731
      H   30    0.11405      0.00000     0.38102    0.00494     0.38595
      H   31    0.10227      0.00000     0.39670    0.00103     0.39773
      H   32    0.10304      0.00000     0.39603    0.00093     0.39696
      H   33    0.10563      0.00000     0.39299    0.00138     0.39437
      H   34    0.10932      0.00000     0.38925    0.00142     0.39068
      H   35    0.10195      0.00000     0.39726    0.00080     0.39805
      H   36    0.10306      0.00000     0.39624    0.00070     0.39694
 =======================================================================
   * Total *    0.00000     21.99201    47.77523    0.23276    70.00000

 Normal termination of Gaussian 16 at Fri Dec 11 22:18:28 2020.
