 Gaussian 16, Revision A.03,

 -----------------------------------------------------------
 # opt freq B3LYP/6-31G(d) empiricaldispersion=gd3bj scf=xqc
 -----------------------------------------------------------

 ----------------------------
 CID_555353_JID_7857_neutraal
 ----------------------------
 Symbolic Z-matrix:
 Charge =  0 Multiplicity = 1

 SCF Done:  E(RB3LYP) =  -783.693146382     A.U. after   15 cycles
 SCF Done:  E(RB3LYP) =  -783.701624408     A.U. after   12 cycles
 SCF Done:  E(RB3LYP) =  -783.702795270     A.U. after   12 cycles
 SCF Done:  E(RB3LYP) =  -783.703309974     A.U. after   12 cycles
 SCF Done:  E(RB3LYP) =  -783.703590462     A.U. after   12 cycles
 SCF Done:  E(RB3LYP) =  -783.703736341     A.U. after   12 cycles
 SCF Done:  E(RB3LYP) =  -783.703783653     A.U. after   12 cycles
 SCF Done:  E(RB3LYP) =  -783.703797068     A.U. after   11 cycles
 SCF Done:  E(RB3LYP) =  -783.703803595     A.U. after    9 cycles
 SCF Done:  E(RB3LYP) =  -783.703807558     A.U. after    9 cycles
 SCF Done:  E(RB3LYP) =  -783.703816668     A.U. after    9 cycles
 SCF Done:  E(RB3LYP) =  -783.703817925     A.U. after    9 cycles
 SCF Done:  E(RB3LYP) =  -783.703818635     A.U. after    9 cycles
 SCF Done:  E(RB3LYP) =  -783.703818801     A.U. after    7 cycles
 SCF Done:  E(RB3LYP) =  -783.703818860     A.U. after    7 cycles
 Optimization completed.
    -- Stationary point found.
 Normal termination of Gaussian 16 at Fri Dec 11 13:28:16 2020.

 --------------------------------------------------------------------
 #N Geom=AllCheck Guess=TCheck SCRF=Check GenChk RB3LYP/6-31G(d) Freq
 --------------------------------------------------------------------

 Structure from the checkpoint file:  "JID_7857.chk"
 ----------------------------
 CID_555353_JID_7857_neutraal
 ----------------------------
 Charge =  0 Multiplicity = 1

 SCF Done:  E(RB3LYP) =  -783.703818860     A.U. after    1 cycles

  Exact polarizability: 289.333   8.371 149.632  -0.002  -0.016  68.635
 Approx polarizability: 370.067  19.411 273.690   0.011  -0.029 105.254

                      1                      2                      3
                      A                      A                      A
 Frequencies --     17.7848                40.9963                64.4550
 Red. masses --      4.0471                 4.4271                 5.7793
 Frc consts  --      0.0008                 0.0044                 0.0141
 IR Inten    --      0.4609                 1.6299                 0.9591

                      4                      5                      6
                      A                      A                      A
 Frequencies --     68.6602                78.1854               102.0510
 Red. masses --      1.8058                 4.0328                 3.7593
 Frc consts  --      0.0050                 0.0145                 0.0231
 IR Inten    --      0.0250                 2.2950                 8.4893

                      7                      8                      9
                      A                      A                      A
 Frequencies --    143.4768               180.5460               182.2926
 Red. masses --      5.1832                 7.3578                 2.5926
 Frc consts  --      0.0629                 0.1413                 0.0508
 IR Inten    --      3.5300                 0.4975                 0.8491

                     10                     11                     12
                      A                      A                      A
 Frequencies --    200.1447               253.8833               290.8008
 Red. masses --      5.0725                 1.2392                 4.3037
 Frc consts  --      0.1197                 0.0471                 0.2144
 IR Inten    --      2.7816                 0.0106                 1.9674

                     13                     14                     15
                      A                      A                      A
 Frequencies --    301.0255               400.9852               403.7416
 Red. masses --      3.1172                 4.3748                 7.9107
 Frc consts  --      0.1664                 0.4144                 0.7598
 IR Inten    --      1.6866                 0.0615                20.5094

                     16                     17                     18
                      A                      A                      A
 Frequencies --    430.1098               446.7061               467.1195
 Red. masses --      3.5325                 5.4669                 5.0167
 Frc consts  --      0.3850                 0.6427                 0.6449
 IR Inten    --      0.0070                12.5564                 0.6019

                     19                     20                     21
                      A                      A                      A
 Frequencies --    536.5304               558.4107               563.8117
 Red. masses --      2.3371                 5.2029                 3.3461
 Frc consts  --      0.3964                 0.9559                 0.6267
 IR Inten    --      3.4677                32.8298                 0.0170

                     22                     23                     24
                      A                      A                      A
 Frequencies --    576.4597               594.4816               627.5050
 Red. masses --      4.3732                 2.4831                 9.2196
 Frc consts  --      0.8562                 0.5170                 2.1389
 IR Inten    --      2.8240                 7.3891                 6.3816

                     25                     26                     27
                      A                      A                      A
 Frequencies --    655.8623               677.5369               728.3770
 Red. masses --      7.0577                 6.2059                 4.1219
 Frc consts  --      1.7887                 1.6785                 1.2884
 IR Inten    --      0.4005                44.5297                 0.2104

                     28                     29                     30
                      A                      A                      A
 Frequencies --    751.6577               799.8789               819.7305
 Red. masses --      5.4844                 4.8840                 1.3058
 Frc consts  --      1.8256                 1.8411                 0.5170
 IR Inten    --      3.3978                 4.5311                 9.9608

                     31                     32                     33
                      A                      A                      A
 Frequencies --    837.4517               840.3846               877.4702
 Red. masses --      1.4996                 1.5792                 1.8964
 Frc consts  --      0.6197                 0.6571                 0.8603
 IR Inten    --     44.0455                 3.7596                 3.1465

                     34                     35                     36
                      A                      A                      A
 Frequencies --    878.4827               943.6272               955.5393
 Red. masses --      4.8539                 1.3344                 1.2945
 Frc consts  --      2.2070                 0.7001                 0.6964
 IR Inten    --      6.1710                 0.1834                 1.3348

                     37                     38                     39
                      A                      A                      A
 Frequencies --   1021.6176              1026.5050              1031.2209
 Red. masses --      1.1195                 2.3729                 2.7586
 Frc consts  --      0.6884                 1.4731                 1.7284
 IR Inten    --     37.8730                 6.9238                 0.2018

                     40                     41                     42
                      A                      A                      A
 Frequencies --   1036.8706              1040.2979              1083.0389
 Red. masses --      2.2206                 3.7566                 5.9806
 Frc consts  --      1.4066                 2.3953                 4.1331
 IR Inten    --      0.2743                 1.7595                74.0087

                     43                     44                     45
                      A                      A                      A
 Frequencies --   1116.3291              1150.5974              1176.1079
 Red. masses --      6.2324                 1.3890                 1.2329
 Frc consts  --      4.5761                 1.0834                 1.0048
 IR Inten    --     40.2275                 1.5915                 2.0092

                     46                     47                     48
                      A                      A                      A
 Frequencies --   1186.5178              1205.4927              1215.1021
 Red. masses --      1.2717                 3.0846                 1.1870
 Frc consts  --      1.0548                 2.6410                 1.0326
 IR Inten    --      0.7631               191.8506                61.5465

                     49                     50                     51
                      A                      A                      A
 Frequencies --   1220.4145              1254.9918              1256.8403
 Red. masses --      1.3781                 2.6046                 1.1141
 Frc consts  --      1.2094                 2.4170                 1.0369
 IR Inten    --      7.8409                35.7361                 0.0003

                     52                     53                     54
                      A                      A                      A
 Frequencies --   1301.9720              1306.1235              1331.9044
 Red. masses --      1.7563                 5.3304                 1.6322
 Frc consts  --      1.7541                 5.3577                 1.7060
 IR Inten    --      4.8602               389.1883                 6.1035

                     55                     56                     57
                      A                      A                      A
 Frequencies --   1344.8035              1357.1682              1366.9053
 Red. masses --      1.5816                 3.2535                 1.3951
 Frc consts  --      1.6852                 3.5308                 1.5357
 IR Inten    --      7.4330                34.5762                58.2406

                     58                     59                     60
                      A                      A                      A
 Frequencies --   1400.8083              1413.3832              1475.5172
 Red. masses --      2.0806                 4.3961                 3.0390
 Frc consts  --      2.4054                 5.1741                 3.8983
 IR Inten    --     48.5541               538.9907                 8.0646

                     61                     62                     63
                      A                      A                      A
 Frequencies --   1487.4644              1500.3389              1509.6790
 Red. masses --      1.0720                 1.1948                 1.1008
 Frc consts  --      1.3974                 1.5846                 1.4782
 IR Inten    --      0.4070                13.1894                 3.1101

                     64                     65                     66
                      A                      A                      A
 Frequencies --   1520.9003              1535.6412              1570.6994
 Red. masses --      1.0476                 1.0613                 2.4857
 Frc consts  --      1.4278                 1.4746                 3.6132
 IR Inten    --      5.5688                44.7358                88.6798

                     67                     68                     69
                      A                      A                      A
 Frequencies --   1626.9021              1674.3481              1721.0588
 Red. masses --      6.2450                 5.6357                 5.2744
 Frc consts  --      9.7387                 9.3086                 9.2048
 IR Inten    --     14.1518               126.8822                 6.9996

                     70                     71                     72
                      A                      A                      A
 Frequencies --   1803.9629              1864.3567              3026.7262
 Red. masses --     12.5110                12.3847                 1.0347
 Frc consts  --     23.9881                25.3626                 5.5849
 IR Inten    --    566.9283                37.1625                72.6595

                     73                     74                     75
                      A                      A                      A
 Frequencies --   3085.7575              3086.8218              3092.8911
 Red. masses --      1.1067                 1.0601                 1.0622
 Frc consts  --      6.2085                 5.9516                 5.9867
 IR Inten    --     43.2430                14.4032                 8.6459

                     76                     77                     78
                      A                      A                      A
 Frequencies --   3120.6067              3135.6750              3160.7010
 Red. masses --      1.1060                 1.1034                 1.0998
 Frc consts  --      6.3456                 6.3922                 6.4736
 IR Inten    --      0.0008                 6.7485                30.2078

                     79                     80                     81
                      A                      A                      A
 Frequencies --   3186.7544              3197.9660              3218.0050
 Red. masses --      1.0893                 1.0875                 1.0942
 Frc consts  --      6.5175                 6.5528                 6.6759
 IR Inten    --     11.3071                11.4284                 8.1084

                     82                     83                     84
                      A                      A                      A
 Frequencies --   3229.4998              3232.1163              3239.7713
 Red. masses --      1.0913                 1.0947                 1.0840
 Frc consts  --      6.7061                 6.7376                 6.7038
 IR Inten    --     14.8702                11.3232                13.0050

 - Thermochemistry -
 -------------------
 Temperature   298.150 Kelvin.  Pressure   1.00000 Atm.
 Atom     1 has atomic number  6 and mass  12.00000

 Molecular mass:   231.08954 amu.
 Principal axes and moments of inertia in atomic units:
                           1         2         3
     Eigenvalues --  1186.44363********************
           X            0.99999   0.00339  -0.00001
           Y           -0.00339   0.99999  -0.00004
           Z            0.00001   0.00004   1.00000
 This molecule is an asymmetric top.
 Rotational symmetry number  1.
 Warning -- assumption of classical behavior for rotation
           may cause significant error
 Rotational temperatures (Kelvin)      0.07300     0.00813     0.00733
 Rotational constants (GHZ):           1.52114     0.16933     0.15280
 Zero-point vibrational energy     630703.2 (Joules/Mol)
                                  150.74168 (Kcal/Mol)
 Warning -- explicit consideration of  23 degrees of freedom as
           vibrations may cause significant error
 Vibrational temperatures:     25.59    58.98    92.74    98.79   112.49
          (Kelvin)            146.83   206.43   259.77   262.28   287.96
                              365.28   418.40   433.11   576.93   580.89
                              618.83   642.71   672.08   771.95   803.43
                              811.20   829.40   855.33   902.84   943.64
                              974.82  1047.97  1081.47  1150.85  1179.41
                             1204.91  1209.13  1262.48  1263.94  1357.67
                             1374.81  1469.88  1476.91  1483.70  1491.83
                             1496.76  1558.25  1606.15  1655.45  1692.16
                             1707.13  1734.44  1748.26  1755.90  1805.65
                             1808.31  1873.25  1879.22  1916.31  1934.87
                             1952.66  1966.67  2015.45  2033.54  2122.94
                             2140.13  2158.65  2172.09  2188.24  2209.45
                             2259.89  2340.75  2409.01  2476.22  2595.50
                             2682.39  4354.78  4439.72  4441.25  4449.98
                             4489.86  4511.54  4547.54  4585.03  4601.16
                             4629.99  4646.53  4650.29  4661.31

 Zero-point correction=                           0.240222 (Hartree/Particle)
 Thermal correction to Energy=                    0.255509
 Thermal correction to Enthalpy=                  0.256454
 Thermal correction to Gibbs Free Energy=         0.195372
 Sum of electronic and zero-point Energies=           -783.463597
 Sum of electronic and thermal Energies=              -783.448309
 Sum of electronic and thermal Enthalpies=            -783.447365
 Sum of electronic and thermal Free Energies=         -783.508447

                     E (Thermal)             CV                S
                      KCal/Mol        Cal/Mol-Kelvin    Cal/Mol-Kelvin
 Total                  160.335             57.139            128.557
 Electronic               0.000              0.000              0.000
 Translational            0.889              2.981             42.215
 Rotational               0.889              2.981             33.368
 Vibrational            158.557             51.178             52.975
 Vibration     1          0.593              1.986              6.867
 Vibration     2          0.594              1.981              5.210
 Vibration     3          0.597              1.971              4.316
 Vibration     4          0.598              1.969              4.191
 Vibration     5          0.599              1.964              3.936
 Vibration     6          0.604              1.948              3.415
 Vibration     7          0.616              1.910              2.757
 Vibration     8          0.629              1.866              2.323
 Vibration     9          0.630              1.864              2.305
 Vibration    10          0.638              1.840              2.132
 Vibration    11          0.665              1.756              1.703
 Vibration    12          0.687              1.691              1.469
 Vibration    13          0.693              1.672              1.411
 Vibration    14          0.767              1.468              0.959
 Vibration    15          0.769              1.462              0.949
 Vibration    16          0.791              1.405              0.858
 Vibration    17          0.806              1.368              0.806
 Vibration    18          0.824              1.323              0.746
 Vibration    19          0.892              1.169              0.573
 Vibration    20          0.914              1.121              0.527
 Vibration    21          0.920              1.110              0.516
 Vibration    22          0.933              1.082              0.492
 Vibration    23          0.952              1.044              0.459

                           ! Non-Optimized Parameters !
 Normal termination of Gaussian 16 at Fri Dec 11 13:37:21 2020.

 ----------------------------------------------------------------------
 # B3LYP/6-311++G(d,p) empiricaldispersion=gd3bj scf=xqc pop=npa geom=c
 heck
 ----------------------------------------------------------------------

 ------------------------------------
 CID_555353_JID_7857_Energie_neutraal
 ------------------------------------
 Structure from the checkpoint file:  "JID_7857.chk"
 Charge =  0 Multiplicity = 1

 SCF Done:  E(RB3LYP) =  -783.920450749     A.U. after   14 cycles
 Normal termination of Gaussian 16 at Fri Dec 11 13:41:38 2020.

 ----------------------------------------------------------------------
 # B3LYP/6-311++G(d,p) empiricaldispersion=gd3bj scf=xqc pop=npa geom=c
 heck
 ----------------------------------------------------------------------

 ----------------------------------
 CID_555353_JID_7857_Energie_kation
 ----------------------------------
 Structure from the checkpoint file:  "JID_7857.chk"
 Charge =  1 Multiplicity = 2

 SCF Done:  E(UB3LYP) =  -783.651174316     A.U. after   19 cycles
 Normal termination of Gaussian 16 at Fri Dec 11 13:49:50 2020.
 Gaussian 16:  ES64L-G16RevA.03 25-Dec-2016

 ----------------------------------------------------------------------
 # B3LYP/6-311++G(d,p) empiricaldispersion=gd3bj scf=xqc pop=npa geom=c
 heck
 ----------------------------------------------------------------------

 ---------------------------------
 CID_555353_JID_7857_Energie_anion
 ---------------------------------
 Structure from the checkpoint file:  "JID_7857.chk"
 Charge = -1 Multiplicity = 2

                         Standard orientation:
 ---------------------------------------------------------------------
 Center     Atomic      Atomic             Coordinates (Angstroms)
 Number     Number       Type             X           Y           Z
 ---------------------------------------------------------------------
      1          6           0       -6.190404   -0.401763    0.001612
      2          8           0       -5.231864    0.643152   -0.000621
      3          6           0       -3.913261    0.297841   -0.000392
      4          6           0       -3.002930    1.367564   -0.001404
      5          6           0       -1.640575    1.127174   -0.001478
      6          6           0       -1.128067   -0.187242   -0.000451
      7          6           0       -2.054922   -1.238871    0.000519
      8          6           0       -3.431592   -1.014273    0.000600
      9          6           0        0.298683   -0.509079   -0.000467
     10          6           0        1.292651    0.394012    0.000203
     11          7           0        2.671329    0.099926    0.000085
     12          6           0        3.274508   -1.166379   -0.000335
     13          8           0        2.686880   -2.227511   -0.000919
     14          6           0        4.786250   -0.971647   -0.000207
     15          6           0        5.006416    0.544604    0.000608
     16          6           0        3.611755    1.149442    0.000684
     17          8           0        3.318661    2.324760    0.001169
     18          1           0       -7.166418    0.086133    0.001911
     19          1           0       -6.097177   -1.030619    0.896735
     20          1           0       -6.098913   -1.032889   -0.892099
     21          1           0       -3.395727    2.379185   -0.002209
     22          1           0       -0.962898    1.975354   -0.002381
     23          1           0       -1.689060   -2.262453    0.001294
     24          1           0       -4.108779   -1.860028    0.001420
     25          1           0        0.552542   -1.562414   -0.000917
     26          1           0        1.130875    1.465332    0.000860
     27          1           0        5.201586   -1.473337    0.878900
     28          1           0        5.201602   -1.472340   -0.879883
     29          1           0        5.546129    0.908085    0.880300
     30          1           0        5.546444    0.908996   -0.878513
 ---------------------------------------------------------------------

 SCF Done:  E(UB3LYP) =  -783.920144789     A.U. after   33 cycles
 SCF Done:  E(UB3LYP) =  -783.920144789     a.u. after    1 cycles

 The electronic state is 2-A.
 Alpha  occ. eigenvalues --  -19.04016 -18.98710 -18.98311 -14.24550 -10.15779
 Alpha  occ. eigenvalues --  -10.15701 -10.13089 -10.09379 -10.08144 -10.08044
 Alpha  occ. eigenvalues --  -10.04493 -10.04478 -10.04225 -10.03788 -10.03419
 Alpha  occ. eigenvalues --  -10.03357 -10.00935  -0.95768  -0.94449  -0.92620
 Alpha  occ. eigenvalues --   -0.83142  -0.72523  -0.70129  -0.65216  -0.62511
 Alpha  occ. eigenvalues --   -0.61012  -0.57645  -0.57474  -0.51250  -0.49146
 Alpha  occ. eigenvalues --   -0.48556  -0.45215  -0.41936  -0.39883  -0.38943
 Alpha  occ. eigenvalues --   -0.37135  -0.36907  -0.35962  -0.35347  -0.32953
 Alpha  occ. eigenvalues --   -0.32149  -0.31803  -0.30571  -0.30450  -0.29762
 Alpha  occ. eigenvalues --   -0.29657  -0.29447  -0.28568  -0.26523  -0.26309
 Alpha  occ. eigenvalues --   -0.23535  -0.23387  -0.23146  -0.21895  -0.20518
 Alpha  occ. eigenvalues --   -0.19579  -0.15934  -0.14000  -0.13828  -0.12969
 Alpha  occ. eigenvalues --   -0.07182   0.05052
 Alpha virt. eigenvalues --    0.06645   0.07072   0.08971   0.09218   0.09390
 Alpha virt. eigenvalues --    0.09784   0.10108   0.10624   0.11279   0.11731
 Alpha virt. eigenvalues --    0.12243   0.12879   0.12984   0.13912   0.14321

  Beta  occ. eigenvalues --  -19.03948 -18.98673 -18.98220 -14.24596 -10.15650
  Beta  occ. eigenvalues --  -10.15536 -10.13092 -10.09105 -10.08161 -10.08059
  Beta  occ. eigenvalues --  -10.04542 -10.04313 -10.04247 -10.03684 -10.03320
  Beta  occ. eigenvalues --  -10.03223 -10.00672  -0.95595  -0.94287  -0.92463
  Beta  occ. eigenvalues --   -0.83021  -0.72274  -0.69925  -0.64889  -0.62315
  Beta  occ. eigenvalues --   -0.60780  -0.57441  -0.57261  -0.50906  -0.48883
  Beta  occ. eigenvalues --   -0.48421  -0.45040  -0.41822  -0.39600  -0.38607
  Beta  occ. eigenvalues --   -0.36949  -0.36812  -0.35800  -0.35204  -0.32824
  Beta  occ. eigenvalues --   -0.32028  -0.31655  -0.30175  -0.30054  -0.29690
  Beta  occ. eigenvalues --   -0.29519  -0.29392  -0.28467  -0.26164  -0.25910
  Beta  occ. eigenvalues --   -0.23413  -0.23061  -0.22946  -0.21064  -0.20441
  Beta  occ. eigenvalues --   -0.19003  -0.15874  -0.13925  -0.12879  -0.12393
  Beta  occ. eigenvalues --   -0.05948
  Beta virt. eigenvalues --    0.06636   0.07165   0.08971   0.09197   0.09770
  Beta virt. eigenvalues --    0.10070   0.10114   0.10656   0.10692   0.11545
  Beta virt. eigenvalues --    0.11712   0.12131   0.12898   0.13145   0.14203

 Mulliken charges and spin densities:
               1          2
     1  C   -0.307969  -0.001904
     2  O   -0.172445   0.009995
     3  C   -0.639933   0.171004
     4  C   -0.596149  -0.070290
     5  C   -1.130630   0.182997
     6  C    1.572572  -0.012819
     7  C   -0.016254   0.088617
     8  C    0.125509  -0.018778
     9  C   -0.080561   0.162183
    10  C   -0.521791   0.188804
    11  N    0.245302  -0.015219
    12  C    0.151213   0.058747
    13  O   -0.348837   0.034816
    14  C   -0.404754  -0.031243
    15  C   -0.369805  -0.108156
    16  C    0.191208   0.081431
    17  O   -0.371264   0.028244
    18  H    0.145616  -0.000225
    19  H    0.130454   0.003187
    20  H    0.130834   0.002749
    21  H    0.168365   0.004156
    22  H    0.008884  -0.009744
    23  H    0.117928  -0.003190
    24  H    0.129901   0.000798
    25  H    0.187142  -0.017074
    26  H    0.279176  -0.017540
    27  H    0.107796   0.056120
    28  H    0.107804   0.056114
    29  H    0.080186   0.088265
    30  H    0.080499   0.087957
 Sum of Mulliken charges =  -1.00000   1.00000

 Dipole moment (field-independent basis, Debye):
    X=             -2.5972    Y=             -1.5466    Z=              0.0018  Tot=              3.0228
 Quadrupole moment (field-independent basis, Debye-Ang):
   XX=           -142.9369   YY=           -125.9046   ZZ=           -110.1519
   XY=              3.0596   XZ=             -0.0200   YZ=             -0.0116

 Summary of Natural Population Analysis:

                                       Natural Population
                Natural  -----------------------------------------------
    Atom  No    Charge         Core      Valence    Rydberg      Total
 -----------------------------------------------------------------------
      C    1   -0.10007      0.99962     2.09213    0.00832     3.10007
      O    2   -0.27289      0.99985     3.26311    0.00992     4.27289
      C    3    0.19294      0.99939     1.79610    0.01156     2.80706
      C    4   -0.14430      0.99954     2.13583    0.00893     3.14430
      C    5   -0.05225      0.99956     2.04416    0.00853     3.05225
      C    6   -0.03082      0.99939     2.02212    0.00931     3.03082
      C    7   -0.06016      0.99944     2.05126    0.00946     3.06016
      C    8   -0.17298      0.99955     2.16460    0.00883     3.17298
      C    9   -0.06571      0.99955     2.05699    0.00918     3.06571
      C   10    0.02144      0.99952     1.96780    0.01124     2.97856
      N   11   -0.25081      0.99959     2.74321    0.00802     3.75081
      C   12    0.36752      0.99969     1.61179    0.02101     2.63248
      O   13   -0.29881      0.99987     3.29256    0.00638     4.29881
      C   14   -0.23470      0.99962     2.22688    0.00820     3.23470
      C   15   -0.23522      0.99961     2.22842    0.00719     3.23522
      C   16    0.37411      0.99969     1.60281    0.02340     2.62589
      O   17   -0.30538      0.99987     3.29955    0.00595     4.30538
      H   18    0.08598      0.00000     0.41319    0.00083     0.41402
      H   19    0.07997      0.00000     0.41828    0.00175     0.42003
      H   20    0.07995      0.00000     0.41831    0.00175     0.42005
      H   21    0.09786      0.00000     0.40106    0.00108     0.40214
      H   22    0.09481      0.00000     0.40386    0.00133     0.40519
      H   23    0.09591      0.00000     0.40352    0.00057     0.40409
      H   24    0.09482      0.00000     0.40400    0.00117     0.40518
      H   25    0.10502      0.00000     0.39337    0.00161     0.39498
      H   26    0.09893      0.00000     0.39971    0.00136     0.40107
      H   27    0.10825      0.00000     0.39021    0.00154     0.39175
      H   28    0.10825      0.00000     0.39021    0.00154     0.39175
      H   29    0.10919      0.00000     0.38926    0.00154     0.39081
      H   30    0.10919      0.00000     0.38927    0.00154     0.39081
 =======================================================================
   * Total *    0.00006     16.99334    43.81357    0.19303    60.99994

 Normal termination of Gaussian 16 at Fri Dec 11 14:04:11 2020.
