 Gaussian 16, Revision A.03,

 ----------------------------------------------------------------------
 # opt=(cartesian,calcfc) freq B3LYP/6-31G(d) empiricaldispersion=gd3bj
  scf=xqc
 ----------------------------------------------------------------------

 -------------------------------
 CID_145503746_JID_1952_neutraal
 -------------------------------
 Symbolic Z-matrix:
 Charge =  0 Multiplicity = 1

 SCF Done:  E(RB3LYP) =  -455.782197331     A.U. after   23 cycles
 SCF Done:  E(RB3LYP) =  -455.782934786     A.U. after   19 cycles
 SCF Done:  E(RB3LYP) =  -455.782962658     A.U. after   19 cycles
 SCF Done:  E(RB3LYP) =  -455.783215436     A.U. after   19 cycles
 SCF Done:  E(RB3LYP) =  -455.783253263     A.U. after   17 cycles
 SCF Done:  E(RB3LYP) =  -455.783280042     A.U. after   16 cycles
 SCF Done:  E(RB3LYP) =  -455.783294592     A.U. after   16 cycles
 SCF Done:  E(RB3LYP) =  -455.783217122     A.U. after   19 cycles
 SCF Done:  E(RB3LYP) =  -455.783311629     A.U. after   17 cycles
 SCF Done:  E(RB3LYP) =  -455.783316638     A.U. after   17 cycles
 SCF Done:  E(RB3LYP) =  -455.783329128     A.U. after   14 cycles
 SCF Done:  E(RB3LYP) =  -455.783329024     A.U. after   13 cycles
 SCF Done:  E(RB3LYP) =  -455.783329453     A.U. after   12 cycles
 SCF Done:  E(RB3LYP) =  -455.783329421     A.U. after   12 cycles
 SCF Done:  E(RB3LYP) =  -455.783329502     A.U. after   12 cycles
 Optimization completed.
    -- Stationary point found.
 Normal termination of Gaussian 16 at Mon Jan  4 08:56:44 2021.

 --------------------------------------------------------------------
 #N Geom=AllCheck Guess=TCheck SCRF=Check GenChk RB3LYP/6-31G(d) Freq
 --------------------------------------------------------------------

 Structure from the checkpoint file:  "JID_1952.chk"
 -------------------------------
 CID_145503746_JID_1952_neutraal
 -------------------------------
 Charge =  0 Multiplicity = 1

 SCF Done:  E(RB3LYP) =  -455.783329502     A.U. after    3 cycles

  Exact polarizability: 350.773 -13.133 155.706  -1.360   2.965  39.021
 Approx polarizability:1977.240 -25.276 291.201  10.795  10.781  58.829

                      1                      2                      3
                      A                      A                      A
 Frequencies --     45.5321                52.1153                79.3583
 Red. masses --      6.4652                 6.4196                 4.7514
 Frc consts  --      0.0079                 0.0103                 0.0176
 IR Inten    --      2.0432                 0.3143                 1.3572

                      4                      5                      6
                      A                      A                      A
 Frequencies --    102.3128               115.5635               155.7201
 Red. masses --      1.9416                 4.0247                 5.9299
 Frc consts  --      0.0120                 0.0317                 0.0847
 IR Inten    --      0.5032                 0.5545                 6.5439

                      7                      8                      9
                      A                      A                      A
 Frequencies --    197.1262               273.9979               301.7320
 Red. masses --      4.4936                 4.8225                 4.6862
 Frc consts  --      0.1029                 0.2133                 0.2514
 IR Inten    --      0.9203                 2.9768                14.0893

                     10                     11                     12
                      A                      A                      A
 Frequencies --    341.8070               352.3154               434.7207
 Red. masses --      1.4824                 5.5563                 4.1780
 Frc consts  --      0.1020                 0.4063                 0.4652
 IR Inten    --     63.1389                 8.9438                16.5890

                     13                     14                     15
                      A                      A                      A
 Frequencies --    469.3927               478.1741               513.1028
 Red. masses --      8.4865                 3.6120                 3.0110
 Frc consts  --      1.1017                 0.4866                 0.4671
 IR Inten    --      4.2669                 4.0665                20.5483

                     16                     17                     18
                      A                      A                      A
 Frequencies --    539.6999               572.4152               598.1167
 Red. masses --      2.1874                 2.7443                 2.4363
 Frc consts  --      0.3754                 0.5298                 0.5135
 IR Inten    --     47.9007                22.4114               135.5387

                     19                     20                     21
                      A                      A                      A
 Frequencies --    656.9899               660.9717               684.0662
 Red. masses --      4.3180                 1.5571                 1.8688
 Frc consts  --      1.0981                 0.4008                 0.5152
 IR Inten    --     34.0441                40.4078                 7.7737

                     22                     23                     24
                      A                      A                      A
 Frequencies --    805.6893               840.9557               845.7148
 Red. masses --      1.8808                 3.0836                 1.3990
 Frc consts  --      0.7193                 1.2849                 0.5895
 IR Inten    --     23.7705                38.7006                56.3032

                     25                     26                     27
                      A                      A                      A
 Frequencies --    936.7769               978.2578               988.0469
 Red. masses --      3.1952                 2.6746                 1.1489
 Frc consts  --      1.6520                 1.5080                 0.6608
 IR Inten    --     18.9733                49.8967                29.1113

                     28                     29                     30
                      A                      A                      A
 Frequencies --   1043.2698              1198.5915              1269.7614
 Red. masses --      1.5454                 2.4428                 3.2158
 Frc consts  --      0.9910                 2.0676                 3.0548
 IR Inten    --     43.4316                58.7974                29.9306

                     31                     32                     33
                      A                      A                      A
 Frequencies --   1347.7734              1392.8183              1414.6924
 Red. masses --      1.2349                 2.6068                 2.1596
 Frc consts  --      1.3216                 2.9796                 2.5465
 IR Inten    --     17.5818               113.5637                82.9782

                     34                     35                     36
                      A                      A                      A
 Frequencies --   1498.2285              1569.1675              1694.8463
 Red. masses --      1.8478                 2.5896                 3.6769
 Frc consts  --      2.4438                 3.7569                 6.2230
 IR Inten    --     25.9723               145.0339                 9.4784

                     37                     38                     39
                      A                      A                      A
 Frequencies --   1820.7864              2095.2439              2179.3998
 Red. masses --      9.7791                 7.5111                12.6084
 Frc consts  --     19.1016                19.4278                35.2844
 IR Inten    --     20.7349                 0.9825                16.3599

                     40                     41                     42
                      A                      A                      A
 Frequencies --   2856.3011              3181.2025              3185.9957
 Red. masses --      1.0757                 1.0596                 1.0918
 Frc consts  --      5.1707                 6.3181                 6.5295
 IR Inten    --    129.2982                 0.7559                 3.8512

                     43                     44                     45
                      A                      A                      A
 Frequencies --   3277.3468              3484.5804              3570.9082
 Red. masses --      1.1151                 1.1368                 1.0764
 Frc consts  --      7.0569                 8.1328                 8.0866
 IR Inten    --      2.7269               258.2324                59.9346

 - Thermochemistry -
 -------------------
 Temperature   298.150 Kelvin.  Pressure   1.00000 Atm.
 Atom     1 has atomic number  6 and mass  12.00000

 Molecular mass:   142.05310 amu.
 Principal axes and moments of inertia in atomic units:
                           1         2         3
     Eigenvalues --  1039.882943022.478554046.88550
           X            0.99997  -0.00813  -0.00060
           Y            0.00813   0.99997  -0.00023
           Z            0.00060   0.00022   1.00000
 This molecule is an asymmetric top.
 Rotational symmetry number  1.
 Warning -- assumption of classical behavior for rotation
           may cause significant error
 Rotational temperatures (Kelvin)      0.08329     0.02866     0.02140
 Rotational constants (GHZ):           1.73552     0.59711     0.44596
 Zero-point vibrational energy     305655.4 (Joules/Mol)
                                   73.05338 (Kcal/Mol)
 Warning -- explicit consideration of  18 degrees of freedom as
           vibrations may cause significant error
 Vibrational temperatures:     65.51    74.98   114.18   147.21   166.27
          (Kelvin)            224.05   283.62   394.22   434.13   491.78
                              506.90   625.47   675.35   687.99   738.24
                              776.51   823.58   860.56   945.26   950.99
                              984.22  1159.21  1209.95  1216.80  1347.81
                             1407.49  1421.58  1501.03  1724.51  1826.90
                             1939.15  2003.95  2035.43  2155.62  2257.68
                             2438.51  2619.71  3014.59  3135.67  4109.58
                             4577.04  4583.94  4715.37  5013.53  5137.74

 Zero-point correction=                           0.116418 (Hartree/Particle)
 Thermal correction to Energy=                    0.128261
 Thermal correction to Enthalpy=                  0.129206
 Thermal correction to Gibbs Free Energy=         0.077602
 Sum of electronic and zero-point Energies=           -455.666912
 Sum of electronic and thermal Energies=              -455.655068
 Sum of electronic and thermal Enthalpies=            -455.654124
 Sum of electronic and thermal Free Energies=         -455.705727

                     E (Thermal)             CV                S
                      KCal/Mol        Cal/Mol-Kelvin    Cal/Mol-Kelvin
 Total                   80.485             41.555            108.608
 Electronic               0.000              0.000              0.000
 Translational            0.889              2.981             40.764
 Rotational               0.889              2.981             30.920
 Vibrational             78.708             35.593             36.924
 Vibration     1          0.595              1.979              5.003
 Vibration     2          0.596              1.977              4.735
 Vibration     3          0.600              1.963              3.907
 Vibration     4          0.604              1.947              3.410
 Vibration     5          0.608              1.936              3.173
 Vibration     6          0.620              1.896              2.601
 Vibration     7          0.637              1.844              2.160
 Vibration     8          0.676              1.721              1.571
 Vibration     9          0.694              1.670              1.407
 Vibration    10          0.721              1.592              1.204
 Vibration    11          0.729              1.571              1.156
 Vibration    12          0.795              1.395              0.843
 Vibration    13          0.826              1.318              0.739
 Vibration    14          0.835              1.298              0.715
 Vibration    15          0.868              1.221              0.626
 Vibration    16          0.895              1.162              0.566
 Vibration    17          0.929              1.091              0.500
 Vibration    18          0.956              1.036              0.453

 Optimization completed.
    -- Stationary point found.
 Normal termination of Gaussian 16 at Mon Jan  4 08:59:17 2021.

 ----------------------------------------------------------------------
 # B3LYP/6-311++G(d,p) empiricaldispersion=gd3bj scf=xqc pop=npa geom=c
 heck
 ----------------------------------------------------------------------

 ---------------------------------------
 CID_145503746_JID_1952_Energie_neutraal
 ---------------------------------------
 Structure from the checkpoint file:  "JID_1952.chk"
 Charge =  0 Multiplicity = 1

 SCF Done:  E(RB3LYP) =  -455.914977535     A.U. after   24 cycles
 Normal termination of Gaussian 16 at Mon Jan  4 09:00:24 2021.

 ----------------------------------------------------------------------
 # B3LYP/6-311++G(d,p) empiricaldispersion=gd3bj scf=xqc pop=npa geom=c
 heck
 ----------------------------------------------------------------------

 -------------------------------------
 CID_145503746_JID_1952_Energie_kation
 -------------------------------------
 Structure from the checkpoint file:  "JID_1952.chk"
 Charge =  1 Multiplicity = 2

 SCF Done:  E(UB3LYP) =  -455.641972020     A.U. after   33 cycles
 SCF Done:  E(UB3LYP) =  -455.645970213     a.u. after   10 cycles
 Normal termination of Gaussian 16 at Mon Jan  4 09:17:41 2021.
 Gaussian 16:  ES64L-G16RevA.03 25-Dec-2016

 ----------------------------------------------------------------------
 # B3LYP/6-311++G(d,p) empiricaldispersion=gd3bj scf=xqc pop=npa geom=c
 heck
 ----------------------------------------------------------------------

 ------------------------------------
 CID_145503746_JID_1952_Energie_anion
 ------------------------------------
 Structure from the checkpoint file:  "JID_1952.chk"
 Charge = -1 Multiplicity = 2

                         Standard orientation:
 ---------------------------------------------------------------------
 Center     Atomic      Atomic             Coordinates (Angstroms)
 Number     Number       Type             X           Y           Z
 ---------------------------------------------------------------------
      1          6           0       -0.001248    3.154219   -0.048266
      2          6           0        0.196379    1.827750   -0.110901
      3          7           0       -0.761085    0.871656    0.164338
      4          6           0       -0.647034   -0.491776   -0.050725
      5          6           0        0.610639   -1.186355   -0.078839
      6          6           0        1.879262   -0.865114   -0.047114
      7          6           0        3.196239   -0.793340    0.044401
      8          6           0        4.421397   -0.683607    0.120258
      9          6           0       -1.717840   -1.355736   -0.198495
     10          6           0       -3.033610   -0.959088   -0.011002
     11          7           0       -4.180092   -0.732113    0.141676
     12          1           0       -0.976969    3.584158    0.160169
     13          1           0        0.822308    3.836559   -0.217559
     14          1           0        1.162800    1.411983   -0.385963
     15          1           0       -1.666651    1.187037    0.495909
     16          1           0        0.339517   -2.268250   -0.118026
     17          1           0        5.482131   -0.610004    0.207472
 ---------------------------------------------------------------------

 SCF Done:  E(UB3LYP) =  -456.043283880     A.U. after   27 cycles

 The electronic state is 2-A.
 Alpha  occ. eigenvalues --  -14.22115 -14.14016 -10.09876 -10.08850 -10.08308
 Alpha  occ. eigenvalues --  -10.07664 -10.07427 -10.07348 -10.04274 -10.04014
 Alpha  occ. eigenvalues --  -10.00499  -0.83423  -0.73530  -0.70300  -0.67031
 Alpha  occ. eigenvalues --   -0.63578  -0.59448  -0.54239  -0.48789  -0.47971
 Alpha  occ. eigenvalues --   -0.43479  -0.41259  -0.37785  -0.32718  -0.31772
 Alpha  occ. eigenvalues --   -0.30541  -0.27382  -0.26941  -0.24017  -0.22451
 Alpha  occ. eigenvalues --   -0.21036  -0.20272  -0.19023  -0.16861  -0.12167
 Alpha  occ. eigenvalues --   -0.08619  -0.06650  -0.04862
 Alpha virt. eigenvalues --    0.05465   0.07518   0.09095   0.10965   0.11086
 Alpha virt. eigenvalues --    0.11224   0.13052   0.13551   0.13978   0.14284
 Alpha virt. eigenvalues --    0.15356   0.15985   0.16540   0.17212   0.17758

  Beta  occ. eigenvalues --  -14.22110 -14.14056 -10.09856 -10.08722 -10.08636
  Beta  occ. eigenvalues --  -10.07525 -10.06634 -10.06628 -10.04259 -10.04000
  Beta  occ. eigenvalues --  -10.00559  -0.83363  -0.73592  -0.69258  -0.66608
  Beta  occ. eigenvalues --   -0.63020  -0.58912  -0.53144  -0.48745  -0.47603
  Beta  occ. eigenvalues --   -0.43008  -0.40749  -0.37713  -0.32337  -0.31114
  Beta  occ. eigenvalues --   -0.29692  -0.27260  -0.26767  -0.23517  -0.21100
  Beta  occ. eigenvalues --   -0.20424  -0.20021  -0.18996  -0.16769  -0.11730
  Beta  occ. eigenvalues --   -0.06508  -0.04937
  Beta virt. eigenvalues --    0.02095   0.05694   0.07564   0.09092   0.10958
  Beta virt. eigenvalues --    0.11140   0.11254   0.13128   0.13554   0.14117
  Beta virt. eigenvalues --    0.14647   0.15401   0.16089   0.16653   0.17314

 Mulliken charges and spin densities:
               1          2
     1  C   -0.672544   0.012495
     2  C    0.134670   0.012346
     3  N   -0.053084  -0.000158
     4  C    0.410656   0.022143
     5  C   -0.622454  -0.114625
     6  C   -0.148661   0.698740
     7  C    1.121672  -0.215165
     8  C   -1.395631   0.589019
     9  C    0.472502  -0.053701
    10  C   -0.699638   0.014258
    11  N   -0.400134  -0.020558
    12  H    0.086684   0.001323
    13  H    0.100844  -0.000534
    14  H    0.099656   0.005192
    15  H    0.270181   0.003049
    16  H    0.169493   0.076755
    17  H    0.125787  -0.030578
 Sum of Mulliken charges =  -1.00000   1.00000

 Dipole moment (field-independent basis, Debye):
    X=              7.0394    Y=              3.4110    Z=              0.3474  Tot=              7.8300
 Quadrupole moment (field-independent basis, Debye-Ang):
   XX=           -118.8768   YY=            -83.3751   ZZ=            -72.6177
   XY=             -9.4511   XZ=             -0.3698   YZ=             -0.3085

 Summary of Natural Population Analysis:

                                       Natural Population
                Natural  -----------------------------------------------
    Atom  No    Charge         Core      Valence    Rydberg      Total
 -----------------------------------------------------------------------
      C    1   -0.27134      0.99961     2.26198    0.00974     3.27134
      C    2    0.02054      0.99957     1.96723    0.01266     2.97946
      N    3   -0.31752      0.99968     2.80023    0.01761     3.81752
      C    4    0.12548      0.99943     1.86211    0.01297     2.87452
      C    5   -0.19257      0.99955     2.17540    0.01762     3.19257
      C    6    0.33872      0.99937     1.65231    0.00961     2.66128
      C    7   -0.17239      0.99951     2.16559    0.00729     3.17239
      C    8    0.15127      0.99926     1.84505    0.00442     2.84873
      C    9   -0.24408      0.99947     2.22255    0.02206     3.24408
      C   10    0.09918      0.99964     1.87903    0.02215     2.90082
      N   11   -0.25993      0.99979     2.75029    0.00984     3.75993
      H   12    0.08882      0.00000     0.41011    0.00107     0.41118
      H   13    0.09325      0.00000     0.40586    0.00089     0.40675
      H   14    0.09817      0.00000     0.40023    0.00160     0.40183
      H   15    0.19516      0.00000     0.30230    0.00254     0.30484
      H   16    0.16308      0.00000     0.33502    0.00190     0.33692
      H   17    0.09485      0.00000     0.40405    0.00110     0.40515
 =======================================================================
   * Total *    0.01071     10.99488    25.83933    0.15508    36.98929

 Normal termination of Gaussian 16 at Mon Jan  4 09:19:44 2021.
