 Gaussian 16, Revision A.03,

 -----------------------------------------------------------
 # opt freq B3LYP/6-31G(d) empiricaldispersion=gd3bj scf=xqc
 -----------------------------------------------------------

 -------------------------------
 CID_28334178_JID_10688_neutraal
 -------------------------------
 Symbolic Z-matrix:
 Charge =  0 Multiplicity = 1

 SCF Done:  E(RB3LYP) =  -844.679471607     A.U. after   15 cycles
 SCF Done:  E(RB3LYP) =  -844.611103265     A.U. after   15 cycles
 SCF Done:  E(RB3LYP) =  -844.686429948     A.U. after   12 cycles
 SCF Done:  E(RB3LYP) =  -844.688278017     A.U. after   13 cycles
 SCF Done:  E(RB3LYP) =  -844.688888883     A.U. after   12 cycles
 SCF Done:  E(RB3LYP) =  -844.689545077     A.U. after   13 cycles
 SCF Done:  E(RB3LYP) =  -844.689949176     A.U. after   12 cycles
 SCF Done:  E(RB3LYP) =  -844.690540980     A.U. after   12 cycles
 SCF Done:  E(RB3LYP) =  -844.690793889     A.U. after   12 cycles
 SCF Done:  E(RB3LYP) =  -844.690904363     A.U. after   11 cycles
 SCF Done:  E(RB3LYP) =  -844.690977312     A.U. after    9 cycles
 SCF Done:  E(RB3LYP) =  -844.690978139     A.U. after    9 cycles
 SCF Done:  E(RB3LYP) =  -844.690978254     A.U. after    7 cycles
 SCF Done:  E(RB3LYP) =  -844.690978325     A.U. after    7 cycles
 SCF Done:  E(RB3LYP) =  -844.690978368     A.U. after    7 cycles
 Optimization completed.
    -- Stationary point found.
 Normal termination of Gaussian 16 at Mon Dec 14 14:11:04 2020.

 --------------------------------------------------------------------
 #N Geom=AllCheck Guess=TCheck SCRF=Check GenChk RB3LYP/6-31G(d) Freq
 --------------------------------------------------------------------

 Structure from the checkpoint file:  "JID_10688.chk"
 -------------------------------
 CID_28334178_JID_10688_neutraal
 -------------------------------
 Charge =  0 Multiplicity = 1

 SCF Done:  E(RB3LYP) =  -844.690978368     A.U. after    1 cycles

  Exact polarizability: 245.726  -1.176 146.271   0.181 -33.295 151.769
 Approx polarizability: 396.430   0.761 217.639  -4.683 -75.188 271.371

                      1                      2                      3
                      A                      A                      A
 Frequencies --     16.9281                41.7159                52.6718
 Red. masses --      4.2658                 4.8412                 5.5906
 Frc consts  --      0.0007                 0.0050                 0.0091
 IR Inten    --      0.0936                 0.2065                 1.3861

                      4                      5                      6
                      A                      A                      A
 Frequencies --     61.3468                71.8568                88.2358
 Red. masses --      3.9355                 4.0377                 1.9418
 Frc consts  --      0.0087                 0.0123                 0.0089
 IR Inten    --      0.2470                 0.5808                 0.0483

                      7                      8                      9
                      A                      A                      A
 Frequencies --     98.6288               127.1847               154.5726
 Red. masses --      1.2890                 3.4398                 1.1976
 Frc consts  --      0.0074                 0.0328                 0.0169
 IR Inten    --      0.2477                 1.0374                 0.2625

                     10                     11                     12
                      A                      A                      A
 Frequencies --    160.2443               181.5286               200.5510
 Red. masses --      2.4409                 1.4029                 3.1078
 Frc consts  --      0.0369                 0.0272                 0.0736
 IR Inten    --      0.7874                 1.2546                 1.3927

                     13                     14                     15
                      A                      A                      A
 Frequencies --    224.7370               258.0045               299.2197
 Red. masses --      3.3216                 3.5840                 2.8502
 Frc consts  --      0.0988                 0.1406                 0.1503
 IR Inten    --      4.0191                 2.7018                 0.3014

                     16                     17                     18
                      A                      A                      A
 Frequencies --    313.2883               322.7721               349.9004
 Red. masses --      2.8475                 3.0048                 3.8604
 Frc consts  --      0.1647                 0.1844                 0.2785
 IR Inten    --      0.5249                 1.3210                 1.0621

                     19                     20                     21
                      A                      A                      A
 Frequencies --    364.3361               373.8431               417.8276
 Red. masses --      6.0936                 3.1983                 3.2886
 Frc consts  --      0.4766                 0.2634                 0.3383
 IR Inten    --      5.1548                 5.6445                 1.1350

                     22                     23                     24
                      A                      A                      A
 Frequencies --    422.0227               445.7281               461.3276
 Red. masses --      3.2248                 2.9526                 3.2095
 Frc consts  --      0.3384                 0.3456                 0.4024
 IR Inten    --      3.0608                 3.4730                 2.7186

                     25                     26                     27
                      A                      A                      A
 Frequencies --    473.8719               502.4659               534.7953
 Red. masses --      3.2644                 3.6107                 2.3412
 Frc consts  --      0.4319                 0.5371                 0.3945
 IR Inten    --     21.1835                 9.8323                12.1816

                     28                     29                     30
                      A                      A                      A
 Frequencies --    549.4579               570.3576               592.9361
 Red. masses --      3.2915                 2.8889                 1.9247
 Frc consts  --      0.5855                 0.5537                 0.3987
 IR Inten    --      3.3206                36.3041                48.7695

                     31                     32                     33
                      A                      A                      A
 Frequencies --    640.6135               659.9423               700.4170
 Red. masses --      3.5285                 6.6636                 3.2245
 Frc consts  --      0.8532                 1.7099                 0.9320
 IR Inten    --     20.1378                 0.4492                55.9741

                     34                     35                     36
                      A                      A                      A
 Frequencies --    719.8240               723.2347               754.6265
 Red. masses --      3.2769                 2.8061                 3.5587
 Frc consts  --      1.0004                 0.8648                 1.1940
 IR Inten    --      3.1820                24.5220                20.4392

                     37                     38                     39
                      A                      A                      A
 Frequencies --    769.0241               775.8885               811.3246
 Red. masses --      4.4910                 2.0489                 2.9307
 Frc consts  --      1.5648                 0.7267                 1.1366
 IR Inten    --      3.5524                27.2696                10.5516

                     40                     41                     42
                      A                      A                      A
 Frequencies --    828.3762               831.4391               838.9831
 Red. masses --      1.2932                 1.7907                 1.4477
 Frc consts  --      0.5228                 0.7294                 0.6004
 IR Inten    --      1.0574                62.2169                14.6179

                     43                     44                     45
                      A                      A                      A
 Frequencies --    853.2306               875.2219               885.6230
 Red. masses --      3.6694                 3.6732                 1.5342
 Frc consts  --      1.5739                 1.6578                 0.7090
 IR Inten    --      6.6190                20.7975                17.5187

                     46                     47                     48
                      A                      A                      A
 Frequencies --    937.8595               944.7073               950.7921
 Red. masses --      1.2691                 1.3163                 1.2842
 Frc consts  --      0.6577                 0.6921                 0.6840
 IR Inten    --      0.8386                 0.3262                 0.7047

                     49                     50                     51
                      A                      A                      A
 Frequencies --    988.6607              1014.1742              1019.3013
 Red. masses --      2.3824                 1.7230                 1.7524
 Frc consts  --      1.3720                 1.0441                 1.0727
 IR Inten    --      1.4128                 1.3023                 6.7710

                     52                     53                     54
                      A                      A                      A
 Frequencies --   1030.8155              1038.2058              1041.8928
 Red. masses --      1.6583                 2.3728                 1.6476
 Frc consts  --      1.0382                 1.5069                 1.0538
 IR Inten    --      1.3517                 0.5698                11.8787

                     55                     56                     57
                      A                      A                      A
 Frequencies --   1059.5516              1074.0005              1084.8090
 Red. masses --      1.4338                 1.4822                 1.5983
 Frc consts  --      0.9484                 1.0073                 1.1082
 IR Inten    --      8.4972                10.2390                 0.2171

                     58                     59                     60
                      A                      A                      A
 Frequencies --   1100.0130              1153.8330              1155.9590
 Red. masses --      3.4623                 1.7093                 1.3398
 Frc consts  --      2.4684                 1.3408                 1.0548
 IR Inten    --      6.4775                 6.1355                 6.4985

                     61                     62                     63
                      A                      A                      A
 Frequencies --   1195.4218              1218.4201              1237.7917
 Red. masses --      1.6424                 1.1255                 1.6449
 Frc consts  --      1.3828                 0.9844                 1.4849
 IR Inten    --      4.3659                 2.4318                26.5471

                     64                     65                     66
                      A                      A                      A
 Frequencies --   1244.9970              1250.6569              1290.2528
 Red. masses --      1.9352                 2.2038                 2.8372
 Frc consts  --      1.7673                 2.0310                 2.7828
 IR Inten    --     21.3302                24.1631                27.4022

                     67                     68                     69
                      A                      A                      A
 Frequencies --   1291.7365              1329.8228              1342.2824
 Red. masses --      2.6034                 1.5422                 2.1912
 Frc consts  --      2.5594                 1.6069                 2.3260
 IR Inten    --     30.0162                 5.3957                58.9137

                     70                     71                     72
                      A                      A                      A
 Frequencies --   1353.5102              1354.4937              1372.3325
 Red. masses --      2.2239                 5.7058                 1.5346
 Frc consts  --      2.4004                 6.1676                 1.7028
 IR Inten    --      1.5026                 8.1210                25.2031

                     73                     74                     75
                      A                      A                      A
 Frequencies --   1396.5740              1422.6631              1439.3560
 Red. masses --      2.1938                 2.2691                 1.2768
 Frc consts  --      2.5210                 2.7058                 1.5585
 IR Inten    --     92.5766                10.2114                 1.8052

                     76                     77                     78
                      A                      A                      A
 Frequencies --   1442.4817              1450.6113              1459.8324
 Red. masses --      1.2495                 1.2315                 2.4335
 Frc consts  --      1.5318                 1.5268                 3.0555
 IR Inten    --      0.4816                 1.5772                 4.0215

                     79                     80                     81
                      A                      A                      A
 Frequencies --   1492.4157              1504.6412              1509.6485
 Red. masses --      1.8796                 1.0529                 1.0890
 Frc consts  --      2.4666                 1.4044                 1.4623
 IR Inten    --     14.0419                 1.2368                 3.6098

                     82                     83                     84
                      A                      A                      A
 Frequencies --   1515.2722              1517.4502              1522.0751
 Red. masses --      1.0933                 1.0975                 1.1209
 Frc consts  --      1.4790                 1.4889                 1.5299
 IR Inten    --     13.5997                10.3549                12.8839

                     85                     86                     87
                      A                      A                      A
 Frequencies --   1525.1293              1526.9870              1543.1374
 Red. masses --      1.2786                 1.1344                 1.3650
 Frc consts  --      1.7522                 1.5584                 1.9151
 IR Inten    --      9.3093                 5.6270                10.7903

                     88                     89                     90
                      A                      A                      A
 Frequencies --   1555.9041              1570.7779              1638.3528
 Red. masses --      2.5116                 2.6574                 6.2056
 Frc consts  --      3.5823                 3.8631                 9.8140
 IR Inten    --     53.4431               122.1511                13.2356

                     91                     92                     93
                      A                      A                      A
 Frequencies --   1643.0373              1675.6689              1680.5032
 Red. masses --      4.5683                 6.0391                 5.9093
 Frc consts  --      7.2660                 9.9907                 9.8325
 IR Inten    --      3.4858                14.8845                47.1015

                     94                     95                     96
                      A                      A                      A
 Frequencies --   1779.7046              3036.4653              3037.0546
 Red. masses --      7.9869                 1.0389                 1.0392
 Frc consts  --     14.9048                 5.6438                 5.6473
 IR Inten    --    453.7573                28.8869                39.6498

                     97                     98                     99
                      A                      A                      A
 Frequencies --   3044.4259              3084.8366              3089.1968
 Red. masses --      1.0431                 1.0994                 1.0977
 Frc consts  --      5.6962                 6.1642                 6.1721
 IR Inten    --     29.9906                26.5083                29.8473

                    100                    101                    102
                      A                      A                      A
 Frequencies --   3104.2580              3104.4739              3114.8559
 Red. masses --      1.0907                 1.0693                 1.1019
 Frc consts  --      6.1925                 6.0720                 6.2990
 IR Inten    --     11.9470                29.0500                18.1152

                    103                    104                    105
                      A                      A                      A
 Frequencies --   3128.2006              3137.7169              3165.9087
 Red. masses --      1.0999                 1.1016                 1.0865
 Frc consts  --      6.3415                 6.3902                 6.4162
 IR Inten    --     20.5169                10.9434                14.9921

                    106                    107                    108
                      A                      A                      A
 Frequencies --   3176.0530              3181.8175              3183.8024
 Red. masses --      1.0884                 1.0885                 1.0943
 Frc consts  --      6.4686                 6.4926                 6.5355
 IR Inten    --     20.9010                19.3887                19.9433

                    109                    110                    111
                      A                      A                      A
 Frequencies --   3186.4740              3194.7551              3207.4571
 Red. masses --      1.0977                 1.0907                 1.0939
 Frc consts  --      6.5666                 6.5589                 6.6308
 IR Inten    --      6.2046                 6.9832                 8.1362

                    112                    113                    114
                      A                      A                      A
 Frequencies --   3209.8206              3535.0326              3565.7742
 Red. masses --      1.0922                 1.0744                 1.0750
 Frc consts  --      6.6301                 7.9101                 8.0528
 IR Inten    --     13.3238                 7.2777                19.5512

 - Thermochemistry -
 -------------------
 Temperature   298.150 Kelvin.  Pressure   1.00000 Atm.
 Atom     1 has atomic number  6 and mass  12.00000

 Molecular mass:   268.15756 amu.
 Principal axes and moments of inertia in atomic units:
                           1         2         3
     Eigenvalues --  3857.229855493.190867588.07013
           X            0.99994   0.00501   0.01021
           Y           -0.00475   0.99967  -0.02533
           Z           -0.01034   0.02528   0.99963
 This molecule is an asymmetric top.
 Rotational symmetry number  1.
 Warning -- assumption of classical behavior for rotation
           may cause significant error
 Rotational temperatures (Kelvin)      0.02245     0.01577     0.01141
 Rotational constants (GHZ):           0.46789     0.32854     0.23784
 Zero-point vibrational energy     889884.2 (Joules/Mol)
                                  212.68743 (Kcal/Mol)
 Warning -- explicit consideration of  30 degrees of freedom as
           vibrations may cause significant error
 Vibrational temperatures:     24.36    60.02    75.78    88.26   103.39
          (Kelvin)            126.95   141.90   182.99   222.40   230.56
                              261.18   288.55   323.35   371.21   430.51
                              450.75   464.40   503.43   524.20   537.88
                              601.16   607.20   641.30   663.75   681.80
                              722.94   769.45   790.55   820.62   853.10
                              921.70   949.51  1007.74  1035.67  1040.57
                             1085.74  1106.45  1116.33  1167.32  1191.85
                             1196.26  1207.11  1227.61  1259.25  1274.21
                             1349.37  1359.22  1367.98  1422.46  1459.17
                             1466.55  1483.11  1493.75  1499.05  1524.46
                             1545.25  1560.80  1582.67  1660.11  1663.17
                             1719.95  1753.03  1780.91  1791.27  1799.42
                             1856.39  1858.52  1913.32  1931.24  1947.40
                             1948.81  1974.48  2009.36  2046.89  2070.91
                             2075.41  2087.11  2100.37  2147.25  2164.84
                             2172.05  2180.14  2183.27  2189.93  2194.32
                             2196.99  2220.23  2238.60  2260.00  2357.22
                             2363.96  2410.91  2417.87  2560.60  4368.80
                             4369.64  4380.25  4438.39  4444.67  4466.33
                             4466.65  4481.58  4500.78  4514.47  4555.04
                             4569.63  4577.93  4580.78  4584.63  4596.54
                             4614.82  4618.22  5086.12  5130.35

 Zero-point correction=                           0.338939 (Hartree/Particle)
 Thermal correction to Energy=                    0.358160
 Thermal correction to Enthalpy=                  0.359104
 Thermal correction to Gibbs Free Energy=         0.290488
 Sum of electronic and zero-point Energies=           -844.352039
 Sum of electronic and thermal Energies=              -844.332819
 Sum of electronic and thermal Enthalpies=            -844.331874
 Sum of electronic and thermal Free Energies=         -844.400491

                     E (Thermal)             CV                S
                      KCal/Mol        Cal/Mol-Kelvin    Cal/Mol-Kelvin
 Total                  224.749             73.823            144.415
 Electronic               0.000              0.000              0.000
 Translational            0.889              2.981             42.658
 Rotational               0.889              2.981             33.441
 Vibrational            222.971             67.861             68.316
 Vibration     1          0.593              1.986              6.965
 Vibration     2          0.594              1.981              5.176
 Vibration     3          0.596              1.977              4.714
 Vibration     4          0.597              1.973              4.413
 Vibration     5          0.598              1.967              4.102
 Vibration     6          0.601              1.957              3.699
 Vibration     7          0.604              1.950              3.481
 Vibration     8          0.611              1.926              2.988
 Vibration     9          0.620              1.898              2.615
 Vibration    10          0.622              1.891              2.547
 Vibration    11          0.630              1.865              2.313
 Vibration    12          0.638              1.839              2.128
 Vibration    13          0.649              1.803              1.921
 Vibration    14          0.667              1.749              1.675
 Vibration    15          0.692              1.675              1.421
 Vibration    16          0.701              1.648              1.345
 Vibration    17          0.708              1.630              1.296
 Vibration    18          0.727              1.575              1.167
 Vibration    19          0.738              1.546              1.104
 Vibration    20          0.745              1.526              1.064
 Vibration    21          0.781              1.432              0.899
 Vibration    22          0.784              1.422              0.885
 Vibration    23          0.805              1.370              0.809
 Vibration    24          0.819              1.336              0.762
 Vibration    25          0.831              1.308              0.727
 Vibration    26          0.858              1.245              0.652
 Vibration    27          0.890              1.173              0.577
 Vibration    28          0.905              1.141              0.545
 Vibration    29          0.926              1.095              0.504
 Vibration    30          0.950              1.047              0.462

                           ! Non-Optimized Parameters !
 Normal termination of Gaussian 16 at Mon Dec 14 14:34:55 2020.

 ----------------------------------------------------------------------
 # B3LYP/6-311++G(d,p) empiricaldispersion=gd3bj scf=xqc pop=npa geom=c
 heck
 ----------------------------------------------------------------------

 ---------------------------------------
 CID_28334178_JID_10688_Energie_neutraal
 ---------------------------------------
 Structure from the checkpoint file:  "JID_10688.chk"
 Charge =  0 Multiplicity = 1

 SCF Done:  E(RB3LYP) =  -844.920671447     A.U. after   16 cycles
 Normal termination of Gaussian 16 at Mon Dec 14 14:44:28 2020.

 ----------------------------------------------------------------------
 # B3LYP/6-311++G(d,p) empiricaldispersion=gd3bj scf=xqc pop=npa geom=c
 heck
 ----------------------------------------------------------------------

 -------------------------------------
 CID_28334178_JID_10688_Energie_kation
 -------------------------------------
 Structure from the checkpoint file:  "JID_10688.chk"
 Charge =  1 Multiplicity = 2

 SCF Done:  E(UB3LYP) =  -844.651868769     A.U. after   25 cycles
 Normal termination of Gaussian 16 at Mon Dec 14 15:05:02 2020.
 Gaussian 16:  ES64L-G16RevA.03 25-Dec-2016

 ----------------------------------------------------------------------
 # B3LYP/6-311++G(d,p) empiricaldispersion=gd3bj scf=xqc pop=npa geom=c
 heck
 ----------------------------------------------------------------------

 ------------------------------------
 CID_28334178_JID_10688_Energie_anion
 ------------------------------------
 Structure from the checkpoint file:  "JID_10688.chk"
 Charge = -1 Multiplicity = 2

                         Standard orientation:
 ---------------------------------------------------------------------
 Center     Atomic      Atomic             Coordinates (Angstroms)
 Number     Number       Type             X           Y           Z
 ---------------------------------------------------------------------
      1          6           0       -3.199727    2.505391   -0.105743
      2          6           0       -1.739934    2.195107    0.120423
      3          6           0       -1.321690    1.389903    1.186315
      4          6           0        0.024199    1.142695    1.432157
      5          6           0        1.011544    1.681975    0.594576
      6          6           0        0.601238    2.475054   -0.487076
      7          6           0       -0.749533    2.729921   -0.710736
      8          7           0        2.380389    1.480903    0.863585
      9          6           0        2.880741    0.113150    1.031685
     10          6           0        3.174934   -0.495092   -0.342609
     11          8           0        4.210939   -0.207886   -0.931238
     12          7           0        2.214964   -1.273354   -0.947227
     13          6           0        0.888758   -1.546369   -0.506788
     14          6           0       -0.191444   -1.067704   -1.251953
     15          6           0       -1.506788   -1.306288   -0.858647
     16          6           0       -1.750659   -2.029979    0.327223
     17          6           0       -0.663011   -2.512170    1.058837
     18          6           0        0.650180   -2.295157    0.644645
     19          6           0       -3.160395   -2.268929    0.804441
     20          6           0       -2.649290   -0.773398   -1.683809
     21          1           0       -3.844873    1.798277    0.426748
     22          1           0       -3.458234    3.511391    0.250723
     23          1           0       -3.462177    2.464103   -1.169130
     24          1           0       -2.065823    0.952484    1.847731
     25          1           0        0.310186    0.528316    2.279344
     26          1           0        1.350001    2.888914   -1.159065
     27          1           0       -1.037977    3.352309   -1.555184
     28          1           0        2.972665    1.984404    0.209406
     29          1           0        3.829408    0.144804    1.573448
     30          1           0        2.163077   -0.459727    1.615040
     31          1           0        2.422793   -1.444253   -1.925371
     32          1           0        0.004119   -0.464342   -2.133737
     33          1           0       -0.846833   -3.083374    1.965321
     34          1           0        1.484628   -2.707070    1.203585
     35          1           0       -3.763822   -2.789995    0.050684
     36          1           0       -3.171727   -2.870354    1.718035
     37          1           0       -3.674597   -1.323039    1.020014
     38          1           0       -3.325196   -0.157184   -1.081756
     39          1           0       -2.283810   -0.156831   -2.509448
     40          1           0       -3.251523   -1.587240   -2.108637
 ---------------------------------------------------------------------

 SCF Done:  E(UB3LYP) =  -844.909491688     A.U. after   33 cycles
 SCF Done:  E(UB3LYP) =  -844.909491688     a.u. after    1 cycles

 The electronic state is 2-A.
 Alpha  occ. eigenvalues --  -19.01474 -14.26561 -14.24153 -10.19767 -10.13032
 Alpha  occ. eigenvalues --  -10.12960 -10.12250 -10.09471 -10.09212 -10.08888
 Alpha  occ. eigenvalues --  -10.08606 -10.08541 -10.08523 -10.08358 -10.08237
 Alpha  occ. eigenvalues --  -10.08036 -10.07923 -10.07393 -10.07255 -10.07132
 Alpha  occ. eigenvalues --   -0.96621  -0.85812  -0.85013  -0.77143  -0.76074
 Alpha  occ. eigenvalues --   -0.69042  -0.68279  -0.67636  -0.65821  -0.63530
 Alpha  occ. eigenvalues --   -0.61171  -0.58969  -0.58107  -0.53088  -0.52195
 Alpha  occ. eigenvalues --   -0.51828  -0.49535  -0.48278  -0.44768  -0.44405
 Alpha  occ. eigenvalues --   -0.41339  -0.40230  -0.38671  -0.38235  -0.37492
 Alpha  occ. eigenvalues --   -0.36894  -0.35191  -0.34863  -0.34507  -0.33839
 Alpha  occ. eigenvalues --   -0.33246  -0.32706  -0.32406  -0.31931  -0.31103
 Alpha  occ. eigenvalues --   -0.30429  -0.29700  -0.29424  -0.29236  -0.28396
 Alpha  occ. eigenvalues --   -0.26806  -0.26381  -0.25938  -0.25494  -0.25099
 Alpha  occ. eigenvalues --   -0.21180  -0.20149  -0.18464  -0.16536  -0.16306
 Alpha  occ. eigenvalues --   -0.14441  -0.11959   0.03977
 Alpha virt. eigenvalues --    0.05835   0.06011   0.06352   0.06856   0.07080
 Alpha virt. eigenvalues --    0.07593   0.07782   0.07862   0.08421   0.08537
 Alpha virt. eigenvalues --    0.09007   0.09276   0.09935   0.10089   0.10717

  Beta  occ. eigenvalues --  -19.01472 -14.26556 -14.24150 -10.19766 -10.13025
  Beta  occ. eigenvalues --  -10.12959 -10.12250 -10.09468 -10.09211 -10.08880
  Beta  occ. eigenvalues --  -10.08607 -10.08534 -10.08507 -10.08354 -10.08223
  Beta  occ. eigenvalues --  -10.08022 -10.07917 -10.07360 -10.07222 -10.07086
  Beta  occ. eigenvalues --   -0.96617  -0.85804  -0.85006  -0.77129  -0.76062
  Beta  occ. eigenvalues --   -0.69021  -0.68262  -0.67612  -0.65803  -0.63510
  Beta  occ. eigenvalues --   -0.61125  -0.58919  -0.58068  -0.53064  -0.52167
  Beta  occ. eigenvalues --   -0.51787  -0.49510  -0.48254  -0.44750  -0.44376
  Beta  occ. eigenvalues --   -0.41321  -0.40217  -0.38649  -0.38196  -0.37461
  Beta  occ. eigenvalues --   -0.36880  -0.35163  -0.34834  -0.34479  -0.33815
  Beta  occ. eigenvalues --   -0.33225  -0.32677  -0.32372  -0.31913  -0.31086
  Beta  occ. eigenvalues --   -0.30394  -0.29670  -0.29380  -0.29204  -0.28379
  Beta  occ. eigenvalues --   -0.26775  -0.26345  -0.25914  -0.25460  -0.25081
  Beta  occ. eigenvalues --   -0.21171  -0.20139  -0.18458  -0.16524  -0.16295
  Beta  occ. eigenvalues --   -0.14428  -0.11952
  Beta virt. eigenvalues --    0.05963   0.06131   0.06696   0.06905   0.07050
  Beta virt. eigenvalues --    0.07132   0.07634   0.08158   0.08280   0.08648
  Beta virt. eigenvalues --    0.08781   0.09330   0.09555   0.10348   0.10574

 Mulliken charges and spin densities:
               1          2
     1  C    1.910746  -2.536062
     2  C   -0.471193   1.027911
     3  C    0.291315  -0.259620
     4  C   -0.256564   0.060335
     5  C   -0.444413  -0.401682
     6  C    0.314655  -0.065645
     7  C   -0.983046   0.404392
     8  N    0.055973   0.003749
     9  C    0.029406  -0.149885
    10  C   -0.218506   0.020611
    11  O   -0.336761   0.008255
    12  N   -0.258159   0.105006
    13  C    0.865618  -0.975147
    14  C   -0.070001   0.064264
    15  C   -1.923007   2.409064
    16  C   -2.649140   2.958381
    17  C    0.645534  -1.147383
    18  C    0.796039  -1.176751
    19  C    2.992411  -3.435279
    20  C    1.003131  -1.733371
    21  H   -0.344552   0.490668
    22  H    0.031838   0.127278
    23  H   -0.086805   0.238927
    24  H   -0.146971   0.332925
    25  H   -0.067846   0.242591
    26  H   -0.025792   0.171491
    27  H   -0.390482   0.572052
    28  H    0.240454  -0.006050
    29  H    0.109798   0.106819
    30  H    0.149824  -0.048985
    31  H    0.169511   0.121121
    32  H    0.033236   0.158731
    33  H   -0.573034   0.752876
    34  H   -0.207395   0.394052
    35  H   -0.170106   0.332291
    36  H   -0.609199   0.763481
    37  H   -0.057987   0.224444
    38  H    0.117714   0.058413
    39  H   -0.396222   0.535329
    40  H   -0.070021   0.250400
 Sum of Mulliken charges =  -1.00000   1.00000

 Dipole moment (field-independent basis, Debye):
    X=              5.7082    Y=              1.8963    Z=             -0.5475  Tot=              6.0397
 Quadrupole moment (field-independent basis, Debye-Ang):
   XX=           -204.9052   YY=           -177.4694   ZZ=           -164.9386
   XY=             -4.8813   XZ=              5.3385   YZ=              9.0106

 Summary of Natural Population Analysis:

                                       Natural Population
                Natural  -----------------------------------------------
    Atom  No    Charge         Core      Valence    Rydberg      Total
 -----------------------------------------------------------------------
      C    1   -0.29330      0.99964     2.28739    0.00627     3.29330
      C    2   -0.03156      0.99951     2.02202    0.01003     3.03156
      C    3   -0.08947      0.99951     2.08003    0.00993     3.08947
      C    4   -0.11233      0.99951     2.10347    0.00935     3.11233
      C    5    0.07724      0.99947     1.91176    0.01154     2.92276
      C    6   -0.11967      0.99952     2.11039    0.00976     3.11967
      C    7   -0.09314      0.99951     2.08382    0.00981     3.09314
      N    8   -0.31470      0.99970     2.80450    0.01050     3.81470
      C    9   -0.12688      0.99957     2.11696    0.01035     3.12688
      C   10    0.33709      0.99967     1.64141    0.02183     2.66291
      O   11   -0.32610      0.99988     3.32005    0.00617     4.32610
      N   12   -0.31310      0.99964     2.80326    0.01020     3.81310
      C   13    0.06304      0.99945     1.92584    0.01168     2.93696
      C   14   -0.09849      0.99946     2.08969    0.00934     3.09849
      C   15   -0.00441      0.99947     1.99353    0.01141     3.00441
      C   16   -0.01179      0.99947     2.00126    0.01106     3.01179
      C   17   -0.09221      0.99951     2.08220    0.01050     3.09221
      C   18   -0.11131      0.99950     2.10227    0.00953     3.11131
      C   19   -0.29435      0.99963     2.28863    0.00608     3.29435
      C   20   -0.29437      0.99963     2.28828    0.00646     3.29437
      H   21    0.10370      0.00000     0.39486    0.00144     0.39630
      H   22    0.10327      0.00000     0.39584    0.00089     0.39673
      H   23    0.10440      0.00000     0.39437    0.00123     0.39560
      H   24    0.10199      0.00000     0.39639    0.00161     0.39801
      H   25    0.10260      0.00000     0.39576    0.00163     0.39740
      H   26    0.09830      0.00000     0.40070    0.00100     0.40170
      H   27    0.10019      0.00000     0.39876    0.00105     0.39981
      H   28    0.18187      0.00000     0.31569    0.00245     0.31813
      H   29    0.10396      0.00000     0.39501    0.00103     0.39604
      H   30    0.10749      0.00000     0.39111    0.00140     0.39251
      H   31    0.19683      0.00000     0.30073    0.00244     0.30317
      H   32    0.10304      0.00000     0.39526    0.00171     0.39696
      H   33    0.10307      0.00000     0.39555    0.00138     0.39693
      H   34    0.10330      0.00000     0.39521    0.00150     0.39670
      H   35    0.10638      0.00000     0.39229    0.00133     0.39362
      H   36    0.10505      0.00000     0.39328    0.00167     0.39495
      H   37    0.10632      0.00000     0.39173    0.00195     0.39368
      H   38    0.10777      0.00000     0.39036    0.00187     0.39223
      H   39    0.10383      0.00000     0.39482    0.00135     0.39617
      H   40    0.10644      0.00000     0.39243    0.00113     0.39356
 =======================================================================
   * Total *    0.00000     19.99125    51.77691    0.23184    72.00000

 Normal termination of Gaussian 16 at Mon Dec 14 15:32:41 2020.
