 Gaussian 16, Revision A.03,

 -----------------------------------------------------------
 # opt freq B3LYP/6-31G(d) empiricaldispersion=gd3bj scf=xqc
 -----------------------------------------------------------

 -----------------------------
 CID_54173466_JID_283_neutraal
 -----------------------------
 Symbolic Z-matrix:
 Charge =  0 Multiplicity = 1

 SCF Done:  E(RB3LYP) =  -859.681098600     A.U. after   14 cycles
 SCF Done:  E(RB3LYP) =  -859.684159759     A.U. after   13 cycles
 SCF Done:  E(RB3LYP) =  -859.684864499     A.U. after   13 cycles
 SCF Done:  E(RB3LYP) =  -859.684472033     A.U. after   12 cycles
 SCF Done:  E(RB3LYP) =  -859.684990918     A.U. after   10 cycles
 SCF Done:  E(RB3LYP) =  -859.685005526     A.U. after   10 cycles
 SCF Done:  E(RB3LYP) =  -859.685006387     A.U. after    8 cycles
 SCF Done:  E(RB3LYP) =  -859.685006559     A.U. after    7 cycles
 Optimization completed.
    -- Stationary point found.
 Normal termination of Gaussian 16 at Tue Dec  8 10:21:02 2020.

 --------------------------------------------------------------------
 #N Geom=AllCheck Guess=TCheck SCRF=Check GenChk RB3LYP/6-31G(d) Freq
 --------------------------------------------------------------------

 Structure from the checkpoint file:  "JID_283.chk"
 -----------------------------
 CID_54173466_JID_283_neutraal
 -----------------------------
 Charge =  0 Multiplicity = 1

 SCF Done:  E(RB3LYP) =  -859.685006559     A.U. after    1 cycles

  Exact polarizability: 100.673  -1.545  90.123   1.522  -3.420  73.013
 Approx polarizability: 128.387  -6.316 133.513  10.508  -8.625 123.387

                      1                      2                      3
                      A                      A                      A
 Frequencies --     46.1295                84.4330               126.3329
 Red. masses --      4.3480                 3.5588                 3.7301
 Frc consts  --      0.0055                 0.0149                 0.0351
 IR Inten    --      2.4012                 6.1535                 0.0795

                      4                      5                      6
                      A                      A                      A
 Frequencies --    169.5886               216.0058               232.4835
 Red. masses --      6.5227                 1.4032                 1.9850
 Frc consts  --      0.1105                 0.0386                 0.0632
 IR Inten    --      5.0413                 0.4623                 6.9255

                      7                      8                      9
                      A                      A                      A
 Frequencies --    281.7285               304.4293               324.5601
 Red. masses --      2.7416                 2.8432                 2.6521
 Frc consts  --      0.1282                 0.1553                 0.1646
 IR Inten    --      8.0519                 3.0974                 4.7603

                     10                     11                     12
                      A                      A                      A
 Frequencies --    376.7899               428.9324               453.1837
 Red. masses --      3.1833                 2.3737                 6.1752
 Frc consts  --      0.2663                 0.2573                 0.7472
 IR Inten    --     23.4974                 1.5806                 0.7844

                     13                     14                     15
                      A                      A                      A
 Frequencies --    520.0264               542.4319               636.7602
 Red. masses --      3.2697                 2.6520                 3.2490
 Frc consts  --      0.5210                 0.4597                 0.7762
 IR Inten    --      2.7104                 7.4417                 4.7835

                     16                     17                     18
                      A                      A                      A
 Frequencies --    663.2811               763.0382               803.6852
 Red. masses --      3.9815                 2.8460                 2.7123
 Frc consts  --      1.0320                 0.9763                 1.0322
 IR Inten    --      5.5455                19.4023                 2.8205

                     19                     20                     21
                      A                      A                      A
 Frequencies --    873.8548               896.0893               902.7129
 Red. masses --      2.7205                 2.1166                 3.0356
 Frc consts  --      1.2240                 1.0014                 1.4575
 IR Inten    --      2.6516                29.0605                34.1779

                     22                     23                     24
                      A                      A                      A
 Frequencies --    930.0626               969.8450               993.5910
 Red. masses --      2.0452                 1.4950                 1.4359
 Frc consts  --      1.0423                 0.8285                 0.8352
 IR Inten    --     16.6370                 4.3531                24.2430

                     25                     26                     27
                      A                      A                      A
 Frequencies --   1035.6299              1058.2075              1083.1107
 Red. masses --      2.7127                 1.9890                 6.6894
 Frc consts  --      1.7142                 1.3123                 4.6236
 IR Inten    --      7.2732                 1.6089                89.0079

                     28                     29                     30
                      A                      A                      A
 Frequencies --   1111.3539              1126.7946              1151.3982
 Red. masses --      2.5524                 2.2372                 2.6930
 Frc consts  --      1.8574                 1.6735                 2.1034
 IR Inten    --     14.4320                96.6490                58.4881

                     31                     32                     33
                      A                      A                      A
 Frequencies --   1159.4739              1201.7481              1264.3438
 Red. masses --      3.6408                 1.6922                 1.1052
 Frc consts  --      2.8838                 1.4399                 1.0409
 IR Inten    --     27.7241                35.9292                10.7686

                     34                     35                     36
                      A                      A                      A
 Frequencies --   1285.9719              1305.0790              1338.9445
 Red. masses --      1.2036                 1.1817                 1.1956
 Frc consts  --      1.1727                 1.1859                 1.2629
 IR Inten    --     12.9165                18.0695                 5.2959

                     37                     38                     39
                      A                      A                      A
 Frequencies --   1361.9673              1378.9972              1385.7259
 Red. masses --      1.2003                 1.4566                 1.2269
 Frc consts  --      1.3118                 1.6320                 1.3881
 IR Inten    --      2.5288                 4.2911                 1.1849

                     40                     41                     42
                      A                      A                      A
 Frequencies --   1409.3974              1434.8749              1440.3871
 Red. masses --      1.2468                 1.3420                 1.3451
 Frc consts  --      1.4592                 1.6279                 1.6442
 IR Inten    --     20.4606                 7.4952                 4.3501

                     43                     44                     45
                      A                      A                      A
 Frequencies --   1474.9737              1486.7243              1497.8532
 Red. masses --      1.0971                 1.0589                 1.0562
 Frc consts  --      1.4062                 1.3790                 1.3961
 IR Inten    --      3.2215                11.0671                18.2757

                     46                     47                     48
                      A                      A                      A
 Frequencies --   1510.1943              1522.7424              1528.4362
 Red. masses --      1.0824                 1.1049                 1.0937
 Frc consts  --      1.4545                 1.5095                 1.5054
 IR Inten    --      0.6887                 6.8980                 1.6307

                     49                     50                     51
                      A                      A                      A
 Frequencies --   2999.1037              3006.6830              3016.1414
 Red. masses --      1.0707                 1.0704                 1.0677
 Frc consts  --      5.6740                 5.7015                 5.7226
 IR Inten    --     25.7203                48.2939                80.0736

                     52                     53                     54
                      A                      A                      A
 Frequencies --   3067.5396              3085.4470              3088.1783
 Red. masses --      1.0309                 1.0837                 1.0639
 Frc consts  --      5.7151                 6.0782                 5.9779
 IR Inten    --      9.9171                 6.0848                 5.6149

                     55                     56                     57
                      A                      A                      A
 Frequencies --   3110.7130              3113.0864              3119.5376
 Red. masses --      1.0946                 1.0959                 1.0948
 Frc consts  --      6.2406                 6.2577                 6.2774
 IR Inten    --     41.4739                36.0533                25.5582

                     58                     59                     60
                      A                      A                      A
 Frequencies --   3147.1536              3161.1584              3193.8834
 Red. masses --      1.1030                 1.1040                 1.1069
 Frc consts  --      6.4365                 6.5001                 6.6528
 IR Inten    --      7.8854                 8.9661                 1.1219

 - Thermochemistry -
 -------------------
 Temperature   298.150 Kelvin.  Pressure   1.00000 Atm.
 Atom     1 has atomic number  6 and mass  12.00000

 Molecular mass:   164.05072 amu.
 Principal axes and moments of inertia in atomic units:
                           1         2         3
     Eigenvalues --   759.244242574.762822902.69402
           X            0.99992   0.01144  -0.00565
           Y           -0.01158   0.99962  -0.02502
           Z            0.00536   0.02508   0.99967
 This molecule is an asymmetric top.
 Rotational symmetry number  1.
 Warning -- assumption of classical behavior for rotation
           may cause significant error
 Rotational temperatures (Kelvin)      0.11408     0.03364     0.02984
 Rotational constants (GHZ):           2.37702     0.70093     0.62175
 Zero-point vibrational energy     485701.4 (Joules/Mol)
                                  116.08542 (Kcal/Mol)
 Warning -- explicit consideration of  14 degrees of freedom as
           vibrations may cause significant error
 Vibrational temperatures:     66.37   121.48   181.76   244.00   310.78
          (Kelvin)            334.49   405.34   438.01   466.97   542.12
                              617.14   652.03   748.20   780.44   916.16
                              954.31  1097.84  1156.32  1257.28  1289.27
                             1298.80  1338.15  1395.39  1429.56  1490.04
                             1522.52  1558.35  1598.99  1621.21  1656.61
                             1668.22  1729.05  1819.11  1850.23  1877.72
                             1926.44  1959.57  1984.07  1993.75  2027.81
                             2064.46  2072.40  2122.16  2139.06  2155.08
                             2172.83  2190.89  2199.08  4315.04  4325.95
                             4339.55  4413.51  4439.27  4443.20  4475.62
                             4479.04  4488.32  4528.05  4548.20  4595.29

 Zero-point correction=                           0.184994 (Hartree/Particle)
 Thermal correction to Energy=                    0.195348
 Thermal correction to Enthalpy=                  0.196292
 Thermal correction to Gibbs Free Energy=         0.148706
 Sum of electronic and zero-point Energies=           -859.500013
 Sum of electronic and thermal Energies=              -859.489659
 Sum of electronic and thermal Enthalpies=            -859.488715
 Sum of electronic and thermal Free Energies=         -859.536301

                     E (Thermal)             CV                S
                      KCal/Mol        Cal/Mol-Kelvin    Cal/Mol-Kelvin
 Total                  122.582             38.799            100.153
 Electronic               0.000              0.000              0.000
 Translational            0.889              2.981             41.194
 Rotational               0.889              2.981             30.118
 Vibrational            120.805             32.837             28.841
 Vibration     1          0.595              1.979              4.977
 Vibration     2          0.601              1.960              3.785
 Vibration     3          0.611              1.927              3.001
 Vibration     4          0.625              1.880              2.440
 Vibration     5          0.645              1.817              1.992
 Vibration     6          0.653              1.791              1.860
 Vibration     7          0.681              1.707              1.523
 Vibration     8          0.695              1.665              1.392
 Vibration     9          0.709              1.626              1.287
 Vibration    10          0.747              1.520              1.052
 Vibration    11          0.790              1.407              0.862
 Vibration    12          0.812              1.354              0.786
 Vibration    13          0.875              1.206              0.610
 Vibration    14          0.898              1.156              0.560

 Optimization completed.
    -- Stationary point found.
 Normal termination of Gaussian 16 at Tue Dec  8 10:25:18 2020.

 ----------------------------------------------------------------------
 # B3LYP/6-311++G(d,p) empiricaldispersion=gd3bj scf=xqc pop=npa geom=c
 heck
 ----------------------------------------------------------------------

 -------------------------------------
 CID_54173466_JID_283_Energie_neutraal
 -------------------------------------
 Structure from the checkpoint file:  "JID_283.chk"
 Charge =  0 Multiplicity = 1

 SCF Done:  E(RB3LYP) =  -859.852623570     A.U. after   14 cycles
 Normal termination of Gaussian 16 at Tue Dec  8 10:27:10 2020.

 ----------------------------------------------------------------------
 # B3LYP/6-311++G(d,p) empiricaldispersion=gd3bj scf=xqc pop=npa geom=c
 heck
 ----------------------------------------------------------------------

 -----------------------------------
 CID_54173466_JID_283_Energie_kation
 -----------------------------------
 Structure from the checkpoint file:  "JID_283.chk"
 Charge =  1 Multiplicity = 2

 SCF Done:  E(UB3LYP) =  -859.542530768     A.U. after   23 cycles
 Normal termination of Gaussian 16 at Tue Dec  8 10:31:27 2020.
 Gaussian 16:  ES64L-G16RevA.03 25-Dec-2016

 ----------------------------------------------------------------------
 # B3LYP/6-311++G(d,p) empiricaldispersion=gd3bj scf=xqc pop=npa geom=c
 heck
 ----------------------------------------------------------------------

 ----------------------------------
 CID_54173466_JID_283_Energie_anion
 ----------------------------------
 Structure from the checkpoint file:  "JID_283.chk"
 Charge = -1 Multiplicity = 2

                         Standard orientation:
 ---------------------------------------------------------------------
 Center     Atomic      Atomic             Coordinates (Angstroms)
 Number     Number       Type             X           Y           Z
 ---------------------------------------------------------------------
      1          6           0        2.104379    1.572244   -0.105673
      2         16           0        2.270053   -0.223120   -0.440026
      3          8           0        2.569245   -0.906372    0.880457
      4          6           0        0.487470   -0.581339   -0.812015
      5          6           0       -0.377031   -0.574579    0.450868
      6          6           0       -1.664865   -1.381947    0.285896
      7          8           0       -2.559623   -0.737127   -0.612926
      8          6           0       -2.909838    0.545169   -0.106255
      9          6           0       -1.663854    1.404318    0.063447
     10          8           0       -0.702920    0.752863    0.890454
     11          1           0        3.095157    1.924316    0.190856
     12          1           0        1.379787    1.725016    0.695064
     13          1           0        1.788297    2.081334   -1.021785
     14          1           0        0.142609    0.105360   -1.588909
     15          1           0        0.503722   -1.588395   -1.240498
     16          1           0        0.225762   -1.001287    1.260452
     17          1           0       -2.141968   -1.496300    1.272409
     18          1           0       -1.462549   -2.375223   -0.124341
     19          1           0       -3.601955    0.994321   -0.825059
     20          1           0       -3.422261    0.438479    0.863733
     21          1           0       -1.900536    2.349212    0.561977
     22          1           0       -1.238094    1.634979   -0.924977
 ---------------------------------------------------------------------

 SCF Done:  E(UB3LYP) =  -859.838580046     A.U. after   30 cycles

 The electronic state is 2-A.
 Alpha  occ. eigenvalues --  -88.84525 -19.03306 -19.03081 -18.98139 -10.13282
 Alpha  occ. eigenvalues --  -10.12646 -10.11536 -10.11201 -10.10085 -10.08633
 Alpha  occ. eigenvalues --   -7.92243  -5.88515  -5.88385  -5.87825  -0.96362
 Alpha  occ. eigenvalues --   -0.92587  -0.91027  -0.71176  -0.67303  -0.62963
 Alpha  occ. eigenvalues --   -0.58934  -0.56302  -0.50940  -0.45658  -0.42081
 Alpha  occ. eigenvalues --   -0.39738  -0.38857  -0.38240  -0.36367  -0.34796
 Alpha  occ. eigenvalues --   -0.33989  -0.33095  -0.31503  -0.29229  -0.28981
 Alpha  occ. eigenvalues --   -0.27632  -0.27119  -0.26985  -0.25546  -0.20713
 Alpha  occ. eigenvalues --   -0.19098  -0.17251  -0.15095  -0.13296   0.04808
 Alpha virt. eigenvalues --    0.07270   0.07511   0.08325   0.09805   0.10020
 Alpha virt. eigenvalues --    0.10354   0.10919   0.11828   0.12646   0.12826
 Alpha virt. eigenvalues --    0.13437   0.13750   0.14003   0.15351   0.15929

  Beta  occ. eigenvalues --  -88.84521 -19.03299 -19.03078 -18.98132 -10.13281
  Beta  occ. eigenvalues --  -10.12633 -10.11503 -10.11152 -10.10056 -10.08584
  Beta  occ. eigenvalues --   -7.92238  -5.88512  -5.88382  -5.87810  -0.96344
  Beta  occ. eigenvalues --   -0.92571  -0.91011  -0.71143  -0.67257  -0.62901
  Beta  occ. eigenvalues --   -0.58885  -0.56241  -0.50874  -0.45572  -0.42035
  Beta  occ. eigenvalues --   -0.39707  -0.38823  -0.38197  -0.36320  -0.34740
  Beta  occ. eigenvalues --   -0.33951  -0.33037  -0.31453  -0.29183  -0.28937
  Beta  occ. eigenvalues --   -0.27595  -0.27088  -0.26966  -0.25505  -0.20683
  Beta  occ. eigenvalues --   -0.19061  -0.17233  -0.15052  -0.13252
  Beta virt. eigenvalues --    0.07313   0.08122   0.08418   0.09115   0.10488
  Beta virt. eigenvalues --    0.10676   0.10913   0.11268   0.12046   0.12969
  Beta virt. eigenvalues --    0.13356   0.13573   0.14140   0.14331   0.15404

 Mulliken charges and spin densities:
               1          2
     1  C    0.256835  -0.979939
     2  S    0.414801   0.242692
     3  O   -0.482102   0.036475
     4  C    0.678581  -1.411742
     5  C   -1.375286   1.529938
     6  C    0.495011  -1.091521
     7  O   -0.146956   0.065693
     8  C    0.796384  -1.128912
     9  C    0.634970  -0.812259
    10  O   -0.111027   0.037533
    11  H   -0.200157   0.404000
    12  H    0.133717   0.141483
    13  H   -0.532727   0.698883
    14  H   -0.253389   0.485473
    15  H   -0.018128   0.251156
    16  H    0.219450   0.058967
    17  H   -0.027333   0.169209
    18  H    0.045413   0.122012
    19  H   -0.844074   1.028114
    20  H    0.054470   0.089925
    21  H   -0.815155   0.968705
    22  H    0.076700   0.094114
 Sum of Mulliken charges =  -1.00000   1.00000

 Dipole moment (field-independent basis, Debye):
    X=              1.8422    Y=             -5.3606    Z=              2.0702  Tot=              6.0345
 Quadrupole moment (field-independent basis, Debye-Ang):
   XX=           -127.0420   YY=           -112.8084   ZZ=           -102.4709
   XY=             10.7911   XZ=             -8.6006   YZ=              6.2376

 Summary of Natural Population Analysis:

                                       Natural Population
                Natural  -----------------------------------------------
    Atom  No    Charge         Core      Valence    Rydberg      Total
 -----------------------------------------------------------------------
      C    1   -0.38055      0.99962     2.37250    0.00843     3.38055
      S    2    0.57770      4.99948     2.36728    0.05554     7.42230
      O    3   -0.48883      0.99993     3.48289    0.00600     4.48883
      C    4   -0.28777      0.99955     2.27514    0.01307     3.28777
      C    5    0.03514      0.99951     1.94979    0.01555     2.96486
      C    6   -0.01744      0.99955     2.00627    0.01161     3.01744
      O    7   -0.29847      0.99989     3.28866    0.00992     4.29847
      C    8   -0.02418      0.99958     2.01083    0.01377     3.02418
      C    9   -0.02872      0.99957     2.01453    0.01461     3.02872
      O   10   -0.30350      0.99989     3.29381    0.00980     4.30350
      H   11    0.10704      0.00000     0.39158    0.00138     0.39296
      H   12    0.12190      0.00000     0.37647    0.00163     0.37810
      H   13    0.11205      0.00000     0.38338    0.00457     0.38795
      H   14    0.11745      0.00000     0.37906    0.00348     0.38255
      H   15    0.10973      0.00000     0.38863    0.00164     0.39027
      H   16    0.11241      0.00000     0.38607    0.00152     0.38759
      H   17    0.08212      0.00000     0.41655    0.00133     0.41788
      H   18    0.09339      0.00000     0.40535    0.00127     0.40661
      H   19    0.09934      0.00000     0.39785    0.00281     0.40066
      H   20    0.07754      0.00000     0.42086    0.00160     0.42246
      H   21    0.09855      0.00000     0.39880    0.00265     0.40145
      H   22    0.08511      0.00000     0.41022    0.00467     0.41489
 =======================================================================
   * Total *   -0.00000     13.99660    29.81653    0.18687    44.00000

 Normal termination of Gaussian 16 at Tue Dec  8 10:39:22 2020.
