 Gaussian 16, Revision A.03,

 -----------------------------------------------------------
 # opt freq B3LYP/6-31G(d) empiricaldispersion=gd3bj scf=xqc
 -----------------------------------------------------------

 ------------------------------
 CID_10583102_JID_2635_neutraal
 ------------------------------
 Symbolic Z-matrix:
 Charge =  0 Multiplicity = 1

 SCF Done:  E(RB3LYP) =  -552.375035700     A.U. after   15 cycles
 SCF Done:  E(RB3LYP) =  -552.381888121     A.U. after   13 cycles
 SCF Done:  E(RB3LYP) =  -552.382615458     A.U. after   12 cycles
 SCF Done:  E(RB3LYP) =  -552.382660291     A.U. after   11 cycles
 SCF Done:  E(RB3LYP) =  -552.382661274     A.U. after   10 cycles
 SCF Done:  E(RB3LYP) =  -552.382669387     A.U. after    9 cycles
 SCF Done:  E(RB3LYP) =  -552.382669706     A.U. after    7 cycles
 Optimization completed.
    -- Stationary point found.
 Normal termination of Gaussian 16 at Wed Dec  9 17:45:13 2020.

 --------------------------------------------------------------------
 #N Geom=AllCheck Guess=TCheck SCRF=Check GenChk RB3LYP/6-31G(d) Freq
 --------------------------------------------------------------------

 Structure from the checkpoint file:  "JID_2635.chk"
 ------------------------------
 CID_10583102_JID_2635_neutraal
 ------------------------------
 Charge =  0 Multiplicity = 1

 SCF Done:  E(RB3LYP) =  -552.382669706     A.U. after    1 cycles

  Exact polarizability: 168.344  -1.976 107.976  -0.001   0.001  41.896
 Approx polarizability: 258.925 -13.526 194.360  -0.000   0.001  64.838

                      1                      2                      3
                      A                      A                      A
 Frequencies --     58.5077                68.0943               137.0491
 Red. masses --      7.2377                 4.8511                 6.2448
 Frc consts  --      0.0146                 0.0133                 0.0691
 IR Inten    --      0.0243                 3.0572                 3.0766

                      4                      5                      6
                      A                      A                      A
 Frequencies --    169.1891               269.7826               276.4447
 Red. masses --      3.7480                 4.2360                11.8788
 Frc consts  --      0.0632                 0.1816                 0.5349
 IR Inten    --      4.3885                 0.0272                 3.7618

                      7                      8                      9
                      A                      A                      A
 Frequencies --    359.2211               372.1812               404.3904
 Red. masses --      7.3403                 6.1682                 5.0373
 Frc consts  --      0.5581                 0.5034                 0.4853
 IR Inten    --      3.6234                 2.4565                11.0101

                     10                     11                     12
                      A                      A                      A
 Frequencies --    419.0328               528.7302               613.8235
 Red. masses --      3.1039                 3.1862                 3.9410
 Frc consts  --      0.3211                 0.5248                 0.8749
 IR Inten    --      0.1322                 1.3164                 1.9715

                     13                     14                     15
                      A                      A                      A
 Frequencies --    631.9274               681.4106               692.3828
 Red. masses --      6.3999                 7.4765                 3.7295
 Frc consts  --      1.5058                 2.0453                 1.0534
 IR Inten    --      0.2094                 5.4794                 0.8403

                     16                     17                     18
                      A                      A                      A
 Frequencies --    706.1370               773.9875               808.6004
 Red. masses --      2.1228                 1.6751                 7.3904
 Frc consts  --      0.6237                 0.5912                 2.8470
 IR Inten    --     18.2264                49.4070                 9.0652

                     19                     20                     21
                      A                      A                      A
 Frequencies --    847.1690               860.1735               915.5098
 Red. masses --      1.2538                 8.6325                 1.4045
 Frc consts  --      0.5302                 3.7632                 0.6936
 IR Inten    --      0.1225                 7.7096                 5.9092

                     22                     23                     24
                      A                      A                      A
 Frequencies --    968.9960               985.0639              1001.4651
 Red. masses --      1.3223                 7.1399                 1.2603
 Frc consts  --      0.7315                 4.0820                 0.7447
 IR Inten    --      0.2962                50.0817                 0.8345

                     25                     26                     27
                      A                      A                      A
 Frequencies --   1012.3855              1018.7893              1059.6089
 Red. masses --      1.7135                 6.0899                 2.2631
 Frc consts  --      1.0347                 3.7242                 1.4971
 IR Inten    --      0.0471                 0.0067                 2.5935

                     28                     29                     30
                      A                      A                      A
 Frequencies --   1106.6771              1126.9168              1146.9518
 Red. masses --      2.1234                 3.6469                 1.1526
 Frc consts  --      1.5322                 2.7287                 0.8933
 IR Inten    --     10.9259                56.5851                 1.9143

                     31                     32                     33
                      A                      A                      A
 Frequencies --   1154.1301              1196.0148              1216.5591
 Red. masses --      2.7797                 1.0939                 1.1430
 Frc consts  --      2.1815                 0.9219                 0.9967
 IR Inten    --     42.1232                 0.3808                 0.3622

                     34                     35                     36
                      A                      A                      A
 Frequencies --   1285.1099              1359.7679              1376.6887
 Red. masses --      1.7288                 4.0727                 1.5870
 Frc consts  --      1.6822                 4.4367                 1.7721
 IR Inten    --      4.5066                 1.7827                 0.2651

                     37                     38                     39
                      A                      A                      A
 Frequencies --   1412.6363              1510.4426              1528.7784
 Red. masses --      4.5516                 2.3761                 1.1197
 Frc consts  --      5.3515                 3.1939                 1.5419
 IR Inten    --     80.3697                 4.0996                17.0582

                     40                     41                     42
                      A                      A                      A
 Frequencies --   1551.6587              1642.9262              1663.2058
 Red. masses --      2.4476                 5.8508                 5.4363
 Frc consts  --      3.4721                 9.3048                 8.8602
 IR Inten    --     70.9980                 4.3413                19.0549

                     43                     44                     45
                      A                      A                      A
 Frequencies --   1855.7526              1928.4553              3061.1519
 Red. masses --     12.5894                13.0429                 1.0543
 Frc consts  --     25.5443                28.5788                 5.8206
 IR Inten    --    523.2725               419.5316                26.6629

                     46                     47                     48
                      A                      A                      A
 Frequencies --   3112.6360              3191.2267              3199.5829
 Red. masses --      1.1108                 1.0854                 1.0890
 Frc consts  --      6.3405                 6.5127                 6.5685
 IR Inten    --     16.0676                 1.9473                 8.6562

                     49                     50                     51
                      A                      A                      A
 Frequencies --   3209.1481              3218.1439              3247.1174
 Red. masses --      1.0926                 1.0973                 1.0932
 Frc consts  --      6.6298                 6.6956                 6.7911
 IR Inten    --     24.0930                16.1282                 1.6901

 - Thermochemistry -
 -------------------
 Temperature   298.150 Kelvin.  Pressure   1.00000 Atm.
 Atom     1 has atomic number  6 and mass  12.00000

 Molecular mass:   161.04768 amu.
 Principal axes and moments of inertia in atomic units:
                           1         2         3
     Eigenvalues --   705.371023176.674343870.38972
           X            0.99997   0.00709  -0.00000
           Y           -0.00709   0.99997   0.00000
           Z            0.00000  -0.00000   1.00000
 This molecule is an asymmetric top.
 Rotational symmetry number  1.
 Warning -- assumption of classical behavior for rotation
           may cause significant error
 Rotational temperatures (Kelvin)      0.12279     0.02727     0.02238
 Rotational constants (GHZ):           2.55857     0.56812     0.46629
 Zero-point vibrational energy     376475.2 (Joules/Mol)
                                   89.97972 (Kcal/Mol)
 Warning -- explicit consideration of  12 degrees of freedom as
           vibrations may cause significant error
 Vibrational temperatures:     84.18    97.97   197.18   243.43   388.16
          (Kelvin)            397.74   516.84   535.49   581.83   602.89
                              760.72   883.16   909.20   980.40   996.18
                             1015.97  1113.60  1163.40  1218.89  1237.60
                             1317.21  1394.17  1417.29  1440.88  1456.60
                             1465.81  1524.54  1592.26  1621.38  1650.21
                             1660.54  1720.80  1750.36  1848.99  1956.40
                             1980.75  2032.47  2173.19  2199.57  2232.49
                             2363.80  2392.98  2670.01  2774.62  4404.31
                             4478.39  4591.46  4603.49  4617.25  4630.19
                             4671.88

 Zero-point correction=                           0.143392 (Hartree/Particle)
 Thermal correction to Energy=                    0.152890
 Thermal correction to Enthalpy=                  0.153834
 Thermal correction to Gibbs Free Energy=         0.107695
 Sum of electronic and zero-point Energies=           -552.239278
 Sum of electronic and thermal Energies=              -552.229780
 Sum of electronic and thermal Enthalpies=            -552.228835
 Sum of electronic and thermal Free Energies=         -552.274975

                     E (Thermal)             CV                S
                      KCal/Mol        Cal/Mol-Kelvin    Cal/Mol-Kelvin
 Total                   95.940             36.197             97.109
 Electronic               0.000              0.000              0.000
 Translational            0.889              2.981             41.138
 Rotational               0.889              2.981             30.540
 Vibrational             94.163             30.236             25.431
 Vibration     1          0.596              1.974              4.507
 Vibration     2          0.598              1.969              4.208
 Vibration     3          0.614              1.916              2.845
 Vibration     4          0.625              1.880              2.444
 Vibration     5          0.674              1.729              1.598
 Vibration     6          0.678              1.717              1.556
 Vibration     7          0.734              1.556              1.125
 Vibration     8          0.744              1.529              1.071
 Vibration     9          0.770              1.461              0.947
 Vibration    10          0.782              1.429              0.895
 Vibration    11          0.884              1.186              0.590
 Vibration    12          0.973              1.003              0.426

 Optimization completed.
    -- Stationary point found.
 Normal termination of Gaussian 16 at Wed Dec  9 17:49:48 2020.

 ----------------------------------------------------------------------
 # B3LYP/6-311++G(d,p) empiricaldispersion=gd3bj scf=xqc pop=npa geom=c
 heck
 ----------------------------------------------------------------------

 --------------------------------------
 CID_10583102_JID_2635_Energie_neutraal
 --------------------------------------
 Structure from the checkpoint file:  "JID_2635.chk"
 Charge =  0 Multiplicity = 1

 SCF Done:  E(RB3LYP) =  -552.534976317     A.U. after   15 cycles
 Normal termination of Gaussian 16 at Wed Dec  9 17:52:39 2020.

 ----------------------------------------------------------------------
 # B3LYP/6-311++G(d,p) empiricaldispersion=gd3bj scf=xqc pop=npa geom=c
 heck
 ----------------------------------------------------------------------

 ------------------------------------
 CID_10583102_JID_2635_Energie_kation
 ------------------------------------
 Structure from the checkpoint file:  "JID_2635.chk"
 Charge =  1 Multiplicity = 2

 SCF Done:  E(UB3LYP) =  -552.221078987     A.U. after   25 cycles
 Normal termination of Gaussian 16 at Wed Dec  9 17:56:54 2020.
 Gaussian 16:  ES64L-G16RevA.03 25-Dec-2016

 ----------------------------------------------------------------------
 # B3LYP/6-311++G(d,p) empiricaldispersion=gd3bj scf=xqc pop=npa geom=c
 heck
 ----------------------------------------------------------------------

 -----------------------------------
 CID_10583102_JID_2635_Energie_anion
 -----------------------------------
 Structure from the checkpoint file:  "JID_2635.chk"
 Charge = -1 Multiplicity = 2

                         Standard orientation:
 ---------------------------------------------------------------------
 Center     Atomic      Atomic             Coordinates (Angstroms)
 Number     Number       Type             X           Y           Z
 ---------------------------------------------------------------------
      1          6           0       -1.567716   -1.363986    0.000133
      2          6           0       -2.744495   -0.346042    0.000022
      3          8           0       -3.936439   -0.428375   -0.000158
      4          6           0       -1.684132    0.794959    0.000033
      5          8           0       -1.649956    2.001315   -0.000093
      6          7           0       -0.689549   -0.184904    0.000127
      7          6           0        0.704214   -0.112387    0.000061
      8          6           0        1.344179    1.138439    0.000093
      9          6           0        2.734293    1.188790    0.000022
     10          6           0        3.494737    0.016355   -0.000074
     11          6           0        2.851289   -1.221352   -0.000100
     12          6           0        1.460012   -1.293007   -0.000032
     13          1           0       -1.491642   -1.984809   -0.899647
     14          1           0       -1.491725   -1.984753    0.899955
     15          1           0        0.746646    2.041597    0.000163
     16          1           0        3.228119    2.156110    0.000046
     17          1           0        4.579160    0.068208   -0.000125
     18          1           0        3.431958   -2.139125   -0.000174
     19          1           0        0.961206   -2.257040   -0.000050
 ---------------------------------------------------------------------

 SCF Done:  E(UB3LYP) =  -552.566786703     A.U. after   20 cycles

 The electronic state is 2-A.
 Alpha  occ. eigenvalues --  -18.93789 -18.93380 -14.20506 -10.09423 -10.08709
 Alpha  occ. eigenvalues --  -10.07001 -10.06924 -10.05797 -10.05518 -10.04932
 Alpha  occ. eigenvalues --  -10.04468 -10.04040  -0.89315  -0.87399  -0.82067
 Alpha  occ. eigenvalues --   -0.73187  -0.64655  -0.62821  -0.55877  -0.52507
 Alpha  occ. eigenvalues --   -0.48317  -0.45355  -0.38937  -0.36419  -0.35150
 Alpha  occ. eigenvalues --   -0.34428  -0.32301  -0.31748  -0.30880  -0.29595
 Alpha  occ. eigenvalues --   -0.26328  -0.26069  -0.25734  -0.24273  -0.23977
 Alpha  occ. eigenvalues --   -0.22615  -0.21882  -0.17314  -0.14358  -0.13887
 Alpha  occ. eigenvalues --   -0.09094  -0.07336   0.03502
 Alpha virt. eigenvalues --    0.07889   0.09272   0.10273   0.10369   0.11611
 Alpha virt. eigenvalues --    0.12129   0.12695   0.13440   0.14780   0.16132
 Alpha virt. eigenvalues --    0.16247   0.16948   0.18546   0.18556   0.19070

  Beta  occ. eigenvalues --  -18.93149 -18.92970 -14.20496 -10.09209 -10.08649
  Beta  occ. eigenvalues --  -10.07035 -10.06563 -10.05821 -10.05551 -10.04869
  Beta  occ. eigenvalues --  -10.04314 -10.03957  -0.88542  -0.86385  -0.81723
  Beta  occ. eigenvalues --   -0.73017  -0.64300  -0.62696  -0.55598  -0.52054
  Beta  occ. eigenvalues --   -0.48234  -0.45037  -0.38616  -0.36160  -0.34833
  Beta  occ. eigenvalues --   -0.33715  -0.31881  -0.31517  -0.30772  -0.29357
  Beta  occ. eigenvalues --   -0.25862  -0.25593  -0.25314  -0.23812  -0.22636
  Beta  occ. eigenvalues --   -0.22545  -0.19199  -0.16046  -0.13885  -0.13530
  Beta  occ. eigenvalues --   -0.08150  -0.06764
  Beta virt. eigenvalues --    0.07868   0.09247   0.10039   0.10254   0.10508
  Beta virt. eigenvalues --    0.11608   0.12507   0.13425   0.14584   0.14760
  Beta virt. eigenvalues --    0.16129   0.16266   0.16979   0.18585   0.18606

 Mulliken charges and spin densities:
               1          2
     1  C   -0.190030   0.012576
     2  C   -0.055819   0.255076
     3  O   -0.443520   0.220407
     4  C    0.027541   0.182684
     5  O   -0.468921   0.145977
     6  N    0.129799  -0.027446
     7  C   -0.026437   0.014419
     8  C   -0.213125   0.055784
     9  C   -0.263681  -0.028431
    10  C   -0.446969   0.122000
    11  C   -0.241286  -0.013070
    12  C    0.250469   0.056585
    13  H    0.124142   0.010149
    14  H    0.124180   0.010138
    15  H    0.204270  -0.005960
    16  H    0.137715   0.001492
    17  H    0.094266  -0.009751
    18  H    0.134390   0.000728
    19  H    0.123016  -0.003357
 Sum of Mulliken charges =  -1.00000   1.00000

 Dipole moment (field-independent basis, Debye):
    X=              7.3679    Y=             -3.2171    Z=              0.0005  Tot=              8.0396
 Quadrupole moment (field-independent basis, Debye-Ang):
   XX=           -121.9719   YY=            -80.8111   ZZ=            -75.9914
   XY=              4.6851   XZ=             -0.0020   YZ=              0.0006

 Summary of Natural Population Analysis:

                                       Natural Population
                Natural  -----------------------------------------------
    Atom  No    Charge         Core      Valence    Rydberg      Total
 -----------------------------------------------------------------------
      C    1   -0.12839      0.99965     2.12031    0.00844     3.12839
      C    2    0.29320      0.99968     1.68261    0.02451     2.70680
      O    3   -0.21588      0.99986     3.20839    0.00764     4.21588
      C    4    0.33241      0.99965     1.64176    0.02618     2.66759
      O    5   -0.27136      0.99986     3.26471    0.00679     4.27136
      N    6   -0.24260      0.99963     2.73456    0.00841     3.74260
      C    7    0.09751      0.99950     1.89281    0.01018     2.90249
      C    8   -0.10040      0.99954     2.09234    0.00852     3.10040
      C    9   -0.10870      0.99958     2.10018    0.00894     3.10870
      C   10   -0.10138      0.99958     2.09164    0.01016     3.10138
      C   11   -0.11016      0.99958     2.10131    0.00927     3.11016
      C   12   -0.11187      0.99954     2.10442    0.00791     3.11187
      H   13    0.08810      0.00000     0.40966    0.00224     0.41190
      H   14    0.08810      0.00000     0.40966    0.00224     0.41190
      H   15    0.11753      0.00000     0.38079    0.00168     0.38247
      H   16    0.09313      0.00000     0.40589    0.00098     0.40687
      H   17    0.09001      0.00000     0.40896    0.00103     0.40999
      H   18    0.09199      0.00000     0.40698    0.00103     0.40801
      H   19    0.09874      0.00000     0.40028    0.00098     0.40126
 =======================================================================
   * Total *    0.00000     11.99564    29.85725    0.14711    42.00000

 Normal termination of Gaussian 16 at Wed Dec  9 18:00:33 2020.
