 Gaussian 16, Revision A.03,

 -----------------------------------------------------------
 # opt freq B3LYP/6-31G(d) empiricaldispersion=gd3bj scf=xqc
 -----------------------------------------------------------

 ------------------------------
 CID_75465221_JID_2066_neutraal
 ------------------------------
 Symbolic Z-matrix:
 Charge =  0 Multiplicity = 1

 SCF Done:  E(RB3LYP) =  -567.010302321     A.U. after   15 cycles
 SCF Done:  E(RB3LYP) =  -567.019406378     A.U. after   13 cycles
 SCF Done:  E(RB3LYP) =  -567.021993482     A.U. after   13 cycles
 SCF Done:  E(RB3LYP) =  -567.022515965     A.U. after   13 cycles
 SCF Done:  E(RB3LYP) =  -567.023258313     A.U. after   12 cycles
 SCF Done:  E(RB3LYP) =  -567.023665598     A.U. after   12 cycles
 SCF Done:  E(RB3LYP) =  -567.023827698     A.U. after   12 cycles
 SCF Done:  E(RB3LYP) =  -567.023860430     A.U. after   10 cycles
 SCF Done:  E(RB3LYP) =  -567.023870404     A.U. after    9 cycles
 SCF Done:  E(RB3LYP) =  -567.023872003     A.U. after    9 cycles
 Optimization completed.
    -- Stationary point found.
 Normal termination of Gaussian 16 at Wed Dec  9 16:45:45 2020.

 --------------------------------------------------------------------
 #N Geom=AllCheck Guess=TCheck SCRF=Check GenChk RB3LYP/6-31G(d) Freq
 --------------------------------------------------------------------

 Structure from the checkpoint file:  "JID_2066.chk"
 ------------------------------
 CID_75465221_JID_2066_neutraal
 ------------------------------
 Charge =  0 Multiplicity = 1

 SCF Done:  E(RB3LYP) =  -567.023872003     A.U. after    1 cycles

  Exact polarizability: 148.647   7.705  98.078   0.369   1.521  58.247
 Approx polarizability: 214.888  23.440 159.923   1.030   3.758  89.147

                      1                      2                      3
                      A                      A                      A
 Frequencies --     51.4658                82.8876               134.0146
 Red. masses --      3.4125                 3.8780                 3.3354
 Frc consts  --      0.0053                 0.0157                 0.0353
 IR Inten    --      0.1138                 1.3462                 1.0635

                      4                      5                      6
                      A                      A                      A
 Frequencies --    157.4985               169.0862               227.5849
 Red. masses --      4.6600                 4.1972                 4.7202
 Frc consts  --      0.0681                 0.0707                 0.1440
 IR Inten    --      1.9208                 1.8368                 1.0927

                      7                      8                      9
                      A                      A                      A
 Frequencies --    256.2350               341.6111               411.2038
 Red. masses --      1.6470                 5.5970                 6.1578
 Frc consts  --      0.0637                 0.3848                 0.6135
 IR Inten    --      0.0736                 0.5554                 5.5713

                     10                     11                     12
                      A                      A                      A
 Frequencies --    423.3088               535.5157               584.3522
 Red. masses --      5.5477                 6.3654                 1.8169
 Frc consts  --      0.5857                 1.0755                 0.3655
 IR Inten    --      0.3313                 7.0155                 1.2727

                     13                     14                     15
                      A                      A                      A
 Frequencies --    603.8190               653.3135               662.0356
 Red. masses --      8.8055                 6.8971                 1.4347
 Frc consts  --      1.8916                 1.7344                 0.3705
 IR Inten    --      1.2190                10.1934                96.6782

                     16                     17                     18
                      A                      A                      A
 Frequencies --    734.7305               752.9923               762.9935
 Red. masses --      4.8894                 2.9955                 4.6704
 Frc consts  --      1.5551                 1.0007                 1.6019
 IR Inten    --     21.1635                 5.1809                 1.7665

                     19                     20                     21
                      A                      A                      A
 Frequencies --    837.9263               867.9116               887.6778
 Red. masses --      1.3841                 1.7700                 1.9675
 Frc consts  --      0.5726                 0.7855                 0.9134
 IR Inten    --     14.4431                 3.6757                 2.4930

                     22                     23                     24
                      A                      A                      A
 Frequencies --    906.8892               929.9224               940.2410
 Red. masses --      4.9890                 2.4348                 1.4897
 Frc consts  --      2.4175                 1.2405                 0.7759
 IR Inten    --     19.5137                 5.5739                 0.9101

                     25                     26                     27
                      A                      A                      A
 Frequencies --    990.3042              1005.1088              1037.4148
 Red. masses --      1.6238                 5.0110                 3.5469
 Frc consts  --      0.9382                 2.9827                 2.2491
 IR Inten    --      0.5705                 5.6655                28.9167

                     28                     29                     30
                      A                      A                      A
 Frequencies --   1066.4135              1155.5534              1179.0089
 Red. masses --      2.1011                 1.6635                 3.3104
 Frc consts  --      1.4079                 1.3087                 2.7112
 IR Inten    --     10.1841                 6.2266                 0.8857

                     31                     32                     33
                      A                      A                      A
 Frequencies --   1187.7696              1211.0371              1215.0014
 Red. masses --      2.4209                 1.5785                 1.5787
 Frc consts  --      2.0123                 1.3640                 1.3731
 IR Inten    --     27.5641                14.5084                 6.3835

                     34                     35                     36
                      A                      A                      A
 Frequencies --   1262.6888              1275.2803              1304.1763
 Red. masses --      1.3579                 1.5545                 2.2576
 Frc consts  --      1.2756                 1.4895                 2.2624
 IR Inten    --      3.2881                45.6748                69.6656

                     37                     38                     39
                      A                      A                      A
 Frequencies --   1338.6146              1368.7167              1384.0879
 Red. masses --      1.3529                 1.2666                 1.4930
 Frc consts  --      1.4283                 1.3981                 1.6851
 IR Inten    --      1.0818                 3.9750                 4.1330

                     40                     41                     42
                      A                      A                      A
 Frequencies --   1389.0835              1399.2147              1434.6037
 Red. masses --      1.5045                 1.6706                 1.7511
 Frc consts  --      1.7104                 1.9271                 2.1234
 IR Inten    --     57.7259                76.5539                10.0271

                     43                     44                     45
                      A                      A                      A
 Frequencies --   1520.2867              1524.4678              1531.4344
 Red. masses --      1.1047                 1.4724                 2.5600
 Frc consts  --      1.5043                 2.0162                 3.5374
 IR Inten    --      4.9423               107.3499                42.9017

                     46                     47                     48
                      A                      A                      A
 Frequencies --   1543.8011              1555.2248              1573.4928
 Red. masses --      1.0823                 1.1864                 4.2458
 Frc consts  --      1.5198                 1.6907                 6.1936
 IR Inten    --      2.1889                85.0710               233.7708

                     49                     50                     51
                      A                      A                      A
 Frequencies --   1653.9284              1824.6942              3023.5823
 Red. masses --      6.6377                 9.7568                 1.0681
 Frc consts  --     10.6979                19.1397                 5.7530
 IR Inten    --    524.1091               573.8347                45.9116

                     52                     53                     54
                      A                      A                      A
 Frequencies --   3051.9661              3065.6611              3071.5457
 Red. masses --      1.0725                 1.0695                 1.0646
 Frc consts  --      5.8858                 5.9222                 5.9176
 IR Inten    --     19.6012                17.8141                18.2915

                     55                     56                     57
                      A                      A                      A
 Frequencies --   3090.4228              3126.4093              3129.9814
 Red. masses --      1.0934                 1.0961                 1.0977
 Frc consts  --      6.1524                 6.3124                 6.3359
 IR Inten    --     36.4875                27.3618                13.6416

                     58                     59                     60
                      A                      A                      A
 Frequencies --   3135.9800              3235.0565              3608.9845
 Red. masses --      1.1033                 1.0915                 1.0793
 Frc consts  --      6.3925                 6.7302                 8.2824
 IR Inten    --     33.3427                 4.6096                67.4651

 - Thermochemistry -
 -------------------
 Temperature   298.150 Kelvin.  Pressure   1.00000 Atm.
 Atom     1 has atomic number  6 and mass  12.00000

 Molecular mass:   166.08546 amu.
 Principal axes and moments of inertia in atomic units:
                           1         2         3
     Eigenvalues --   779.734813155.319203867.77630
           X            0.99996  -0.00873  -0.00035
           Y            0.00873   0.99996  -0.00299
           Z            0.00037   0.00298   1.00000
 This molecule is an asymmetric top.
 Rotational symmetry number  1.
 Warning -- assumption of classical behavior for rotation
           may cause significant error
 Rotational temperatures (Kelvin)      0.11108     0.02745     0.02239
 Rotational constants (GHZ):           2.31456     0.57197     0.46661
 Zero-point vibrational energy     474835.0 (Joules/Mol)
                                  113.48829 (Kcal/Mol)
 Warning -- explicit consideration of  13 degrees of freedom as
           vibrations may cause significant error
 Vibrational temperatures:     74.05   119.26   192.82   226.61   243.28
          (Kelvin)            327.44   368.67   491.50   591.63   609.05
                              770.49   840.75   868.76   939.97   952.52
                             1057.11  1083.39  1097.78  1205.59  1248.73
                             1277.17  1304.81  1337.95  1352.80  1424.83
                             1446.13  1492.61  1534.33  1662.58  1696.33
                             1708.94  1742.41  1748.12  1816.73  1834.84
                             1876.42  1925.97  1969.28  1991.39  1998.58
                             2013.16  2064.07  2187.35  2193.37  2203.39
                             2221.19  2237.62  2263.91  2379.63  2625.33
                             4350.26  4391.10  4410.80  4419.27  4446.43
                             4498.21  4503.35  4511.98  4654.52  5192.52

 Zero-point correction=                           0.180855 (Hartree/Particle)
 Thermal correction to Energy=                    0.190891
 Thermal correction to Enthalpy=                  0.191835
 Thermal correction to Gibbs Free Energy=         0.144505
 Sum of electronic and zero-point Energies=           -566.843017
 Sum of electronic and thermal Energies=              -566.832981
 Sum of electronic and thermal Enthalpies=            -566.832037
 Sum of electronic and thermal Free Energies=         -566.879367

                     E (Thermal)             CV                S
                      KCal/Mol        Cal/Mol-Kelvin    Cal/Mol-Kelvin
 Total                  119.786             38.017             99.615
 Electronic               0.000              0.000              0.000
 Translational            0.889              2.981             41.230
 Rotational               0.889              2.981             30.632
 Vibrational            118.008             32.055             27.753
 Vibration     1          0.596              1.977              4.760
 Vibration     2          0.600              1.961              3.821
 Vibration     3          0.613              1.919              2.888
 Vibration     4          0.621              1.894              2.580
 Vibration     5          0.625              1.881              2.446
 Vibration     6          0.651              1.799              1.898
 Vibration     7          0.666              1.752              1.687
 Vibration     8          0.721              1.592              1.205
 Vibration     9          0.775              1.446              0.922
 Vibration    10          0.785              1.420              0.881
 Vibration    11          0.891              1.171              0.575
 Vibration    12          0.941              1.065              0.477
 Vibration    13          0.962              1.024              0.443

                           ! Non-Optimized Parameters !
 Normal termination of Gaussian 16 at Wed Dec  9 16:50:26 2020.

 ----------------------------------------------------------------------
 # B3LYP/6-311++G(d,p) empiricaldispersion=gd3bj scf=xqc pop=npa geom=c
 heck
 ----------------------------------------------------------------------

 --------------------------------------
 CID_75465221_JID_2066_Energie_neutraal
 --------------------------------------
 Structure from the checkpoint file:  "JID_2066.chk"
 Charge =  0 Multiplicity = 1

 SCF Done:  E(RB3LYP) =  -567.182647718     A.U. after   15 cycles
 Normal termination of Gaussian 16 at Wed Dec  9 16:52:13 2020.

 ----------------------------------------------------------------------
 # B3LYP/6-311++G(d,p) empiricaldispersion=gd3bj scf=xqc pop=npa geom=c
 heck
 ----------------------------------------------------------------------

 ------------------------------------
 CID_75465221_JID_2066_Energie_kation
 ------------------------------------
 Structure from the checkpoint file:  "JID_2066.chk"
 Charge =  1 Multiplicity = 2

 SCF Done:  E(UB3LYP) =  -566.864957077     A.U. after   33 cycles
 SCF Done:  E(UB3LYP) =  -566.864972703     a.u. after    3 cycles
 Normal termination of Gaussian 16 at Wed Dec  9 17:04:31 2020.
 Gaussian 16:  ES64L-G16RevA.03 25-Dec-2016

 ----------------------------------------------------------------------
 # B3LYP/6-311++G(d,p) empiricaldispersion=gd3bj scf=xqc pop=npa geom=c
 heck
 ----------------------------------------------------------------------

 -----------------------------------
 CID_75465221_JID_2066_Energie_anion
 -----------------------------------
 Structure from the checkpoint file:  "JID_2066.chk"
 Charge = -1 Multiplicity = 2

                         Standard orientation:
 ---------------------------------------------------------------------
 Center     Atomic      Atomic             Coordinates (Angstroms)
 Number     Number       Type             X           Y           Z
 ---------------------------------------------------------------------
      1          6           0        3.190032   -0.975155    0.302632
      2          6           0        3.400001    0.423348   -0.298568
      3          6           0        2.075644    1.140144    0.002409
      4          7           0        1.095271    0.049672   -0.005745
      5          6           0        1.721679   -1.279908   -0.015069
      6          6           0       -0.245985    0.197685    0.002170
      7          7           0       -0.995879   -0.890167   -0.047866
      8          6           0       -2.363399   -0.755591   -0.036048
      9          8           0       -3.173119   -1.665592   -0.069138
     10          7           0       -2.845842    0.581030    0.015957
     11          7           0       -2.114714    1.691460    0.076224
     12          6           0       -0.824863    1.528461    0.070837
     13          1           0        3.869133   -1.725564   -0.110243
     14          1           0        3.340339   -0.945001    1.388182
     15          1           0        3.540911    0.349218   -1.382903
     16          1           0        4.260243    0.953770    0.118252
     17          1           0        2.100907    1.633072    0.984730
     18          1           0        1.832122    1.897338   -0.750089
     19          1           0        1.596439   -1.744722   -1.001382
     20          1           0        1.230104   -1.928823    0.712934
     21          1           0       -3.850114    0.708895    0.024174
     22          1           0       -0.225637    2.428690    0.129273
 ---------------------------------------------------------------------

 SCF Done:  E(UB3LYP) =  -567.189258003     A.U. after   31 cycles

 The electronic state is 2-A.
 Alpha  occ. eigenvalues --  -18.93291 -14.21984 -14.20542 -14.18543 -14.13453
 Alpha  occ. eigenvalues --  -10.13893 -10.09937 -10.09444 -10.08303 -10.07046
 Alpha  occ. eigenvalues --  -10.06896 -10.04778  -0.91175  -0.86149  -0.84417
 Alpha  occ. eigenvalues --   -0.75552  -0.68764  -0.66885  -0.62777  -0.55030
 Alpha  occ. eigenvalues --   -0.51784  -0.48313  -0.46367  -0.41281  -0.40456
 Alpha  occ. eigenvalues --   -0.40126  -0.38265  -0.32242  -0.32046  -0.30593
 Alpha  occ. eigenvalues --   -0.30075  -0.29739  -0.28252  -0.27102  -0.24800
 Alpha  occ. eigenvalues --   -0.24635  -0.23194  -0.22639  -0.20883  -0.17405
 Alpha  occ. eigenvalues --   -0.12949  -0.10098  -0.10020  -0.09874   0.04581
 Alpha virt. eigenvalues --    0.06673   0.08589   0.09008   0.09817   0.11069
 Alpha virt. eigenvalues --    0.11457   0.12225   0.12629   0.13811   0.14287
 Alpha virt. eigenvalues --    0.15379   0.16041   0.17071   0.18224   0.18432

  Beta  occ. eigenvalues --  -18.93314 -14.21770 -14.20477 -14.17764 -14.13199
  Beta  occ. eigenvalues --  -10.13923 -10.09750 -10.09432 -10.08307 -10.07028
  Beta  occ. eigenvalues --  -10.06884 -10.04801  -0.90816  -0.85723  -0.84121
  Beta  occ. eigenvalues --   -0.75142  -0.68401  -0.66518  -0.62723  -0.54647
  Beta  occ. eigenvalues --   -0.51484  -0.48194  -0.46233  -0.41110  -0.40282
  Beta  occ. eigenvalues --   -0.39890  -0.38038  -0.32124  -0.31359  -0.30359
  Beta  occ. eigenvalues --   -0.29978  -0.29196  -0.28141  -0.27044  -0.24746
  Beta  occ. eigenvalues --   -0.24597  -0.23076  -0.21272  -0.19723  -0.16658
  Beta  occ. eigenvalues --   -0.12765  -0.09662  -0.09218  -0.08720
  Beta virt. eigenvalues --    0.06971   0.08870   0.09093   0.09890   0.11118
  Beta virt. eigenvalues --    0.11467   0.11661   0.12461   0.12735   0.13865
  Beta virt. eigenvalues --    0.14260   0.15804   0.16104   0.17054   0.18238

 Mulliken charges and spin densities:
               1          2
     1  C   -0.394696  -0.019705
     2  C    0.417542  -0.862451
     3  C   -0.043223  -0.122176
     4  N    0.086028   0.077220
     5  C   -0.038084  -0.107789
     6  C   -0.391345   0.212188
     7  N   -0.395114   0.133380
     8  C    0.203663   0.001753
     9  O   -0.412746  -0.006162
    10  N   -0.245390   0.080444
    11  N   -0.151104   0.341729
    12  C   -0.104446   0.005436
    13  H   -0.120805   0.274943
    14  H    0.136609  -0.021133
    15  H   -0.270717   0.424073
    16  H   -0.045180   0.187281
    17  H    0.176679  -0.035880
    18  H   -0.135363   0.293822
    19  H    0.091337   0.099437
    20  H    0.181910   0.007755
    21  H    0.316827  -0.003689
    22  H    0.137619   0.039521
 Sum of Mulliken charges =  -1.00000   1.00000

 Dipole moment (field-independent basis, Debye):
    X=              3.6627    Y=              1.9425    Z=              2.5530  Tot=              4.8689
 Quadrupole moment (field-independent basis, Debye-Ang):
   XX=           -117.2542   YY=            -98.7376   ZZ=            -84.0405
   XY=             -7.5811   XZ=              7.9037   YZ=              0.4662

 Summary of Natural Population Analysis:

                                       Natural Population
                Natural  -----------------------------------------------
    Atom  No    Charge         Core      Valence    Rydberg      Total
 -----------------------------------------------------------------------
      C    1   -0.19573      0.99964     2.18786    0.00824     3.19573
      C    2   -0.19477      0.99964     2.18658    0.00855     3.19477
      C    3   -0.07870      0.99964     2.06912    0.00995     3.07870
      N    4   -0.23854      0.99963     2.72916    0.00975     3.73854
      C    5   -0.08227      0.99964     2.07133    0.01130     3.08227
      C    6    0.24511      0.99956     1.73985    0.01549     2.75489
      N    7   -0.27911      0.99963     2.76919    0.01028     3.77911
      C    8    0.37662      0.99970     1.59778    0.02590     2.62338
      O    9   -0.35124      0.99987     3.34454    0.00683     4.35124
      N   10   -0.18542      0.99969     2.67313    0.01260     3.68542
      N   11   -0.00054      0.99970     2.48637    0.01446     3.50054
      C   12   -0.06592      0.99962     2.04802    0.01828     3.06592
      H   13    0.10077      0.00000     0.39817    0.00106     0.39923
      H   14    0.09205      0.00000     0.40688    0.00106     0.40795
      H   15    0.09982      0.00000     0.39774    0.00244     0.40018
      H   16    0.09677      0.00000     0.40243    0.00080     0.40323
      H   17    0.08561      0.00000     0.41324    0.00115     0.41439
      H   18    0.10123      0.00000     0.39737    0.00140     0.39877
      H   19    0.09475      0.00000     0.40351    0.00174     0.40525
      H   20    0.10542      0.00000     0.39325    0.00133     0.39458
      H   21    0.18512      0.00000     0.31282    0.00206     0.31488
      H   22    0.08898      0.00000     0.40889    0.00214     0.41102
 =======================================================================
   * Total *    0.00000     11.99596    31.83723    0.16681    44.00000

 Normal termination of Gaussian 16 at Wed Dec  9 17:09:38 2020.
