 Gaussian 16, Revision A.03,

 -----------------------------------------------------------
 # opt freq B3LYP/6-31G(d) empiricaldispersion=gd3bj scf=xqc
 -----------------------------------------------------------

 ------------------------------
 CID_83701659_JID_5786_neutraal
 ------------------------------
 Symbolic Z-matrix:
 Charge =  0 Multiplicity = 1

 SCF Done:  E(RB3LYP) =  -691.401534681     A.U. after   15 cycles
 SCF Done:  E(RB3LYP) =  -691.405331154     A.U. after   12 cycles
 SCF Done:  E(RB3LYP) =  -691.405483616     A.U. after   12 cycles
 SCF Done:  E(RB3LYP) =  -691.406129249     A.U. after   13 cycles
 SCF Done:  E(RB3LYP) =  -691.406451780     A.U. after   11 cycles
 SCF Done:  E(RB3LYP) =  -691.407225532     A.U. after   13 cycles
 SCF Done:  E(RB3LYP) =  -691.407914856     A.U. after   15 cycles
 SCF Done:  E(RB3LYP) =  -691.408986173     A.U. after   15 cycles
 SCF Done:  E(RB3LYP) =  -691.410671085     A.U. after   15 cycles
 SCF Done:  E(RB3LYP) =  -691.411819507     A.U. after   12 cycles
 SCF Done:  E(RB3LYP) =  -691.413571495     A.U. after    9 cycles
 SCF Done:  E(RB3LYP) =  -691.413572281     A.U. after    9 cycles
 SCF Done:  E(RB3LYP) =  -691.413572391     A.U. after    7 cycles
 SCF Done:  E(RB3LYP) =  -691.413572392     A.U. after    6 cycles
 SCF Done:  E(RB3LYP) =  -691.413572395     A.U. after    6 cycles
 Optimization completed.
    -- Stationary point found.
 Normal termination of Gaussian 16 at Thu Dec 10 17:41:53 2020.

 --------------------------------------------------------------------
 #N Geom=AllCheck Guess=TCheck SCRF=Check GenChk RB3LYP/6-31G(d) Freq
 --------------------------------------------------------------------

 Structure from the checkpoint file:  "JID_5786.chk"
 ------------------------------
 CID_83701659_JID_5786_neutraal
 ------------------------------
 Charge =  0 Multiplicity = 1

 SCF Done:  E(RB3LYP) =  -691.413572395     A.U. after    1 cycles

  Exact polarizability: 167.441   0.008 132.834  -7.382  -1.206  92.940
 Approx polarizability: 237.134  -0.373 212.285 -12.305  -1.694 134.498

                      1                      2                      3
                      A                      A                      A
 Frequencies --     21.8426                31.3386                51.3955
 Red. masses --      4.4799                 1.0402                10.3271
 Frc consts  --      0.0013                 0.0006                 0.0161
 IR Inten    --      0.0291                 0.1381                 2.3116

                      4                      5                      6
                      A                      A                      A
 Frequencies --     64.0508               101.1307               126.0964
 Red. masses --      3.8019                 4.1932                 4.0725
 Frc consts  --      0.0092                 0.0253                 0.0382
 IR Inten    --      1.7522                 2.4230                 0.7470

                      7                      8                      9
                      A                      A                      A
 Frequencies --    192.8713               205.0490               226.7654
 Red. masses --      2.4988                 2.9914                 2.8506
 Frc consts  --      0.0548                 0.0741                 0.0864
 IR Inten    --      0.1436                 0.4108                 1.4125

                     10                     11                     12
                      A                      A                      A
 Frequencies --    237.2579               275.4920               283.7094
 Red. masses --      2.8534                 2.1203                 1.8047
 Frc consts  --      0.0946                 0.0948                 0.0856
 IR Inten    --      0.5395                 0.0648                 0.5015

                     13                     14                     15
                      A                      A                      A
 Frequencies --    295.9215               336.7786               360.1272
 Red. masses --      3.1082                 4.1952                 4.1450
 Frc consts  --      0.1604                 0.2803                 0.3167
 IR Inten    --      0.2309                 2.8938                 0.7247

                     16                     17                     18
                      A                      A                      A
 Frequencies --    414.4306               459.5071               521.0394
 Red. masses --      4.2883                 5.7467                 4.3281
 Frc consts  --      0.4339                 0.7149                 0.6923
 IR Inten    --      1.7790                21.9524                 7.1594

                     19                     20                     21
                      A                      A                      A
 Frequencies --    537.6529               564.4155               588.5802
 Red. masses --      4.8726                 3.6511                 3.7690
 Frc consts  --      0.8299                 0.6853                 0.7693
 IR Inten    --      0.2939                 1.0364                 1.3517

                     22                     23                     24
                      A                      A                      A
 Frequencies --    626.3939               641.9839               650.8096
 Red. masses --      4.5245                 1.3321                 3.6194
 Frc consts  --      1.0460                 0.3235                 0.9032
 IR Inten    --      5.8187                73.1343                35.7059

                     25                     26                     27
                      A                      A                      A
 Frequencies --    717.3966               776.4573               789.1325
 Red. masses --      2.4397                 4.4410                 2.1849
 Frc consts  --      0.7398                 1.5775                 0.8017
 IR Inten    --     12.4867                42.6368                 5.8390

                     28                     29                     30
                      A                      A                      A
 Frequencies --    819.4295               851.7486               875.4239
 Red. masses --      1.2871                 1.4191                 1.4588
 Frc consts  --      0.5092                 0.6066                 0.6587
 IR Inten    --      2.5797                16.8086                 0.5320

                     31                     32                     33
                      A                      A                      A
 Frequencies --    885.0337               907.8110               926.4600
 Red. masses --      1.4563                 6.7783                 2.3540
 Frc consts  --      0.6721                 3.2913                 1.1904
 IR Inten    --      3.0661                 2.6806                24.2400

                     34                     35                     36
                      A                      A                      A
 Frequencies --    971.3046               993.1027              1003.8034
 Red. masses --      3.1580                 1.3425                 3.1976
 Frc consts  --      1.7554                 0.7801                 1.8983
 IR Inten    --     11.6406                 1.6421                 7.7963

                     37                     38                     39
                      A                      A                      A
 Frequencies --   1017.6254              1041.4612              1074.1550
 Red. masses --      5.2434                 1.6206                 1.4985
 Frc consts  --      3.1992                 1.0356                 1.0187
 IR Inten    --      1.4146                 0.1015                 2.7053

                     40                     41                     42
                      A                      A                      A
 Frequencies --   1077.7952              1103.0450              1108.9999
 Red. masses --      1.2991                 1.6386                 2.2264
 Frc consts  --      0.8891                 1.1747                 1.6133
 IR Inten    --     14.4356                26.2444                45.6483

                     43                     44                     45
                      A                      A                      A
 Frequencies --   1143.5095              1178.4355              1186.7636
 Red. masses --      1.5525                 3.0248                 1.2720
 Frc consts  --      1.1961                 2.4749                 1.0555
 IR Inten    --     17.7747               254.7340                 0.6534

                     46                     47                     48
                      A                      A                      A
 Frequencies --   1208.7194              1218.9329              1227.1879
 Red. masses --      1.5204                 1.2921                 1.5594
 Frc consts  --      1.3088                 1.1311                 1.3837
 IR Inten    --     52.5604                 0.4714                21.3336

                     49                     50                     51
                      A                      A                      A
 Frequencies --   1266.3271              1292.9617              1316.7488
 Red. masses --      2.0137                 2.8465                 1.5267
 Frc consts  --      1.9026                 2.8038                 1.5596
 IR Inten    --     43.9972                62.7388                35.0118

                     52                     53                     54
                      A                      A                      A
 Frequencies --   1362.3985              1395.8611              1414.3909
 Red. masses --      4.1784                 4.1651                 3.3970
 Frc consts  --      4.5695                 4.7814                 4.0039
 IR Inten    --     17.6126               112.9175                98.8341

                     55                     56                     57
                      A                      A                      A
 Frequencies --   1442.0716              1478.0679              1481.7108
 Red. masses --      1.2684                 1.0893                 2.0202
 Frc consts  --      1.5541                 1.4021                 2.6131
 IR Inten    --      1.1764                 3.0625                33.5748

                     58                     59                     60
                      A                      A                      A
 Frequencies --   1505.0844              1510.9363              1514.0908
 Red. masses --      1.7967                 1.8342                 1.3440
 Frc consts  --      2.3980                 2.4671                 1.8153
 IR Inten    --     14.5102                14.5324                10.4984

                     61                     62                     63
                      A                      A                      A
 Frequencies --   1515.4581              1520.6717              1536.8956
 Red. masses --      1.0463                 1.0479                 1.2658
 Frc consts  --      1.4158                 1.4277                 1.7615
 IR Inten    --      5.2793                 6.0143                 5.4265

                     64                     65                     66
                      A                      A                      A
 Frequencies --   1538.1234              1655.9141              1669.2147
 Red. masses --      1.1630                 5.5502                 6.1009
 Frc consts  --      1.6212                 8.9667                10.0154
 IR Inten    --     34.4753               126.3758                67.0878

                     67                     68                     69
                      A                      A                      A
 Frequencies --   1820.5433              3024.1278              3043.6012
 Red. masses --      9.3315                 1.0349                 1.0377
 Frc consts  --     18.2223                 5.5762                 5.6636
 IR Inten    --    277.1673                54.0253                34.7137

                     70                     71                     72
                      A                      A                      A
 Frequencies --   3081.9201              3094.9133              3128.9599
 Red. masses --      1.1065                 1.1009                 1.1006
 Frc consts  --      6.1921                 6.2127                 6.3484
 IR Inten    --     43.1680                21.2611                17.1256

                     73                     74                     75
                      A                      A                      A
 Frequencies --   3157.6674              3163.3918              3165.7226
 Red. masses --      1.0996                 1.0511                 1.0563
 Frc consts  --      6.4597                 6.1974                 6.2372
 IR Inten    --     28.2098                 7.4094                 5.5617

                     76                     77                     78
                      A                      A                      A
 Frequencies --   3189.2640              3213.2730              3213.8968
 Red. masses --      1.0902                 1.0905                 1.0896
 Frc consts  --      6.5334                 6.6341                 6.6311
 IR Inten    --     11.5343                 3.8454                10.5833

                     79                     80                     81
                      A                      A                      A
 Frequencies --   3249.0341              3261.0875              3687.1371
 Red. masses --      1.1207                 1.1178                 1.0638
 Frc consts  --      6.9701                 7.0039                 8.5213
 IR Inten    --      0.0325                 7.1276                55.0421

 - Thermochemistry -
 -------------------
 Temperature   298.150 Kelvin.  Pressure   1.00000 Atm.
 Atom     1 has atomic number  6 and mass  12.00000

 Molecular mass:   206.09429 amu.
 Principal axes and moments of inertia in atomic units:
                           1         2         3
     Eigenvalues --  1892.667784898.336935581.56697
           X            0.99990   0.00520  -0.01335
           Y           -0.00527   0.99997  -0.00479
           Z            0.01332   0.00486   0.99990
 This molecule is an asymmetric top.
 Rotational symmetry number  1.
 Warning -- assumption of classical behavior for rotation
           may cause significant error
 Rotational temperatures (Kelvin)      0.04576     0.01768     0.01552
 Rotational constants (GHZ):           0.95354     0.36844     0.32334
 Zero-point vibrational energy     627021.7 (Joules/Mol)
                                  149.86178 (Kcal/Mol)
 Warning -- explicit consideration of  21 degrees of freedom as
           vibrations may cause significant error
 Vibrational temperatures:     31.43    45.09    73.95    92.15   145.50
          (Kelvin)            181.42   277.50   295.02   326.26   341.36
                              396.37   408.19   425.76   484.55   518.14
                              596.27   661.13   749.66   773.56   812.07
                              846.84   901.24   923.67   936.37  1032.17
                             1117.15  1135.39  1178.98  1225.48  1259.54
                             1273.37  1306.14  1332.97  1397.49  1428.85
                             1444.25  1464.14  1498.43  1545.47  1550.71
                             1587.04  1595.60  1645.26  1695.51  1707.49
                             1739.08  1753.77  1765.65  1821.96  1860.28
                             1894.51  1960.19  2008.33  2034.99  2074.82
                             2126.61  2131.85  2165.48  2173.90  2178.44
                             2180.41  2187.91  2211.25  2213.02  2382.49
                             2401.63  2619.36  4351.05  4379.06  4434.20
                             4452.89  4501.88  4543.18  4551.42  4554.77
                             4588.64  4623.18  4624.08  4674.64  4691.98
                             5304.97

 Zero-point correction=                           0.238820 (Hartree/Particle)
 Thermal correction to Energy=                    0.253525
 Thermal correction to Enthalpy=                  0.254469
 Thermal correction to Gibbs Free Energy=         0.195221
 Sum of electronic and zero-point Energies=           -691.174752
 Sum of electronic and thermal Energies=              -691.160047
 Sum of electronic and thermal Enthalpies=            -691.159103
 Sum of electronic and thermal Free Energies=         -691.218351

                     E (Thermal)             CV                S
                      KCal/Mol        Cal/Mol-Kelvin    Cal/Mol-Kelvin
 Total                  159.089             54.700            124.697
 Electronic               0.000              0.000              0.000
 Translational            0.889              2.981             41.874
 Rotational               0.889              2.981             32.315
 Vibrational            157.312             48.738             50.509
 Vibration     1          0.593              1.985              6.459
 Vibration     2          0.594              1.983              5.743
 Vibration     3          0.596              1.977              4.763
 Vibration     4          0.597              1.971              4.328
 Vibration     5          0.604              1.948              3.432
 Vibration     6          0.611              1.927              3.005
 Vibration     7          0.635              1.850              2.200
 Vibration     8          0.640              1.833              2.087
 Vibration     9          0.650              1.800              1.904
 Vibration    10          0.656              1.784              1.823
 Vibration    11          0.677              1.719              1.562
 Vibration    12          0.682              1.704              1.511
 Vibration    13          0.690              1.681              1.440
 Vibration    14          0.717              1.602              1.227
 Vibration    15          0.735              1.554              1.122
 Vibration    16          0.778              1.439              0.911
 Vibration    17          0.817              1.340              0.768
 Vibration    18          0.876              1.203              0.608
 Vibration    19          0.893              1.167              0.570
 Vibration    20          0.920              1.108              0.515
 Vibration    21          0.946              1.056              0.470

 Optimization completed.
    -- Stationary point found.
 Normal termination of Gaussian 16 at Thu Dec 10 17:51:11 2020.

 ----------------------------------------------------------------------
 # B3LYP/6-311++G(d,p) empiricaldispersion=gd3bj scf=xqc pop=npa geom=c
 heck
 ----------------------------------------------------------------------

 --------------------------------------
 CID_83701659_JID_5786_Energie_neutraal
 --------------------------------------
 Structure from the checkpoint file:  "JID_5786.chk"
 Charge =  0 Multiplicity = 1

 SCF Done:  E(RB3LYP) =  -691.612279096     A.U. after   15 cycles
 Normal termination of Gaussian 16 at Thu Dec 10 17:57:05 2020.

 ----------------------------------------------------------------------
 # B3LYP/6-311++G(d,p) empiricaldispersion=gd3bj scf=xqc pop=npa geom=c
 heck
 ----------------------------------------------------------------------

 ------------------------------------
 CID_83701659_JID_5786_Energie_kation
 ------------------------------------
 Structure from the checkpoint file:  "JID_5786.chk"
 Charge =  1 Multiplicity = 2

 SCF Done:  E(UB3LYP) =  -691.318374871     A.U. after   25 cycles
 Normal termination of Gaussian 16 at Thu Dec 10 18:07:09 2020.
 Gaussian 16:  ES64L-G16RevA.03 25-Dec-2016

 ----------------------------------------------------------------------
 # B3LYP/6-311++G(d,p) empiricaldispersion=gd3bj scf=xqc pop=npa geom=c
 heck
 ----------------------------------------------------------------------

 -----------------------------------
 CID_83701659_JID_5786_Energie_anion
 -----------------------------------
 Structure from the checkpoint file:  "JID_5786.chk"
 Charge = -1 Multiplicity = 2

                         Standard orientation:
 ---------------------------------------------------------------------
 Center     Atomic      Atomic             Coordinates (Angstroms)
 Number     Number       Type             X           Y           Z
 ---------------------------------------------------------------------
      1          6           0        1.993610    3.062866    0.000795
      2          6           0        1.470022    1.648035    0.062259
      3          6           0        0.108998    1.391762    0.209131
      4          6           0       -0.373459    0.076004    0.260813
      5          6           0        0.517998   -0.985764    0.166093
      6          6           0        1.890368   -0.741038    0.020113
      7          6           0        2.365288    0.570468   -0.030630
      8          8           0        2.679536   -1.853060   -0.059416
      9          6           0        4.075323   -1.666291   -0.215101
     10          6           0       -1.844946   -0.180607    0.401852
     11          6           0       -2.342610   -1.112960    1.501500
     12          6           0       -2.578096    0.353758    1.629621
     13          6           0       -2.683307   -0.205617   -0.835231
     14          8           0       -3.883929   -0.395662   -0.855148
     15          8           0       -1.969084    0.008145   -1.964875
     16          1           0        2.472811    3.267741   -0.964637
     17          1           0        1.188016    3.790861    0.134458
     18          1           0        2.745182    3.245444    0.778551
     19          1           0       -0.592622    2.218096    0.283235
     20          1           0        0.171720   -2.013487    0.201338
     21          1           0        3.424829    0.774386   -0.139185
     22          1           0        4.308810   -1.124675   -1.141359
     23          1           0        4.507167   -1.122764    0.635855
     24          1           0        4.508980   -2.666689   -0.262252
     25          1           0       -3.190699   -1.742317    1.254344
     26          1           0       -1.575816   -1.570405    2.118325
     27          1           0       -1.972590    0.916300    2.333133
     28          1           0       -3.585874    0.721597    1.469296
     29          1           0       -2.617233   -0.033169   -2.692872
 ---------------------------------------------------------------------

 SCF Done:  E(UB3LYP) =  -691.598394126     A.U. after   33 cycles
 SCF Done:  E(UB3LYP) =  -691.598394126     a.u. after    1 cycles

 The electronic state is 2-A.
 Alpha  occ. eigenvalues --  -19.08098 -19.05629 -19.02567 -10.22096 -10.13779
 Alpha  occ. eigenvalues --  -10.12078 -10.12058 -10.10296 -10.10240 -10.09202
 Alpha  occ. eigenvalues --  -10.08865 -10.07258 -10.07085 -10.06879 -10.06878
 Alpha  occ. eigenvalues --   -1.02273  -0.97210  -0.93241  -0.80255  -0.75796
 Alpha  occ. eigenvalues --   -0.68219  -0.66147  -0.61023  -0.60091  -0.58534
 Alpha  occ. eigenvalues --   -0.53185  -0.51961  -0.48925  -0.47755  -0.44207
 Alpha  occ. eigenvalues --   -0.42013  -0.40065  -0.39758  -0.38974  -0.38250
 Alpha  occ. eigenvalues --   -0.37076  -0.36332  -0.34824  -0.32730  -0.32274
 Alpha  occ. eigenvalues --   -0.31735  -0.30758  -0.29545  -0.29116  -0.27751
 Alpha  occ. eigenvalues --   -0.27372  -0.26292  -0.24370  -0.23999  -0.23431
 Alpha  occ. eigenvalues --   -0.21980  -0.21271  -0.19950  -0.14905  -0.12766
 Alpha  occ. eigenvalues --    0.04304
 Alpha virt. eigenvalues --    0.05983   0.06734   0.07225   0.07574   0.07886
 Alpha virt. eigenvalues --    0.08568   0.08955   0.09048   0.09806   0.10052
 Alpha virt. eigenvalues --    0.10532   0.11104   0.11581   0.12533   0.12664

  Beta  occ. eigenvalues --  -19.08061 -19.05621 -19.02559 -10.22095 -10.13780
  Beta  occ. eigenvalues --  -10.12074 -10.12004 -10.10293 -10.10234 -10.09195
  Beta  occ. eigenvalues --  -10.08864 -10.07253 -10.07063 -10.06870 -10.06842
  Beta  occ. eigenvalues --   -1.02225  -0.97193  -0.93203  -0.80244  -0.75782
  Beta  occ. eigenvalues --   -0.68193  -0.66121  -0.60958  -0.60048  -0.58483
  Beta  occ. eigenvalues --   -0.53165  -0.51915  -0.48888  -0.47708  -0.44171
  Beta  occ. eigenvalues --   -0.41988  -0.40041  -0.39728  -0.38947  -0.38224
  Beta  occ. eigenvalues --   -0.37042  -0.36307  -0.34800  -0.32684  -0.32234
  Beta  occ. eigenvalues --   -0.31702  -0.30729  -0.29529  -0.29087  -0.27718
  Beta  occ. eigenvalues --   -0.27341  -0.26266  -0.24351  -0.23972  -0.23396
  Beta  occ. eigenvalues --   -0.21955  -0.21264  -0.19922  -0.14867  -0.12743
  Beta virt. eigenvalues --    0.06477   0.07153   0.07380   0.07469   0.07721
  Beta virt. eigenvalues --    0.07937   0.08783   0.09221   0.09586   0.09785
  Beta virt. eigenvalues --    0.10630   0.10993   0.11294   0.11879   0.12753

 Mulliken charges and spin densities:
               1          2
     1  C    2.259584  -2.800642
     2  C   -0.124118  -0.080054
     3  C    1.508988  -2.653543
     4  C    2.118069  -1.018378
     5  C    0.863080  -1.772186
     6  C   -2.994652   2.382376
     7  C   -2.675200   3.814048
     8  O   -0.216061   0.069271
     9  C    1.021725  -1.336080
    10  C   -0.124505   0.346539
    11  C   -0.291246   0.005999
    12  C   -0.042544  -0.270867
    13  C   -0.102302  -0.014727
    14  O   -0.276426   0.008218
    15  O   -0.187203   0.035172
    16  H   -0.207967   0.373246
    17  H   -0.361012   0.511092
    18  H   -0.385778   0.549911
    19  H   -0.015091   0.191770
    20  H    0.161756   0.046612
    21  H    0.297940  -0.117398
    22  H   -0.393601   0.555464
    23  H   -0.552687   0.717053
    24  H   -0.604722   0.785503
    25  H    0.171829   0.020805
    26  H    0.111378   0.035661
    27  H    0.109376   0.041308
    28  H    0.120566   0.068688
    29  H   -0.189174   0.505141
 Sum of Mulliken charges =  -1.00000   1.00000

 Dipole moment (field-independent basis, Debye):
    X=             -7.1613    Y=             -1.2993    Z=              2.9022  Tot=              7.8355
 Quadrupole moment (field-independent basis, Debye-Ang):
   XX=           -183.4109   YY=           -134.4064   ZZ=           -122.0503
   XY=              2.3602   XZ=             -8.3152   YZ=             -1.9796

 Summary of Natural Population Analysis:

                                       Natural Population
                Natural  -----------------------------------------------
    Atom  No    Charge         Core      Valence    Rydberg      Total
 -----------------------------------------------------------------------
      C    1   -0.29247      0.99963     2.28706    0.00577     3.29247
      C    2   -0.00136      0.99953     1.99224    0.00958     3.00136
      C    3   -0.10970      0.99946     2.10093    0.00931     3.10970
      C    4   -0.01005      0.99950     1.99856    0.01200     3.01005
      C    5   -0.11574      0.99946     2.10771    0.00857     3.11574
      C    6    0.16912      0.99938     1.81773    0.01376     2.83088
      C    7   -0.14231      0.99947     2.13428    0.00857     3.14231
      O    8   -0.27316      0.99986     3.26330    0.01001     4.27316
      C    9   -0.10066      0.99960     2.09190    0.00916     3.10066
      C   10   -0.09495      0.99947     2.08135    0.01413     3.09495
      C   11   -0.18064      0.99961     2.17314    0.00789     3.18064
      C   12   -0.17923      0.99961     2.17177    0.00785     3.17923
      C   13    0.41138      0.99962     1.56291    0.02609     2.58862
      O   14   -0.32071      0.99987     3.31493    0.00591     4.32071
      O   15   -0.33235      0.99988     3.32611    0.00636     4.33235
      H   16    0.10595      0.00000     0.39293    0.00112     0.39405
      H   17    0.10143      0.00000     0.39738    0.00119     0.39857
      H   18    0.10662      0.00000     0.39183    0.00155     0.39338
      H   19    0.09976      0.00000     0.39885    0.00139     0.40024
      H   20    0.10502      0.00000     0.39343    0.00155     0.39498
      H   21    0.10801      0.00000     0.39014    0.00185     0.39199
      H   22    0.08625      0.00000     0.41170    0.00205     0.41375
      H   23    0.08686      0.00000     0.41072    0.00241     0.41314
      H   24    0.09414      0.00000     0.40431    0.00155     0.40586
      H   25    0.11064      0.00000     0.38842    0.00095     0.38936
      H   26    0.10762      0.00000     0.39147    0.00091     0.39238
      H   27    0.10799      0.00000     0.39109    0.00092     0.39201
      H   28    0.11078      0.00000     0.38823    0.00100     0.38922
      H   29    0.24176      0.00000     0.25004    0.00821     0.25824
 =======================================================================
   * Total *    0.00000     14.99395    39.82445    0.18160    55.00000

 Normal termination of Gaussian 16 at Thu Dec 10 18:18:25 2020.
