 Gaussian 16, Revision A.03,

 -----------------------------------------------------------
 # opt freq B3LYP/6-31G(d) empiricaldispersion=gd3bj scf=xqc
 -----------------------------------------------------------

 -------------------------------
 CID_106732659_JID_6320_neutraal
 -------------------------------
 Symbolic Z-matrix:
 Charge =  0 Multiplicity = 1

 SCF Done:  E(RB3LYP) =  -1125.23155887     A.U. after   14 cycles
 SCF Done:  E(RB3LYP) =  -1125.23587073     A.U. after   14 cycles
 SCF Done:  E(RB3LYP) =  -1125.22889835     A.U. after   13 cycles
 SCF Done:  E(RB3LYP) =  -1125.23666213     A.U. after   12 cycles
 SCF Done:  E(RB3LYP) =  -1125.23646536     A.U. after   13 cycles
 SCF Done:  E(RB3LYP) =  -1125.24031568     A.U. after   12 cycles
 SCF Done:  E(RB3LYP) =  -1125.24073149     A.U. after   12 cycles
 SCF Done:  E(RB3LYP) =  -1125.24107405     A.U. after   12 cycles
 SCF Done:  E(RB3LYP) =  -1125.24144697     A.U. after   13 cycles
 SCF Done:  E(RB3LYP) =  -1125.24194163     A.U. after   12 cycles
 SCF Done:  E(RB3LYP) =  -1125.24303030     A.U. after    8 cycles
 SCF Done:  E(RB3LYP) =  -1125.24303130     A.U. after    9 cycles
 SCF Done:  E(RB3LYP) =  -1125.24303214     A.U. after    9 cycles
 SCF Done:  E(RB3LYP) =  -1125.24303279     A.U. after    9 cycles
 SCF Done:  E(RB3LYP) =  -1125.24303284     A.U. after    8 cycles
 SCF Done:  E(RB3LYP) =  -1125.24303283     A.U. after    6 cycles
 Optimization completed.
    -- Stationary point found.
 Normal termination of Gaussian 16 at Thu Dec 10 22:37:31 2020.

 --------------------------------------------------------------------
 #N Geom=AllCheck Guess=TCheck SCRF=Check GenChk RB3LYP/6-31G(d) Freq
 --------------------------------------------------------------------

 Structure from the checkpoint file:  "JID_6320.chk"
 -------------------------------
 CID_106732659_JID_6320_neutraal
 -------------------------------
 Charge =  0 Multiplicity = 1

 SCF Done:  E(RB3LYP) =  -1125.24303283     A.U. after    1 cycles

  Exact polarizability: 160.921   5.810 144.934  -3.197   8.257 113.052
 Approx polarizability: 221.402  17.197 213.955 -13.067  24.303 185.929

                      1                      2                      3
                      A                      A                      A
 Frequencies --     11.5602                25.9840                45.1742
 Red. masses --      4.2044                 2.9133                 2.8881
 Frc consts  --      0.0003                 0.0012                 0.0035
 IR Inten    --      0.9623                 0.3604                 0.7605

                      4                      5                      6
                      A                      A                      A
 Frequencies --     56.7843                64.4756                80.3569
 Red. masses --      4.1383                 3.4001                 4.2493
 Frc consts  --      0.0079                 0.0083                 0.0162
 IR Inten    --      3.8300                 2.3961                 1.5221

                      7                      8                      9
                      A                      A                      A
 Frequencies --    120.6464               139.3733               180.5288
 Red. masses --      5.4133                 4.2869                 2.4941
 Frc consts  --      0.0464                 0.0491                 0.0479
 IR Inten    --      1.4059                 2.5878                 1.6697

                     10                     11                     12
                      A                      A                      A
 Frequencies --    217.5535               230.4202               234.1851
 Red. masses --      4.3095                 1.0557                 1.4883
 Frc consts  --      0.1202                 0.0330                 0.0481
 IR Inten    --      0.9234                 0.0666                 3.6039

                     13                     14                     15
                      A                      A                      A
 Frequencies --    245.9170               250.6462               287.6024
 Red. masses --      1.2855                 1.9184                 3.1614
 Frc consts  --      0.0458                 0.0710                 0.1541
 IR Inten    --      0.9356                 0.7411                 5.9009

                     16                     17                     18
                      A                      A                      A
 Frequencies --    310.7315               324.5768               349.1809
 Red. masses --      3.2180                 3.1026                 3.6108
 Frc consts  --      0.1831                 0.1926                 0.2594
 IR Inten    --      7.0907                 2.4145                 4.6782

                     19                     20                     21
                      A                      A                      A
 Frequencies --    398.9939               418.8973               421.7806
 Red. masses --      2.9369                 4.0144                 4.6836
 Frc consts  --      0.2755                 0.4150                 0.4909
 IR Inten    --      3.2207                 0.0711                 9.8217

                     22                     23                     24
                      A                      A                      A
 Frequencies --    423.5690               458.9568               503.2889
 Red. masses --      3.2136                 4.1009                 3.8793
 Frc consts  --      0.3397                 0.5089                 0.5789
 IR Inten    --      8.9071                19.6824                 4.7728

                     25                     26                     27
                      A                      A                      A
 Frequencies --    535.1913               606.2157               648.8111
 Red. masses --      5.7893                 4.0086                 4.7734
 Frc consts  --      0.9770                 0.8680                 1.1839
 IR Inten    --     13.8018                19.3830                 8.6397

                     28                     29                     30
                      A                      A                      A
 Frequencies --    671.4339               680.0523               733.5283
 Red. masses --      4.5191                 4.8428                 3.1298
 Frc consts  --      1.2004                 1.3196                 0.9922
 IR Inten    --     16.9763                38.8547                25.4691

                     31                     32                     33
                      A                      A                      A
 Frequencies --    760.8844               796.8551               806.7289
 Red. masses --      3.6799                 1.2338                 1.1758
 Frc consts  --      1.2552                 0.4616                 0.4508
 IR Inten    --     29.5328                24.3280                 5.3423

                     34                     35                     36
                      A                      A                      A
 Frequencies --    835.4844               838.1443               894.3008
 Red. masses --      1.3607                 1.5417                 2.6047
 Frc consts  --      0.5596                 0.6381                 1.2274
 IR Inten    --     23.3996                 3.7705                 1.9279

                     37                     38                     39
                      A                      A                      A
 Frequencies --    955.0156               966.6368               978.1499
 Red. masses --      1.1371                 2.6190                 1.3796
 Frc consts  --      0.6110                 1.4418                 0.7777
 IR Inten    --      1.0092                23.5943                 0.0521

                     40                     41                     42
                      A                      A                      A
 Frequencies --   1012.4730              1014.9959              1033.7011
 Red. masses --      4.0288                 2.8917                 4.1559
 Frc consts  --      2.4333                 1.7552                 2.6164
 IR Inten    --     33.9290                37.5101                 6.0622

                     43                     44                     45
                      A                      A                      A
 Frequencies --   1061.5669              1091.8269              1092.6762
 Red. masses --      1.6750                 3.4002                 3.7641
 Frc consts  --      1.1122                 2.3881                 2.6478
 IR Inten    --      0.4582                48.7129               103.0977

                     46                     47                     48
                      A                      A                      A
 Frequencies --   1110.9309              1112.8707              1120.1360
 Red. masses --      2.0099                 1.9732                 1.7121
 Frc consts  --      1.4615                 1.4398                 1.2656
 IR Inten    --     47.1499                40.4140                 0.0446

                     49                     50                     51
                      A                      A                      A
 Frequencies --   1144.3945              1208.1188              1208.6440
 Red. masses --      2.2845                 1.8155                 1.7596
 Frc consts  --      1.7628                 1.5612                 1.5144
 IR Inten    --      0.0394                 3.5061                 3.1600

                     52                     53                     54
                      A                      A                      A
 Frequencies --   1220.6344              1245.3581              1289.1596
 Red. masses --      1.5122                 1.6338                 1.5096
 Frc consts  --      1.3275                 1.4929                 1.4781
 IR Inten    --     38.9857                47.0306                12.6209

                     55                     56                     57
                      A                      A                      A
 Frequencies --   1291.6476              1294.5277              1317.0474
 Red. masses --      1.4518                 3.6397                 1.3775
 Frc consts  --      1.4271                 3.5936                 1.4079
 IR Inten    --     52.7456               104.1770                17.2094

                     58                     59                     60
                      A                      A                      A
 Frequencies --   1339.7680              1349.1523              1396.7818
 Red. masses --      1.1999                 1.4389                 2.2938
 Frc consts  --      1.2690                 1.5431                 2.6367
 IR Inten    --      1.2584                 0.5215               114.3467

                     61                     62                     63
                      A                      A                      A
 Frequencies --   1404.0355              1412.7882              1429.8601
 Red. masses --      1.4393                 2.2189                 1.2403
 Frc consts  --      1.6717                 2.6094                 1.4940
 IR Inten    --     12.9187                61.3113                 4.4521

                     64                     65                     66
                      A                      A                      A
 Frequencies --   1434.8827              1436.5794              1447.3740
 Red. masses --      1.4469                 2.0692                 1.4964
 Frc consts  --      1.7552                 2.5160                 1.8470
 IR Inten    --      4.3836                13.1086                17.9736

                     67                     68                     69
                      A                      A                      A
 Frequencies --   1448.9278              1481.6455              1486.6657
 Red. masses --      1.7409                 1.3340                 2.1811
 Frc consts  --      2.1534                 1.7254                 2.8402
 IR Inten    --     21.9746                22.6219                13.4020

                     70                     71                     72
                      A                      A                      A
 Frequencies --   1511.1566              1517.9374              1520.3624
 Red. masses --      1.1542                 1.0449                 1.0460
 Frc consts  --      1.5530                 1.4185                 1.4246
 IR Inten    --      9.0052                 3.8943                 5.5304

                     73                     74                     75
                      A                      A                      A
 Frequencies --   1522.0749              1532.1487              1533.9984
 Red. masses --      1.0458                 1.0402                 1.0623
 Frc consts  --      1.4275                 1.4387                 1.4729
 IR Inten    --      1.6957                10.5585                 2.2710

                     76                     77                     78
                      A                      A                      A
 Frequencies --   1537.0283              1540.5244              1627.7323
 Red. masses --      1.1052                 1.0492                 5.0190
 Frc consts  --      1.5384                 1.4670                 7.8349
 IR Inten    --      4.5250                21.1488                79.4787

                     79                     80                     81
                      A                      A                      A
 Frequencies --   3056.1565              3060.0691              3062.4661
 Red. masses --      1.0350                 1.0365                 1.0460
 Frc consts  --      5.6955                 5.7185                 5.7801
 IR Inten    --     16.7268                 8.7781                13.4497

                     82                     83                     84
                      A                      A                      A
 Frequencies --   3065.5333              3069.5425              3080.2224
 Red. masses --      1.0679                 1.0750                 1.0642
 Frc consts  --      5.9127                 5.9678                 5.9490
 IR Inten    --     13.9882                10.7088                25.7522

                     85                     86                     87
                      A                      A                      A
 Frequencies --   3104.2176              3121.2342              3122.1534
 Red. masses --      1.0578                 1.1027                 1.1026
 Frc consts  --      6.0056                 6.3291                 6.3328
 IR Inten    --      8.4442                17.2993                 1.5213

                     88                     89                     90
                      A                      A                      A
 Frequencies --   3127.8165              3135.2052              3149.7448
 Red. masses --      1.1006                 1.1006                 1.1048
 Frc consts  --      6.3442                 6.3739                 6.4575
 IR Inten    --     38.1665                25.4675                22.1069

                     91                     92                     93
                      A                      A                      A
 Frequencies --   3154.8679              3155.5937              3156.3439
 Red. masses --      1.1013                 1.1018                 1.1017
 Frc consts  --      6.4583                 6.4640                 6.4667
 IR Inten    --      3.5286                 7.7733                10.9444

                     94                     95                     96
                      A                      A                      A
 Frequencies --   3173.3291              3271.8861              3275.2568
 Red. masses --      1.1058                 1.0967                 1.0992
 Frc consts  --      6.5610                 6.9172                 6.9471
 IR Inten    --      6.5193                 4.4696                17.4052

 - Thermochemistry -
 -------------------
 Temperature   298.150 Kelvin.  Pressure   1.00000 Atm.
 Atom     1 has atomic number  6 and mass  12.00000

 Molecular mass:   246.10381 amu.
 Principal axes and moments of inertia in atomic units:
                           1         2         3
     Eigenvalues --  2476.144326221.889447473.37715
           X            0.99976   0.01018   0.01958
           Y           -0.00995   0.99988  -0.01223
           Z           -0.01970   0.01204   0.99973
 This molecule is an asymmetric top.
 Rotational symmetry number  1.
 Warning -- assumption of classical behavior for rotation
           may cause significant error
 Rotational temperatures (Kelvin)      0.03498     0.01392     0.01159
 Rotational constants (GHZ):           0.72885     0.29006     0.24149
 Zero-point vibrational energy     751448.6 (Joules/Mol)
                                  179.60052 (Kcal/Mol)
 Warning -- explicit consideration of  26 degrees of freedom as
           vibrations may cause significant error
 Vibrational temperatures:     16.63    37.39    65.00    81.70    92.77
          (Kelvin)            115.62   173.58   200.53   259.74   313.01
                              331.52   336.94   353.82   360.62   413.80
                              447.07   466.99   502.39   574.06   602.70
                              606.85   609.42   660.34   724.12   770.02
                              872.21   933.49   966.04   978.44  1055.38
                             1094.74  1146.50  1160.70  1202.08  1205.90
                             1286.70  1374.05  1390.77  1407.34  1456.72
                             1460.35  1487.27  1527.36  1570.90  1572.12
                             1598.38  1601.17  1611.63  1646.53  1738.21
                             1738.97  1756.22  1791.79  1854.81  1858.39
                             1862.54  1894.94  1927.63  1941.13  2009.66
                             2020.09  2032.69  2057.25  2064.48  2066.92
                             2082.45  2084.68  2131.76  2138.98  2174.22
                             2183.97  2187.46  2189.93  2204.42  2207.08
                             2211.44  2216.47  2341.94  4397.13  4402.76
                             4406.21  4410.62  4416.39  4431.75  4466.28
                             4490.76  4492.08  4500.23  4510.86  4531.78
                             4539.15  4540.20  4541.27  4565.71  4707.51
                             4712.36

 Zero-point correction=                           0.286212 (Hartree/Particle)
 Thermal correction to Energy=                    0.303730
 Thermal correction to Enthalpy=                  0.304674
 Thermal correction to Gibbs Free Energy=         0.238184
 Sum of electronic and zero-point Energies=          -1124.956821
 Sum of electronic and thermal Energies=             -1124.939303
 Sum of electronic and thermal Enthalpies=           -1124.938358
 Sum of electronic and thermal Free Energies=        -1125.004849

                     E (Thermal)             CV                S
                      KCal/Mol        Cal/Mol-Kelvin    Cal/Mol-Kelvin
 Total                  190.594             64.083            139.940
 Electronic               0.000              0.000              0.000
 Translational            0.889              2.981             42.402
 Rotational               0.889              2.981             33.109
 Vibrational            188.816             58.121             64.428
 Vibration     1          0.593              1.987              7.723
 Vibration     2          0.593              1.985              6.115
 Vibration     3          0.595              1.979              5.018
 Vibration     4          0.596              1.975              4.566
 Vibration     5          0.597              1.971              4.315
 Vibration     6          0.600              1.962              3.882
 Vibration     7          0.609              1.932              3.090
 Vibration     8          0.615              1.914              2.812
 Vibration     9          0.629              1.866              2.323
 Vibration    10          0.646              1.814              1.979
 Vibration    11          0.652              1.795              1.876
 Vibration    12          0.654              1.789              1.847
 Vibration    13          0.660              1.770              1.760
 Vibration    14          0.663              1.762              1.726
 Vibration    15          0.685              1.697              1.488
 Vibration    16          0.700              1.653              1.358
 Vibration    17          0.709              1.626              1.287
 Vibration    18          0.726              1.577              1.170
 Vibration    19          0.765              1.472              0.966
 Vibration    20          0.782              1.429              0.896
 Vibration    21          0.784              1.423              0.886
 Vibration    22          0.786              1.419              0.880
 Vibration    23          0.817              1.341              0.769
 Vibration    24          0.859              1.243              0.650
 Vibration    25          0.890              1.172              0.576
 Vibration    26          0.965              1.019              0.439

 Optimization completed.
    -- Stationary point found.
 Normal termination of Gaussian 16 at Thu Dec 10 22:50:23 2020.

 ----------------------------------------------------------------------
 # B3LYP/6-311++G(d,p) empiricaldispersion=gd3bj scf=xqc pop=npa geom=c
 heck
 ----------------------------------------------------------------------

 ---------------------------------------
 CID_106732659_JID_6320_Energie_neutraal
 ---------------------------------------
 Structure from the checkpoint file:  "JID_6320.chk"
 Charge =  0 Multiplicity = 1

 SCF Done:  E(RB3LYP) =  -1125.47673862     A.U. after   15 cycles
 Normal termination of Gaussian 16 at Thu Dec 10 22:56:55 2020.

 ----------------------------------------------------------------------
 # B3LYP/6-311++G(d,p) empiricaldispersion=gd3bj scf=xqc pop=npa geom=c
 heck
 ----------------------------------------------------------------------

 -------------------------------------
 CID_106732659_JID_6320_Energie_kation
 -------------------------------------
 Structure from the checkpoint file:  "JID_6320.chk"
 Charge =  1 Multiplicity = 2

 SCF Done:  E(UB3LYP) =  -1125.18103649     A.U. after   25 cycles
 Normal termination of Gaussian 16 at Thu Dec 10 23:12:18 2020.
 Gaussian 16:  ES64L-G16RevA.03 25-Dec-2016

 ----------------------------------------------------------------------
 # B3LYP/6-311++G(d,p) empiricaldispersion=gd3bj scf=xqc pop=npa geom=c
 heck
 ----------------------------------------------------------------------

 ------------------------------------
 CID_106732659_JID_6320_Energie_anion
 ------------------------------------
 Structure from the checkpoint file:  "JID_6320.chk"
 Charge = -1 Multiplicity = 2

                         Standard orientation:
 ---------------------------------------------------------------------
 Center     Atomic      Atomic             Coordinates (Angstroms)
 Number     Number       Type             X           Y           Z
 ---------------------------------------------------------------------
      1          6           0       -2.835447   -2.733372    0.069714
      2          6           0       -3.412903   -1.599085   -0.777669
      3          7           0       -3.010670   -0.289115   -0.292097
      4          6           0       -1.811452    0.327928   -0.509432
      5          6           0       -1.825440    1.459745    0.295365
      6          6           0       -3.066464    1.427679    0.968616
      7          7           0       -3.777397    0.356871    0.608331
      8          8           0       -0.888103    2.442923    0.449560
      9          6           0        0.352832    2.186741   -0.192590
     10          6           0        1.123473    1.075466    0.546801
     11         16           0        2.140660    0.131737   -0.622306
     12          8           0        1.218126   -0.463884   -1.613432
     13          8           0        3.242989    0.998387   -1.074987
     14          6           0        2.858276   -1.248458    0.349665
     15          6           0        3.781803   -0.723621    1.447384
     16          6           0        1.767377   -2.194304    0.849089
     17          1           0       -1.740287   -2.717529    0.045358
     18          1           0       -3.173727   -3.704141   -0.308684
     19          1           0       -3.160801   -2.630242    1.109401
     20          1           0       -3.089674   -1.685649   -1.820227
     21          1           0       -4.504880   -1.610499   -0.756472
     22          1           0       -1.067667   -0.077317   -1.180227
     23          1           0       -3.461862    2.144488    1.674560
     24          1           0        0.184971    1.914468   -1.241466
     25          1           0        0.908323    3.124073   -0.163034
     26          1           0        1.775834    1.475687    1.324933
     27          1           0        0.413796    0.370154    0.985347
     28          1           0        3.452323   -1.745292   -0.427795
     29          1           0        3.214674   -0.236867    2.248402
     30          1           0        4.326459   -1.562808    1.892545
     31          1           0        4.507518   -0.012632    1.045354
     32          1           0        1.105637   -2.496277    0.033858
     33          1           0        2.232845   -3.091193    1.271057
     34          1           0        1.166014   -1.732228    1.639546
 ---------------------------------------------------------------------

 SCF Done:  E(UB3LYP) =  -1125.46868903     A.U. after   31 cycles

 The electronic state is 2-A.
 Alpha  occ. eigenvalues --  -88.95312 -19.07897 -19.02629 -19.02558 -14.30444
 Alpha  occ. eigenvalues --  -14.24790 -10.16256 -10.14322 -10.13341 -10.12889
 Alpha  occ. eigenvalues --  -10.12716 -10.11613 -10.10488 -10.08152 -10.08056
 Alpha  occ. eigenvalues --  -10.08005  -8.01888  -5.98151  -5.98043  -5.97956
 Alpha  occ. eigenvalues --   -1.01693  -0.99646  -0.96636  -0.91375  -0.76647
 Alpha  occ. eigenvalues --   -0.73942  -0.71691  -0.69998  -0.65962  -0.61259
 Alpha  occ. eigenvalues --   -0.61078  -0.56787  -0.55407  -0.51239  -0.49269
 Alpha  occ. eigenvalues --   -0.48902  -0.46301  -0.42485  -0.41544  -0.40574
 Alpha  occ. eigenvalues --   -0.39989  -0.38629  -0.37513  -0.37185  -0.36780
 Alpha  occ. eigenvalues --   -0.36258  -0.35250  -0.34228  -0.33099  -0.31584
 Alpha  occ. eigenvalues --   -0.31132  -0.30894  -0.30169  -0.29554  -0.28000
 Alpha  occ. eigenvalues --   -0.27513  -0.27149  -0.26821  -0.25691  -0.24111
 Alpha  occ. eigenvalues --   -0.23429  -0.21629  -0.21336  -0.19863  -0.17262
 Alpha  occ. eigenvalues --   -0.13947   0.03954
 Alpha virt. eigenvalues --    0.05839   0.06747   0.07720   0.08204   0.08329
 Alpha virt. eigenvalues --    0.08564   0.09061   0.09530   0.09904   0.10122
 Alpha virt. eigenvalues --    0.10889   0.11585   0.12021   0.12197   0.12725

  Beta  occ. eigenvalues --  -88.95310 -19.07894 -19.02624 -19.02554 -14.30445
  Beta  occ. eigenvalues --  -14.24782 -10.16251 -10.14323 -10.13330 -10.12877
  Beta  occ. eigenvalues --  -10.12685 -10.11607 -10.10486 -10.08118 -10.08000
  Beta  occ. eigenvalues --  -10.07951  -8.01886  -5.98150  -5.98042  -5.97951
  Beta  occ. eigenvalues --   -1.01682  -0.99640  -0.96630  -0.91366  -0.76636
  Beta  occ. eigenvalues --   -0.73905  -0.71665  -0.69980  -0.65935  -0.61227
  Beta  occ. eigenvalues --   -0.60979  -0.56730  -0.55355  -0.51226  -0.49253
  Beta  occ. eigenvalues --   -0.48846  -0.46284  -0.42464  -0.41520  -0.40548
  Beta  occ. eigenvalues --   -0.39965  -0.38607  -0.37493  -0.37130  -0.36758
  Beta  occ. eigenvalues --   -0.36236  -0.35226  -0.34208  -0.33031  -0.31549
  Beta  occ. eigenvalues --   -0.31085  -0.30851  -0.30126  -0.29517  -0.27972
  Beta  occ. eigenvalues --   -0.27473  -0.27103  -0.26776  -0.25675  -0.24099
  Beta  occ. eigenvalues --   -0.23418  -0.21620  -0.21324  -0.19837  -0.17246
  Beta  occ. eigenvalues --   -0.13935
  Beta virt. eigenvalues --    0.06159   0.06817   0.07375   0.08013   0.08449
  Beta virt. eigenvalues --    0.08763   0.08828   0.09391   0.09943   0.10328
  Beta virt. eigenvalues --    0.10388   0.11095   0.11892   0.12240   0.12443

 Mulliken charges and spin densities:
               1          2
     1  C    0.449427  -0.870759
     2  C   -0.520290   0.287254
     3  N    0.364308   0.049021
     4  C   -0.286877  -0.086689
     5  C    0.006115  -0.106984
     6  C   -0.053640  -0.140863
     7  N   -0.263575   0.007877
     8  O   -0.091088   0.010112
     9  C    0.345997  -0.759027
    10  C   -0.632438   0.234260
    11  S    1.032819  -0.976456
    12  O   -0.191703   0.015427
    13  O   -0.114720   0.012586
    14  C   -2.176534   2.211350
    15  C    1.592257  -2.156462
    16  C    1.322136  -1.968800
    17  H    0.233846  -0.066007
    18  H   -0.372935   0.510197
    19  H   -0.009962   0.158403
    20  H   -0.007587   0.136907
    21  H    0.048301   0.129874
    22  H    0.284015   0.018413
    23  H    0.061610   0.084973
    24  H    0.235826  -0.020440
    25  H    0.122763   0.081496
    26  H   -0.208595   0.461536
    27  H    0.181177   0.087663
    28  H   -0.235500   0.490494
    29  H   -0.491481   0.658824
    30  H   -0.678218   0.861852
    31  H    0.069431   0.105906
    32  H   -0.118281   0.281643
    33  H   -0.718163   0.913076
    34  H   -0.178439   0.343346
 Sum of Mulliken charges =  -1.00000   1.00000

 Dipole moment (field-independent basis, Debye):
    X=             -5.0687    Y=              6.0614    Z=             -3.6040  Tot=              8.6845
 Quadrupole moment (field-independent basis, Debye-Ang):
   XX=           -189.1066   YY=           -161.2891   ZZ=           -148.4757
   XY=              6.9447   XZ=             -7.7415   YZ=              7.2281

 Summary of Natural Population Analysis:

                                       Natural Population
                Natural  -----------------------------------------------
    Atom  No    Charge         Core      Valence    Rydberg      Total
 -----------------------------------------------------------------------
      C    1   -0.29019      0.99966     2.28598    0.00455     3.29019
      C    2   -0.08179      0.99962     2.07135    0.01082     3.08179
      N    3   -0.10440      0.99967     2.59159    0.01314     3.60440
      C    4   -0.06099      0.99950     2.05125    0.01024     3.06099
      C    5    0.09816      0.99936     1.88823    0.01425     2.90184
      C    6   -0.03441      0.99959     2.02105    0.01376     3.03441
      N    7   -0.14665      0.99974     2.63591    0.01100     3.64665
      O    8   -0.27094      0.99986     3.26249    0.00859     4.27094
      C    9   -0.01754      0.99957     2.00466    0.01331     3.01754
      C   10   -0.31105      0.99958     2.30015    0.01132     3.31105
      S   11    1.01982      4.99921     1.88900    0.09198     6.98018
      O   12   -0.47834      0.99991     3.47275    0.00567     4.47834
      O   13   -0.47129      0.99991     3.46588    0.00549     4.47129
      C   14   -0.19647      0.99958     2.18186    0.01503     3.19647
      C   15   -0.29621      0.99963     2.28930    0.00729     3.29621
      C   16   -0.29602      0.99963     2.28863    0.00775     3.29602
      H   17    0.10290      0.00000     0.39549    0.00161     0.39710
      H   18    0.10238      0.00000     0.39625    0.00137     0.39762
      H   19    0.10331      0.00000     0.39563    0.00107     0.39669
      H   20    0.09788      0.00000     0.40115    0.00097     0.40212
      H   21    0.10417      0.00000     0.39441    0.00142     0.39583
      H   22    0.12341      0.00000     0.37496    0.00163     0.37659
      H   23    0.10002      0.00000     0.39907    0.00091     0.39998
      H   24    0.09344      0.00000     0.40520    0.00136     0.40656
      H   25    0.09900      0.00000     0.40004    0.00095     0.40100
      H   26    0.11987      0.00000     0.37878    0.00135     0.38013
      H   27    0.12264      0.00000     0.37522    0.00214     0.37736
      H   28    0.11635      0.00000     0.38232    0.00134     0.38365
      H   29    0.10253      0.00000     0.39526    0.00222     0.39747
      H   30    0.11324      0.00000     0.38408    0.00267     0.38676
      H   31    0.11102      0.00000     0.38762    0.00135     0.38898
      H   32    0.11109      0.00000     0.38690    0.00201     0.38891
      H   33    0.11389      0.00000     0.38326    0.00284     0.38611
      H   34    0.10117      0.00000     0.39694    0.00189     0.39883
 =======================================================================
   * Total *    0.00000     19.99403    45.73266    0.27331    66.00000

 Normal termination of Gaussian 16 at Thu Dec 10 23:31:14 2020.
