 Gaussian 16, Revision A.03,

 -----------------------------------------------------------
 # opt freq B3LYP/6-31G(d) empiricaldispersion=gd3bj scf=xqc
 -----------------------------------------------------------

 ------------------------------
 CID_10905256_JID_9850_neutraal
 ------------------------------
 Symbolic Z-matrix:
 Charge =  0 Multiplicity = 1

 SCF Done:  E(RB3LYP) =  -773.221675912     A.U. after   15 cycles
 SCF Done:  E(RB3LYP) =  -773.225831316     A.U. after   15 cycles
 SCF Done:  E(RB3LYP) =  -773.226470698     A.U. after   15 cycles
 SCF Done:  E(RB3LYP) =  -773.229334687     A.U. after   12 cycles
 SCF Done:  E(RB3LYP) =  -773.230308554     A.U. after   13 cycles
 SCF Done:  E(RB3LYP) =  -773.231195050     A.U. after   15 cycles
 SCF Done:  E(RB3LYP) =  -773.231988800     A.U. after   13 cycles
 SCF Done:  E(RB3LYP) =  -773.232497602     A.U. after   14 cycles
 SCF Done:  E(RB3LYP) =  -773.232427836     A.U. after   12 cycles
 SCF Done:  E(RB3LYP) =  -773.232581831     A.U. after   12 cycles
 SCF Done:  E(RB3LYP) =  -773.232594737     A.U. after   10 cycles
 SCF Done:  E(RB3LYP) =  -773.232596436     A.U. after   11 cycles
 SCF Done:  E(RB3LYP) =  -773.232595826     A.U. after    8 cycles
 SCF Done:  E(RB3LYP) =  -773.232599222     A.U. after   10 cycles
 SCF Done:  E(RB3LYP) =  -773.232599175     A.U. after    7 cycles
 SCF Done:  E(RB3LYP) =  -773.232599141     A.U. after    7 cycles
 Optimization completed.
    -- Stationary point found.
 Normal termination of Gaussian 16 at Mon Dec 14 13:30:05 2020.

 --------------------------------------------------------------------
 #N Geom=AllCheck Guess=TCheck SCRF=Check GenChk RB3LYP/6-31G(d) Freq
 --------------------------------------------------------------------

 Structure from the checkpoint file:  "JID_9850.chk"
 ------------------------------
 CID_10905256_JID_9850_neutraal
 ------------------------------
 Charge =  0 Multiplicity = 1

 SCF Done:  E(RB3LYP) =  -773.232599141     A.U. after    1 cycles

  Exact polarizability: 387.940  23.311 155.874  21.725 -21.003 139.277
 Approx polarizability: 517.541  55.138 257.222  39.572 -47.179 228.724

                      1                      2                      3
                      A                      A                      A
 Frequencies --     18.8555                21.3148                40.2732
 Red. masses --      4.5327                 3.7245                 4.1593
 Frc consts  --      0.0009                 0.0010                 0.0040
 IR Inten    --      0.2865                 0.0122                 0.1084

                      4                      5                      6
                      A                      A                      A
 Frequencies --     53.3210                70.3803                76.8661
 Red. masses --      5.1082                 3.0329                 5.0742
 Frc consts  --      0.0086                 0.0089                 0.0177
 IR Inten    --      0.0986                 0.4797                 1.3235

                      7                      8                      9
                      A                      A                      A
 Frequencies --    133.6183               146.1429               179.8672
 Red. masses --      3.3500                 4.1269                 1.4660
 Frc consts  --      0.0352                 0.0519                 0.0279
 IR Inten    --      0.6126                 0.4529                 0.5614

                     10                     11                     12
                      A                      A                      A
 Frequencies --    195.3655               201.8665               231.7645
 Red. masses --      2.9717                 3.0972                 2.4545
 Frc consts  --      0.0668                 0.0744                 0.0777
 IR Inten    --      0.7626                 0.4178                 0.5847

                     13                     14                     15
                      A                      A                      A
 Frequencies --    239.3050               297.1163               328.3571
 Red. masses --      2.4070                 2.4500                 2.5891
 Frc consts  --      0.0812                 0.1274                 0.1645
 IR Inten    --      0.8584                 3.4819                 0.9846

                     16                     17                     18
                      A                      A                      A
 Frequencies --    335.4007               343.4154               355.7711
 Red. masses --      3.1365                 2.5974                 3.1329
 Frc consts  --      0.2079                 0.1805                 0.2336
 IR Inten    --      0.3346                 5.9477                14.7917

                     19                     20                     21
                      A                      A                      A
 Frequencies --    410.7332               412.5638               443.3224
 Red. masses --      4.3579                 2.9657                 2.2248
 Frc consts  --      0.4332                 0.2974                 0.2576
 IR Inten    --     15.7139                 0.1240                 0.4220

                     22                     23                     24
                      A                      A                      A
 Frequencies --    487.2445               504.5347               518.0167
 Red. masses --      4.3255                 4.1135                 2.9974
 Frc consts  --      0.6050                 0.6169                 0.4739
 IR Inten    --      0.2494                 4.6734                 2.7320

                     25                     26                     27
                      A                      A                      A
 Frequencies --    524.3707               613.1284               634.9827
 Red. masses --      3.6799                 3.6204                 4.8816
 Frc consts  --      0.5962                 0.8019                 1.1597
 IR Inten    --      3.0248                 0.0546                 5.5806

                     28                     29                     30
                      A                      A                      A
 Frequencies --    635.6714               684.8663               702.3563
 Red. masses --      6.2580                 3.6620                 1.8894
 Frc consts  --      1.4899                 1.0120                 0.5491
 IR Inten    --      0.3287                 4.6399                23.3086

                     31                     32                     33
                      A                      A                      A
 Frequencies --    761.1082               770.1703               795.9345
 Red. masses --      2.4166                 2.0967                 1.8857
 Frc consts  --      0.8248                 0.7328                 0.7038
 IR Inten    --     11.2031                17.6909                14.9490

                     34                     35                     36
                      A                      A                      A
 Frequencies --    822.8398               844.6693               852.2916
 Red. masses --      1.3121                 1.7753                 1.4892
 Frc consts  --      0.5234                 0.7463                 0.6374
 IR Inten    --      5.0791                 7.5029                 2.9891

                     37                     38                     39
                      A                      A                      A
 Frequencies --    859.0512               872.4025               904.0613
 Red. masses --      4.0087                 2.5116                 2.1388
 Frc consts  --      1.7430                 1.1262                 1.0299
 IR Inten    --      2.6829                 5.0008                 1.5803

                     40                     41                     42
                      A                      A                      A
 Frequencies --    912.5585               923.2647               932.7864
 Red. masses --      1.9438                 2.3989                 1.6821
 Frc consts  --      0.9537                 1.2048                 0.8623
 IR Inten    --      8.3634                 1.4626                 0.1317

                     43                     44                     45
                      A                      A                      A
 Frequencies --    965.6259               974.7977               982.1949
 Red. masses --      1.3561                 2.8472                 1.6154
 Frc consts  --      0.7450                 1.5940                 0.9182
 IR Inten    --      0.0288                26.7413                 7.8649

                     46                     47                     48
                      A                      A                      A
 Frequencies --    986.0449               998.7204              1018.9937
 Red. masses --      1.1987                 1.2409                 5.9790
 Frc consts  --      0.6867                 0.7293                 3.6578
 IR Inten    --      4.4095                 0.4897                 1.2345

                     49                     50                     51
                      A                      A                      A
 Frequencies --   1033.0407              1050.9720              1057.1087
 Red. masses --      1.5666                 1.4675                 1.1944
 Frc consts  --      0.9850                 0.9550                 0.7864
 IR Inten    --     12.4241                13.2536                31.2889

                     52                     53                     54
                      A                      A                      A
 Frequencies --   1060.6729              1085.0759              1090.8114
 Red. masses --      2.1948                 2.1536                 2.2018
 Frc consts  --      1.4548                 1.4940                 1.5436
 IR Inten    --      1.8001                 8.0765               167.2029

                     55                     56                     57
                      A                      A                      A
 Frequencies --   1096.1841              1115.9683              1138.7408
 Red. masses --      1.8571                 1.6320                 1.4261
 Frc consts  --      1.3148                 1.1975                 1.0896
 IR Inten    --    138.8851                 6.8768                48.9811

                     58                     59                     60
                      A                      A                      A
 Frequencies --   1187.8801              1195.4241              1202.5967
 Red. masses --      2.0909                 1.0993                 1.9170
 Frc consts  --      1.7383                 0.9255                 1.6334
 IR Inten    --      0.7987                 0.2422                 1.3110

                     61                     62                     63
                      A                      A                      A
 Frequencies --   1204.0362              1216.0196              1218.4317
 Red. masses --      1.4953                 1.2665                 1.1541
 Frc consts  --      1.2772                 1.1034                 1.0095
 IR Inten    --      1.3166                 5.4393                 3.4200

                     64                     65                     66
                      A                      A                      A
 Frequencies --   1257.5670              1260.6589              1267.6286
 Red. masses --      1.8500                 1.4771                 1.3924
 Frc consts  --      1.7238                 1.3831                 1.3182
 IR Inten    --     12.8245                 2.2396                60.4082

                     67                     68                     69
                      A                      A                      A
 Frequencies --   1314.1095              1331.6269              1345.6378
 Red. masses --      1.3458                 1.7207                 2.1956
 Frc consts  --      1.3693                 1.7978                 2.3424
 IR Inten    --      5.3178                60.6420                14.5812

                     70                     71                     72
                      A                      A                      A
 Frequencies --   1352.1341              1360.9840              1375.6298
 Red. masses --      1.3902                 1.4073                 1.9919
 Frc consts  --      1.4975                 1.5358                 2.2209
 IR Inten    --     15.2302                15.6537                 2.1972

                     73                     74                     75
                      A                      A                      A
 Frequencies --   1385.1966              1387.9860              1397.5677
 Red. masses --      1.6364                 1.4494                 1.8016
 Frc consts  --      1.8500                 1.6451                 2.0733
 IR Inten    --      0.5060                 0.4111                46.0545

                     76                     77                     78
                      A                      A                      A
 Frequencies --   1411.8848              1421.5812              1443.6617
 Red. masses --      1.6520                 1.8034                 1.2802
 Frc consts  --      1.9402                 2.1473                 1.5720
 IR Inten    --     30.7917                13.1118                 0.7852

                     79                     80                     81
                      A                      A                      A
 Frequencies --   1497.0089              1500.0172              1507.7534
 Red. masses --      1.0981                 2.2776                 1.0566
 Frc consts  --      1.4499                 3.0193                 1.4152
 IR Inten    --      8.1409                 7.4780                 8.0273

                     82                     83                     84
                      A                      A                      A
 Frequencies --   1511.5345              1522.4255              1523.4256
 Red. masses --      1.0676                 1.0852                 1.0712
 Frc consts  --      1.4371                 1.4820                 1.4647
 IR Inten    --      1.4165                15.1501                 3.9018

                     85                     86                     87
                      A                      A                      A
 Frequencies --   1547.4395              1634.0941              1652.9319
 Red. masses --      2.2009                 5.0975                 5.3923
 Frc consts  --      3.1052                 8.0198                 8.6802
 IR Inten    --      0.6913                 3.3305               358.5634

                     88                     89                     90
                      A                      A                      A
 Frequencies --   1666.5208              1687.0930              1762.6073
 Red. masses --      5.8079                 5.0512                 6.7992
 Frc consts  --      9.5037                 8.4707                12.4457
 IR Inten    --    170.4593               101.9668                 7.3274

                     91                     92                     93
                      A                      A                      A
 Frequencies --   1769.8259              3008.6856              3010.8701
 Red. masses --      8.7692                 1.0655                 1.0741
 Frc consts  --     16.1835                 5.6828                 5.7370
 IR Inten    --     66.0632                14.3772                48.1446

                     94                     95                     96
                      A                      A                      A
 Frequencies --   3023.1521              3024.4220              3041.1441
 Red. masses --      1.0479                 1.0704                 1.0852
 Frc consts  --      5.6430                 5.7685                 5.9136
 IR Inten    --     80.0979                 7.5690                34.6642

                     97                     98                     99
                      A                      A                      A
 Frequencies --   3056.3677              3066.2538              3081.2214
 Red. masses --      1.0710                 1.0996                 1.0901
 Frc consts  --      5.8944                 6.0911                 6.0975
 IR Inten    --     52.5571                36.8511                14.1246

                    100                    101                    102
                      A                      A                      A
 Frequencies --   3090.4355              3120.2670              3153.1415
 Red. masses --      1.1035                 1.0990                 1.0894
 Frc consts  --      6.2096                 6.3044                 6.3813
 IR Inten    --     71.4431                22.9640                44.0612

                    103                    104                    105
                      A                      A                      A
 Frequencies --   3153.9204              3166.6530              3174.0223
 Red. masses --      1.0891                 1.0885                 1.0908
 Frc consts  --      6.3828                 6.4310                 6.4746
 IR Inten    --      8.1620                 6.4824                 1.3079

                    106                    107                    108
                      A                      A                      A
 Frequencies --   3179.6391              3182.5141              3189.3076
 Red. masses --      1.0859                 1.0861                 1.0870
 Frc consts  --      6.4687                 6.4812                 6.5141
 IR Inten    --     21.2566                 8.8048                 0.6878

                    109                    110                    111
                      A                      A                      A
 Frequencies --   3199.0969              3208.3688              3215.7212
 Red. masses --      1.0908                 1.0932                 1.0976
 Frc consts  --      6.5771                 6.6302                 6.6872
 IR Inten    --     13.0194                33.7434                27.3562

 - Thermochemistry -
 -------------------
 Temperature   298.150 Kelvin.  Pressure   1.00000 Atm.
 Atom     1 has atomic number  6 and mass  12.00000

 Molecular mass:   252.15142 amu.
 Principal axes and moments of inertia in atomic units:
                           1         2         3
     Eigenvalues --  1561.53860********************
           X            0.99999  -0.00246  -0.00310
           Y            0.00210   0.99391  -0.11022
           Z            0.00336   0.11021   0.99390
 This molecule is an asymmetric top.
 Rotational symmetry number  1.
 Warning -- assumption of classical behavior for rotation
           may cause significant error
 Rotational temperatures (Kelvin)      0.05547     0.00498     0.00496
 Rotational constants (GHZ):           1.15575     0.10380     0.10335
 Zero-point vibrational energy     875744.3 (Joules/Mol)
                                  209.30790 (Kcal/Mol)
 Warning -- explicit consideration of  26 degrees of freedom as
           vibrations may cause significant error
 Vibrational temperatures:     27.13    30.67    57.94    76.72   101.26
          (Kelvin)            110.59   192.25   210.27   258.79   281.09
                              290.44   333.46   344.31   427.48   472.43
                              482.57   494.10   511.88   590.95   593.59
                              637.84   701.04   725.91   745.31   754.45
                              882.15   913.60   914.59   985.37  1010.53
                             1095.06  1108.10  1145.17  1183.88  1215.29
                             1226.26  1235.98  1255.19  1300.74  1312.97
                             1328.37  1342.07  1389.32  1402.52  1413.16
                             1418.70  1436.94  1466.10  1486.32  1512.11
                             1520.94  1526.07  1561.18  1569.43  1577.16
                             1605.63  1638.39  1709.09  1719.95  1730.27
                             1732.34  1749.58  1753.05  1809.36  1813.81
                             1823.83  1890.71  1915.91  1936.07  1945.42
                             1958.15  1979.22  1992.99  1997.00  2010.79
                             2031.39  2045.34  2077.11  2153.86  2158.19
                             2169.32  2174.76  2190.43  2191.87  2226.42
                             2351.10  2378.20  2397.75  2427.35  2536.00
                             2546.38  4328.83  4331.97  4349.64  4351.47
                             4375.53  4397.43  4411.66  4433.19  4446.45
                             4489.37  4536.67  4537.79  4556.11  4566.71
                             4574.79  4578.93  4588.70  4602.79  4616.13
                             4626.71

 Zero-point correction=                           0.333553 (Hartree/Particle)
 Thermal correction to Energy=                    0.351355
 Thermal correction to Enthalpy=                  0.352300
 Thermal correction to Gibbs Free Energy=         0.285078
 Sum of electronic and zero-point Energies=           -772.899046
 Sum of electronic and thermal Energies=              -772.881244
 Sum of electronic and thermal Enthalpies=            -772.880299
 Sum of electronic and thermal Free Energies=         -772.947521

                     E (Thermal)             CV                S
                      KCal/Mol        Cal/Mol-Kelvin    Cal/Mol-Kelvin
 Total                  220.479             68.312            141.479
 Electronic               0.000              0.000              0.000
 Translational            0.889              2.981             42.475
 Rotational               0.889              2.981             34.516
 Vibrational            218.701             62.350             64.489
 Vibration     1          0.593              1.986              6.751
 Vibration     2          0.593              1.985              6.508
 Vibration     3          0.594              1.981              5.246
 Vibration     4          0.596              1.976              4.690
 Vibration     5          0.598              1.968              4.143
 Vibration     6          0.599              1.965              3.969
 Vibration     7          0.613              1.920              2.893
 Vibration     8          0.617              1.907              2.722
 Vibration     9          0.629              1.867              2.330
 Vibration    10          0.636              1.846              2.176
 Vibration    11          0.639              1.837              2.116
 Vibration    12          0.653              1.792              1.865
 Vibration    13          0.657              1.780              1.808
 Vibration    14          0.691              1.679              1.433
 Vibration    15          0.712              1.619              1.268
 Vibration    16          0.717              1.605              1.234
 Vibration    17          0.722              1.589              1.196
 Vibration    18          0.731              1.563              1.141
 Vibration    19          0.775              1.447              0.924
 Vibration    20          0.776              1.443              0.918
 Vibration    21          0.803              1.376              0.816
 Vibration    22          0.843              1.278              0.691
 Vibration    23          0.860              1.240              0.647
 Vibration    24          0.873              1.210              0.615
 Vibration    25          0.879              1.196              0.600
 Vibration    26          0.972              1.004              0.428

 Optimization completed.
    -- Stationary point found.
 Normal termination of Gaussian 16 at Mon Dec 14 13:46:32 2020.

 ----------------------------------------------------------------------
 # B3LYP/6-311++G(d,p) empiricaldispersion=gd3bj scf=xqc pop=npa geom=c
 heck
 ----------------------------------------------------------------------

 --------------------------------------
 CID_10905256_JID_9850_Energie_neutraal
 --------------------------------------
 Structure from the checkpoint file:  "JID_9850.chk"
 Charge =  0 Multiplicity = 1

 SCF Done:  E(RB3LYP) =  -773.436808123     A.U. after   15 cycles
 Normal termination of Gaussian 16 at Mon Dec 14 13:54:47 2020.

 ----------------------------------------------------------------------
 # B3LYP/6-311++G(d,p) empiricaldispersion=gd3bj scf=xqc pop=npa geom=c
 heck
 ----------------------------------------------------------------------

 ------------------------------------
 CID_10905256_JID_9850_Energie_kation
 ------------------------------------
 Structure from the checkpoint file:  "JID_9850.chk"
 Charge =  1 Multiplicity = 2

 SCF Done:  E(UB3LYP) =  -773.162660437     A.U. after   24 cycles
 Normal termination of Gaussian 16 at Mon Dec 14 14:13:35 2020.
 Gaussian 16:  ES64L-G16RevA.03 25-Dec-2016

 ----------------------------------------------------------------------
 # B3LYP/6-311++G(d,p) empiricaldispersion=gd3bj scf=xqc pop=npa geom=c
 heck
 ----------------------------------------------------------------------

 -----------------------------------
 CID_10905256_JID_9850_Energie_anion
 -----------------------------------
 Structure from the checkpoint file:  "JID_9850.chk"
 Charge = -1 Multiplicity = 2

                         Standard orientation:
 ---------------------------------------------------------------------
 Center     Atomic      Atomic             Coordinates (Angstroms)
 Number     Number       Type             X           Y           Z
 ---------------------------------------------------------------------
      1          6           0        5.579857   -2.061873   -1.054867
      2          6           0        4.871190   -0.813839   -0.604014
      3          6           0        5.184829   -0.180596    0.531672
      4          6           0        4.480121    1.040563    1.062615
      5          6           0        3.172391    1.346999    0.322440
      6          6           0        3.358641    1.127738   -1.195622
      7          6           0        3.754879   -0.320925   -1.496315
      8          6           0        2.009109    0.498051    0.839603
      9          8           0        2.174638   -0.411596    1.643481
     10          6           0        0.668489    0.834009    0.309340
     11          6           0       -0.418801    0.103338    0.642866
     12          6           0       -1.757528    0.356953    0.182013
     13          6           0       -2.811247   -0.411615    0.544372
     14          6           0       -4.205478   -0.255994    0.144805
     15          6           0       -5.155872   -1.170748    0.634281
     16          6           0       -6.499775   -1.069490    0.285090
     17          6           0       -6.924892   -0.047623   -0.564222
     18          6           0       -5.993867    0.870555   -1.059945
     19          6           0       -4.652399    0.769457   -0.711409
     20          1           0        4.872959   -2.896138   -1.166794
     21          1           0        6.053470   -1.920370   -2.036641
     22          1           0        6.352914   -2.368669   -0.343303
     23          1           0        5.997238   -0.569236    1.144918
     24          1           0        4.267424    0.895717    2.127936
     25          1           0        5.147444    1.912930    0.994050
     26          1           0        2.890931    2.398030    0.484219
     27          1           0        2.449617    1.394586   -1.746268
     28          1           0        4.151293    1.802927   -1.541357
     29          1           0        4.055373   -0.410180   -2.549594
     30          1           0        2.880997   -0.981535   -1.381809
     31          1           0        0.575083    1.689712   -0.356131
     32          1           0       -0.261859   -0.741674    1.312541
     33          1           0       -1.897734    1.206702   -0.483832
     34          1           0       -2.612806   -1.249553    1.212549
     35          1           0       -4.827284   -1.967925    1.296337
     36          1           0       -7.214808   -1.787795    0.675784
     37          1           0       -7.972339    0.035152   -0.839181
     38          1           0       -6.318351    1.668752   -1.721573
     39          1           0       -3.944549    1.491585   -1.105913
 ---------------------------------------------------------------------

 SCF Done:  E(UB3LYP) =  -773.474622754     A.U. after   24 cycles

 The electronic state is 2-A.
 Alpha  occ. eigenvalues --  -18.94249 -10.09150 -10.07807 -10.07374 -10.06919
 Alpha  occ. eigenvalues --  -10.06602 -10.06293 -10.06226 -10.06027 -10.05992
 Alpha  occ. eigenvalues --  -10.05885 -10.05510 -10.05105 -10.05060 -10.04870
 Alpha  occ. eigenvalues --  -10.02806 -10.02521 -10.02502 -10.01139  -0.88104
 Alpha  occ. eigenvalues --   -0.73920  -0.73892  -0.67660  -0.67235  -0.64279
 Alpha  occ. eigenvalues --   -0.63830  -0.63006  -0.59881  -0.58246  -0.52770
 Alpha  occ. eigenvalues --   -0.51568  -0.49797  -0.48753  -0.45790  -0.42663
 Alpha  occ. eigenvalues --   -0.40611  -0.39615  -0.38368  -0.36495  -0.35232
 Alpha  occ. eigenvalues --   -0.34705  -0.34473  -0.33901  -0.32838  -0.32102
 Alpha  occ. eigenvalues --   -0.31670  -0.30736  -0.30061  -0.29240  -0.28404
 Alpha  occ. eigenvalues --   -0.27693  -0.27089  -0.25920  -0.25532  -0.25399
 Alpha  occ. eigenvalues --   -0.24312  -0.23666  -0.22619  -0.22279  -0.21331
 Alpha  occ. eigenvalues --   -0.20980  -0.20346  -0.19471  -0.15035  -0.14294
 Alpha  occ. eigenvalues --   -0.13765  -0.10111  -0.08476   0.01519
 Alpha virt. eigenvalues --    0.06556   0.07515   0.07766   0.08527   0.08911
 Alpha virt. eigenvalues --    0.09582   0.09726   0.09982   0.10392   0.10471
 Alpha virt. eigenvalues --    0.10682   0.11012   0.11581   0.12347   0.12629

  Beta  occ. eigenvalues --  -18.93908 -10.09008 -10.07807 -10.07376 -10.06918
  Beta  occ. eigenvalues --  -10.06578 -10.06293 -10.06224 -10.06061 -10.06039
  Beta  occ. eigenvalues --  -10.05928 -10.05506 -10.04949 -10.04897 -10.04720
  Beta  occ. eigenvalues --  -10.02755 -10.02304 -10.02198 -10.00974  -0.87504
  Beta  occ. eigenvalues --   -0.73866  -0.73704  -0.67454  -0.66876  -0.64196
  Beta  occ. eigenvalues --   -0.63478  -0.62826  -0.59672  -0.57980  -0.52523
  Beta  occ. eigenvalues --   -0.51294  -0.49584  -0.48623  -0.45473  -0.42469
  Beta  occ. eigenvalues --   -0.40409  -0.39460  -0.38307  -0.36211  -0.35178
  Beta  occ. eigenvalues --   -0.34609  -0.34346  -0.33871  -0.32712  -0.32025
  Beta  occ. eigenvalues --   -0.31553  -0.30677  -0.29981  -0.29083  -0.28275
  Beta  occ. eigenvalues --   -0.27578  -0.27033  -0.25418  -0.25285  -0.25228
  Beta  occ. eigenvalues --   -0.23611  -0.23309  -0.22498  -0.22108  -0.21181
  Beta  occ. eigenvalues --   -0.20455  -0.20214  -0.18104  -0.14014  -0.13803
  Beta  occ. eigenvalues --   -0.13445  -0.09788  -0.06809
  Beta virt. eigenvalues --    0.06514   0.06780   0.07497   0.07810   0.08519
  Beta virt. eigenvalues --    0.08887   0.09573   0.09983   0.10135   0.10385
  Beta virt. eigenvalues --    0.10574   0.10854   0.11561   0.12038   0.12390

 Mulliken charges and spin densities:
               1          2
     1  C   -0.492218  -0.003383
     2  C    0.495389  -0.008273
     3  C   -0.449938  -0.003428
     4  C   -0.711634  -0.001404
     5  C    0.827139   0.001001
     6  C   -0.585978  -0.004651
     7  C   -0.314612   0.001348
     8  C   -0.310179   0.098294
     9  O   -0.336401   0.125188
    10  C   -0.267597   0.122394
    11  C   -0.064821   0.157633
    12  C   -0.005038   0.036403
    13  C   -0.034097   0.209989
    14  C    1.348894  -0.017322
    15  C   -0.017149   0.104506
    16  C   -0.233584  -0.025189
    17  C   -0.559065   0.164268
    18  C   -0.150847  -0.046899
    19  C   -1.518285   0.121006
    20  H    0.144979   0.000431
    21  H    0.123448  -0.000069
    22  H    0.136228  -0.000194
    23  H    0.114452  -0.000125
    24  H    0.188344  -0.000054
    25  H    0.134869   0.000585
    26  H    0.191738   0.005170
    27  H    0.150818   0.000270
    28  H    0.094226   0.025656
    29  H    0.139927  -0.000028
    30  H    0.159279   0.001433
    31  H    0.113009  -0.009749
    32  H    0.169537  -0.009883
    33  H   -0.044603  -0.006862
    34  H    0.012408  -0.019621
    35  H    0.125090  -0.003748
    36  H    0.126363   0.001570
    37  H    0.099515  -0.012667
    38  H    0.150006   0.003560
    39  H    0.050389  -0.007157
 Sum of Mulliken charges =  -1.00000   1.00000

 Dipole moment (field-independent basis, Debye):
    X=              4.6057    Y=              1.0321    Z=             -2.9866  Tot=              5.5855
 Quadrupole moment (field-independent basis, Debye-Ang):
   XX=           -198.4523   YY=           -122.0106   ZZ=           -129.5849
   XY=              1.7077   XZ=             -5.6609   YZ=             -2.0621

 Summary of Natural Population Analysis:

                                       Natural Population
                Natural  -----------------------------------------------
    Atom  No    Charge         Core      Valence    Rydberg      Total
 -----------------------------------------------------------------------
      C    1   -0.29094      0.99963     2.28658    0.00474     3.29094
      C    2   -0.01467      0.99949     2.00677    0.00841     3.01467
      C    3   -0.08660      0.99946     2.07842    0.00872     3.08660
      C    4   -0.20464      0.99961     2.19567    0.00936     3.20464
      C    5   -0.14207      0.99956     2.13410    0.00841     3.14207
      C    6   -0.18002      0.99963     2.17322    0.00718     3.18002
      C    7   -0.20496      0.99959     2.19801    0.00736     3.20496
      C    8    0.27728      0.99962     1.70049    0.02261     2.72272
      O    9   -0.27629      0.99988     3.26984    0.00657     4.27629
      C   10   -0.13351      0.99949     2.12483    0.00919     3.13351
      C   11   -0.03163      0.99954     2.02270    0.00939     3.03163
      C   12   -0.09770      0.99953     2.09036    0.00781     3.09770
      C   13   -0.02557      0.99954     2.01667    0.00936     3.02557
      C   14   -0.02612      0.99939     2.01787    0.00886     3.02612
      C   15   -0.07391      0.99956     2.06539    0.00896     3.07391
      C   16   -0.12089      0.99957     2.11217    0.00914     3.12089
      C   17   -0.07578      0.99957     2.06621    0.01000     3.07578
      C   18   -0.12294      0.99958     2.11425    0.00911     3.12294
      C   19   -0.06560      0.99955     2.05758    0.00847     3.06560
      H   20    0.10012      0.00000     0.39870    0.00118     0.39988
      H   21    0.09438      0.00000     0.40435    0.00128     0.40562
      H   22    0.09788      0.00000     0.40110    0.00103     0.40212
      H   23    0.08794      0.00000     0.41088    0.00119     0.41206
      H   24    0.11194      0.00000     0.38667    0.00139     0.38806
      H   25    0.09372      0.00000     0.40501    0.00127     0.40628
      H   26    0.10252      0.00000     0.39585    0.00163     0.39748
      H   27    0.10272      0.00000     0.39618    0.00110     0.39728
      H   28    0.08995      0.00000     0.40883    0.00122     0.41005
      H   29    0.09433      0.00000     0.40437    0.00130     0.40567
      H   30    0.10990      0.00000     0.38884    0.00126     0.39010
      H   31    0.08279      0.00000     0.41572    0.00149     0.41721
      H   32    0.09929      0.00000     0.39896    0.00175     0.40071
      H   33    0.08436      0.00000     0.41405    0.00160     0.41564
      H   34    0.08377      0.00000     0.41458    0.00165     0.41623
      H   35    0.09257      0.00000     0.40606    0.00137     0.40743
      H   36    0.09235      0.00000     0.40660    0.00106     0.40765
      H   37    0.08933      0.00000     0.40965    0.00102     0.41067
      H   38    0.09243      0.00000     0.40654    0.00104     0.40757
      H   39    0.09430      0.00000     0.40435    0.00135     0.40570
 =======================================================================
   * Total *    0.00001     18.99181    48.80841    0.19978    67.99999

 Normal termination of Gaussian 16 at Mon Dec 14 14:31:53 2020.
