 Gaussian 16, Revision A.03,

 -----------------------------------------------------------
 # opt freq B3LYP/6-31G(d) empiricaldispersion=gd3bj scf=xqc
 -----------------------------------------------------------

 -------------------------------
 CID_105008857_JID_3225_neutraal
 -------------------------------
 Symbolic Z-matrix:
 Charge =  0 Multiplicity = 1

 SCF Done:  E(RB3LYP) =  -994.874802757     A.U. after   13 cycles
 SCF Done:  E(RB3LYP) =  -994.879448964     A.U. after   13 cycles
 SCF Done:  E(RB3LYP) =  -994.876151430     A.U. after   13 cycles
 SCF Done:  E(RB3LYP) =  -994.879077393     A.U. after   12 cycles
 SCF Done:  E(RB3LYP) =  -994.880460672     A.U. after    9 cycles
 SCF Done:  E(RB3LYP) =  -994.879357934     A.U. after   13 cycles
 SCF Done:  E(RB3LYP) =  -994.880909078     A.U. after   12 cycles
 SCF Done:  E(RB3LYP) =  -994.881448770     A.U. after   12 cycles
 SCF Done:  E(RB3LYP) =  -994.881531305     A.U. after   11 cycles
 SCF Done:  E(RB3LYP) =  -994.881591003     A.U. after   12 cycles
 SCF Done:  E(RB3LYP) =  -994.881754403     A.U. after   10 cycles
 SCF Done:  E(RB3LYP) =  -994.881773614     A.U. after   10 cycles
 SCF Done:  E(RB3LYP) =  -994.881772984     A.U. after    9 cycles
 SCF Done:  E(RB3LYP) =  -994.881774089     A.U. after    9 cycles
 SCF Done:  E(RB3LYP) =  -994.881774177     A.U. after    7 cycles
 SCF Done:  E(RB3LYP) =  -994.881774198     A.U. after    7 cycles
 Optimization completed.
    -- Stationary point found.
 Normal termination of Gaussian 16 at Wed Dec  9 22:39:56 2020.

 --------------------------------------------------------------------
 #N Geom=AllCheck Guess=TCheck SCRF=Check GenChk RB3LYP/6-31G(d) Freq
 --------------------------------------------------------------------

 Structure from the checkpoint file:  "JID_3225.chk"
 -------------------------------
 CID_105008857_JID_3225_neutraal
 -------------------------------
 Charge =  0 Multiplicity = 1

 SCF Done:  E(RB3LYP) =  -994.881774198     A.U. after    1 cycles

  Exact polarizability: 118.191   0.436 122.152   0.633   3.170 109.913
 Approx polarizability: 167.256  -0.736 172.473   2.366   0.930 164.253

                      1                      2                      3
                      A                      A                      A
 Frequencies --     62.1176                70.8265                93.1140
 Red. masses --      2.8684                 2.8522                 3.2055
 Frc consts  --      0.0065                 0.0084                 0.0164
 IR Inten    --      0.6571                 0.5113                 1.6949

                      4                      5                      6
                      A                      A                      A
 Frequencies --    106.7973               136.4615               158.6010
 Red. masses --      4.8202                 2.2892                 3.2777
 Frc consts  --      0.0324                 0.0251                 0.0486
 IR Inten    --      6.8933                 5.9516                 1.2010

                      7                      8                      9
                      A                      A                      A
 Frequencies --    187.4797               205.8504               208.0114
 Red. masses --      2.0020                 1.1888                 1.6360
 Frc consts  --      0.0415                 0.0297                 0.0417
 IR Inten    --      2.5848                 0.4436                 0.1173

                     10                     11                     12
                      A                      A                      A
 Frequencies --    217.0700               227.1413               237.3380
 Red. masses --      1.0676                 1.7474                 2.2282
 Frc consts  --      0.0296                 0.0531                 0.0739
 IR Inten    --      0.3079                 1.7585                 6.8421

                     13                     14                     15
                      A                      A                      A
 Frequencies --    261.3292               273.6871               283.1193
 Red. masses --      1.4556                 2.2198                 2.2067
 Frc consts  --      0.0586                 0.0980                 0.1042
 IR Inten    --      0.9517                 3.4497                 1.2489

                     16                     17                     18
                      A                      A                      A
 Frequencies --    296.6760               306.0466               328.1574
 Red. masses --      2.6252                 3.2971                 2.9985
 Frc consts  --      0.1361                 0.1820                 0.1902
 IR Inten    --      1.2673                 3.1255                 0.9913

                     19                     20                     21
                      A                      A                      A
 Frequencies --    344.3974               368.1142               381.7324
 Red. masses --      2.7030                 2.7861                 3.3909
 Frc consts  --      0.1889                 0.2224                 0.2911
 IR Inten    --      0.7969                 0.0686                 5.4274

                     22                     23                     24
                      A                      A                      A
 Frequencies --    457.0172               471.5634               486.0071
 Red. masses --      4.5137                 3.7479                 4.2276
 Frc consts  --      0.5555                 0.4910                 0.5883
 IR Inten    --     26.3615                10.4747                17.8186

                     25                     26                     27
                      A                      A                      A
 Frequencies --    534.1861               580.6009               689.8298
 Red. masses --      3.4471                 3.8914                 3.8052
 Frc consts  --      0.5796                 0.7729                 1.0669
 IR Inten    --      2.5830                17.0785                 2.1132

                     28                     29                     30
                      A                      A                      A
 Frequencies --    741.6825               795.0036               817.8660
 Red. masses --      4.9699                 1.8396                 2.1970
 Frc consts  --      1.6108                 0.6850                 0.8659
 IR Inten    --     20.9380                93.0269                 0.1268

                     31                     32                     33
                      A                      A                      A
 Frequencies --    912.7267               952.3393               971.0745
 Red. masses --      2.1305                 2.4211                 1.4416
 Frc consts  --      1.0457                 1.2938                 0.8010
 IR Inten    --      7.7712                18.1322                 0.6077

                     34                     35                     36
                      A                      A                      A
 Frequencies --    995.8600               999.3903              1011.3814
 Red. masses --      1.3706                 1.4957                 1.6405
 Frc consts  --      0.8009                 0.8802                 0.9887
 IR Inten    --      8.3946                13.2139                15.6590

                     37                     38                     39
                      A                      A                      A
 Frequencies --   1034.8297              1068.5395              1082.1575
 Red. masses --      1.4319                 2.6864                 1.8877
 Frc consts  --      0.9034                 1.8072                 1.3025
 IR Inten    --      3.4076                22.7118                22.4749

                     40                     41                     42
                      A                      A                      A
 Frequencies --   1103.3762              1146.5314              1162.8930
 Red. masses --      5.5642                 3.9591                 1.6193
 Frc consts  --      3.9912                 3.0663                 1.2902
 IR Inten    --    117.7658               129.0974                44.3997

                     43                     44                     45
                      A                      A                      A
 Frequencies --   1176.1487              1186.8939              1193.9437
 Red. masses --      2.2539                 1.4720                 1.8549
 Frc consts  --      1.8370                 1.2217                 1.5579
 IR Inten    --     25.0901                 3.0183                 8.0581

                     46                     47                     48
                      A                      A                      A
 Frequencies --   1198.4378              1222.9659              1243.5988
 Red. masses --      1.9037                 2.5765                 2.2571
 Frc consts  --      1.6110                 2.2704                 2.0566
 IR Inten    --     12.4932                31.5716                 6.3867

                     49                     50                     51
                      A                      A                      A
 Frequencies --   1252.6769              1283.2887              1315.5408
 Red. masses --      1.7901                12.0385                 1.2207
 Frc consts  --      1.6550                11.6807                 1.2447
 IR Inten    --     10.0536               206.7305                14.7530

                     52                     53                     54
                      A                      A                      A
 Frequencies --   1348.8508              1364.6743              1400.0701
 Red. masses --      1.4377                 1.2106                 1.2372
 Frc consts  --      1.5412                 1.3284                 1.4289
 IR Inten    --      4.9216                13.3325                14.5649

                     55                     56                     57
                      A                      A                      A
 Frequencies --   1421.3662              1433.0753              1447.4893
 Red. masses --      1.2280                 1.2798                 1.2058
 Frc consts  --      1.4617                 1.5485                 1.4885
 IR Inten    --      9.2569                10.0829                17.9539

                     58                     59                     60
                      A                      A                      A
 Frequencies --   1472.6712              1486.1015              1497.0465
 Red. masses --      1.0533                 1.1637                 1.1709
 Frc consts  --      1.3460                 1.5143                 1.5461
 IR Inten    --      2.8044                 1.5015                 2.8533

                     61                     62                     63
                      A                      A                      A
 Frequencies --   1497.9960              1509.2811              1515.1688
 Red. masses --      1.0598                 1.0624                 1.0667
 Frc consts  --      1.4012                 1.4259                 1.4428
 IR Inten    --      9.8007                 7.0737                12.3724

                     64                     65                     66
                      A                      A                      A
 Frequencies --   1517.8139              1520.4053              1528.5995
 Red. masses --      1.0684                 1.0612                 1.1010
 Frc consts  --      1.4501                 1.4454                 1.5158
 IR Inten    --      6.0394                 6.7933                 1.8749

                     67                     68                     69
                      A                      A                      A
 Frequencies --   1532.3599              1536.7215              1544.1038
 Red. masses --      1.0646                 1.0496                 1.0637
 Frc consts  --      1.4729                 1.4603                 1.4942
 IR Inten    --      2.8690                 4.7936                 8.1420

                     70                     71                     72
                      A                      A                      A
 Frequencies --   1548.7513              1554.2456              2963.1010
 Red. masses --      1.0629                 1.0729                 1.0600
 Frc consts  --      1.5021                 1.5270                 5.4831
 IR Inten    --      9.6792                30.9201                85.8869

                     73                     74                     75
                      A                      A                      A
 Frequencies --   2989.3559              3005.8288              3013.3021
 Red. masses --      1.0742                 1.0746                 1.0492
 Frc consts  --      5.6557                 5.7202                 5.6132
 IR Inten    --     16.7733                56.1009               108.3188

                     76                     77                     78
                      A                      A                      A
 Frequencies --   3058.8443              3066.4434              3080.3270
 Red. masses --      1.0444                 1.0406                 1.0734
 Frc consts  --      5.7572                 5.7648                 6.0005
 IR Inten    --     10.7933                29.4045                44.4055

                     79                     80                     81
                      A                      A                      A
 Frequencies --   3093.2647              3096.2444              3100.4180
 Red. masses --      1.0916                 1.0320                 1.0917
 Frc consts  --      6.1540                 5.8292                 6.1827
 IR Inten    --     28.2779                 3.7245                14.3937

                     82                     83                     84
                      A                      A                      A
 Frequencies --   3124.0217              3136.4453              3139.2319
 Red. masses --      1.1029                 1.0942                 1.0938
 Frc consts  --      6.3417                 6.3420                 6.3510
 IR Inten    --     28.6771                 4.9611                18.7437

                     85                     86                     87
                      A                      A                      A
 Frequencies --   3145.3388              3162.8140              3174.2155
 Red. masses --      1.1031                 1.1017                 1.1041
 Frc consts  --      6.4296                 6.4930                 6.5542
 IR Inten    --     25.1813                 9.8539                 6.4728

                     88                     89                     90
                      A                      A                      A
 Frequencies --   3194.6394              3231.1230              3540.7647
 Red. masses --      1.1035                 1.1073                 1.0745
 Frc consts  --      6.6356                 6.8112                 7.9372
 IR Inten    --      1.8331                 2.5202                17.2572

 - Thermochemistry -
 -------------------
 Temperature   298.150 Kelvin.  Pressure   1.00000 Atm.
 Atom     1 has atomic number  6 and mass  12.00000

 Molecular mass:   209.10857 amu.
 Principal axes and moments of inertia in atomic units:
                           1         2         3
     Eigenvalues --  2242.402222635.689203558.94334
           X            0.99860  -0.05265  -0.00580
           Y            0.05267   0.99861   0.00352
           Z            0.00560  -0.00382   0.99998
 This molecule is an asymmetric top.
 Rotational symmetry number  1.
 Warning -- assumption of classical behavior for rotation
           may cause significant error
 Rotational temperatures (Kelvin)      0.03863     0.03286     0.02434
 Rotational constants (GHZ):           0.80482     0.68473     0.50710
 Zero-point vibrational energy     734716.1 (Joules/Mol)
                                  175.60136 (Kcal/Mol)
 Warning -- explicit consideration of  26 degrees of freedom as
           vibrations may cause significant error
 Vibrational temperatures:     89.37   101.90   133.97   153.66   196.34
          (Kelvin)            228.19   269.74   296.17   299.28   312.32
                              326.81   341.48   375.99   393.77   407.35
                              426.85   440.33   472.15   495.51   529.63
                              549.23   657.55   678.47   699.26   768.57
                              835.36   992.51  1067.12  1143.83  1176.73
                             1313.21  1370.20  1397.16  1432.82  1437.90
                             1455.15  1488.89  1537.39  1556.98  1587.51
                             1649.60  1673.14  1692.22  1707.68  1717.82
                             1724.28  1759.58  1789.26  1802.32  1846.37
                             1892.77  1940.70  1963.46  2014.39  2045.03
                             2061.88  2082.61  2118.85  2138.17  2153.92
                             2155.28  2171.52  2179.99  2183.80  2187.52
                             2199.31  2204.72  2211.00  2221.62  2228.31
                             2236.21  4263.24  4301.02  4324.72  4335.47
                             4400.99  4411.93  4431.90  4450.52  4454.81
                             4460.81  4494.77  4512.65  4516.65  4525.44
                             4550.58  4566.99  4596.37  4648.87  5094.37

 Zero-point correction=                           0.279839 (Hartree/Particle)
 Thermal correction to Energy=                    0.296023
 Thermal correction to Enthalpy=                  0.296967
 Thermal correction to Gibbs Free Energy=         0.237913
 Sum of electronic and zero-point Energies=           -994.601936
 Sum of electronic and thermal Energies=              -994.585752
 Sum of electronic and thermal Enthalpies=            -994.584807
 Sum of electronic and thermal Free Energies=         -994.643861

                     E (Thermal)             CV                S
                      KCal/Mol        Cal/Mol-Kelvin    Cal/Mol-Kelvin
 Total                  185.757             59.812            124.289
 Electronic               0.000              0.000              0.000
 Translational            0.889              2.981             41.917
 Rotational               0.889              2.981             31.420
 Vibrational            183.980             53.850             50.952
 Vibration     1          0.597              1.972              4.389
 Vibration     2          0.598              1.968              4.130
 Vibration     3          0.602              1.954              3.594
 Vibration     4          0.606              1.944              3.326
 Vibration     5          0.614              1.917              2.853
 Vibration     6          0.621              1.893              2.566
 Vibration     7          0.632              1.857              2.253
 Vibration     8          0.640              1.832              2.080
 Vibration     9          0.641              1.828              2.061
 Vibration    10          0.646              1.815              1.983
 Vibration    11          0.651              1.800              1.901
 Vibration    12          0.656              1.784              1.823
 Vibration    13          0.669              1.744              1.653
 Vibration    14          0.676              1.722              1.573
 Vibration    15          0.682              1.705              1.515
 Vibration    16          0.690              1.680              1.436
 Vibration    17          0.696              1.662              1.384
 Vibration    18          0.711              1.619              1.269
 Vibration    19          0.723              1.587              1.192
 Vibration    20          0.741              1.538              1.088
 Vibration    21          0.751              1.509              1.032
 Vibration    22          0.815              1.345              0.775
 Vibration    23          0.829              1.313              0.733
 Vibration    24          0.842              1.281              0.694
 Vibration    25          0.889              1.174              0.578
 Vibration    26          0.937              1.073              0.484

 Optimization completed.
    -- Stationary point found.
 Normal termination of Gaussian 16 at Wed Dec  9 22:51:13 2020.

 ----------------------------------------------------------------------
 # B3LYP/6-311++G(d,p) empiricaldispersion=gd3bj scf=xqc pop=npa geom=c
 heck
 ----------------------------------------------------------------------

 ---------------------------------------
 CID_105008857_JID_3225_Energie_neutraal
 ---------------------------------------
 Structure from the checkpoint file:  "JID_3225.chk"
 Charge =  0 Multiplicity = 1

 SCF Done:  E(RB3LYP) =  -995.089411165     A.U. after   14 cycles
 Normal termination of Gaussian 16 at Wed Dec  9 22:56:29 2020.

 ----------------------------------------------------------------------
 # B3LYP/6-311++G(d,p) empiricaldispersion=gd3bj scf=xqc pop=npa geom=c
 heck
 ----------------------------------------------------------------------

 -------------------------------------
 CID_105008857_JID_3225_Energie_kation
 -------------------------------------
 Structure from the checkpoint file:  "JID_3225.chk"
 Charge =  1 Multiplicity = 2

 SCF Done:  E(UB3LYP) =  -994.776338607     A.U. after   25 cycles
 Normal termination of Gaussian 16 at Wed Dec  9 23:09:31 2020.
 Gaussian 16:  ES64L-G16RevA.03 25-Dec-2016

 ----------------------------------------------------------------------
 # B3LYP/6-311++G(d,p) empiricaldispersion=gd3bj scf=xqc pop=npa geom=c
 heck
 ----------------------------------------------------------------------

 ------------------------------------
 CID_105008857_JID_3225_Energie_anion
 ------------------------------------
 Structure from the checkpoint file:  "JID_3225.chk"
 Charge = -1 Multiplicity = 2

                         Standard orientation:
 ---------------------------------------------------------------------
 Center     Atomic      Atomic             Coordinates (Angstroms)
 Number     Number       Type             X           Y           Z
 ---------------------------------------------------------------------
      1          6           0       -1.102729    0.777938    2.028023
      2          6           0       -0.576802    0.882597    0.587158
      3          6           0       -1.017584    2.212198   -0.032290
      4          6           0        0.980955    0.765710    0.555220
      5          6           0        1.564642   -0.592788    0.983599
      6          8           0        1.710802   -1.413907   -0.164333
      7          6           0        1.851283   -2.787962    0.150982
      8          7           0        1.555724    1.189292   -0.724656
      9          6           0        2.391573    2.381193   -0.658709
     10         16           0       -1.465259   -0.489648   -0.306927
     11          8           0       -1.183339   -1.757249    0.398716
     12          8           0       -2.869503   -0.058189   -0.457288
     13          6           0       -0.763118   -0.600669   -1.965266
     14          1           0       -0.671405    1.590356    2.623415
     15          1           0       -0.849410   -0.176160    2.494183
     16          1           0       -2.190883    0.881003    2.043141
     17          1           0       -0.606380    3.035386    0.564278
     18          1           0       -0.642112    2.317147   -1.051883
     19          1           0       -2.105968    2.293166   -0.032561
     20          1           0        1.291637    1.480502    1.332627
     21          1           0        2.554514   -0.434156    1.441198
     22          1           0        0.920925   -1.082930    1.720535
     23          1           0        0.946145   -3.161476    0.643799
     24          1           0        1.995479   -3.316877   -0.794290
     25          1           0        2.726544   -2.961733    0.795413
     26          1           0        2.075030    0.412021   -1.120396
     27          1           0        3.203441    2.325798    0.089099
     28          1           0        2.844448    2.556614   -1.639797
     29          1           0        1.776761    3.255333   -0.418271
     30          1           0       -0.793864    0.380208   -2.438470
     31          1           0        0.254756   -0.974240   -1.882320
     32          1           0       -1.408579   -1.305184   -2.495346
 ---------------------------------------------------------------------

 SCF Done:  E(UB3LYP) =  -995.077363844     A.U. after   28 cycles

 The electronic state is 2-A.
 Alpha  occ. eigenvalues --  -88.93902 -19.03602 -19.01026 -19.00983 -14.19732
 Alpha  occ. eigenvalues --  -10.12564 -10.12112 -10.11682 -10.11592 -10.10492
 Alpha  occ. eigenvalues --  -10.08211 -10.07653 -10.06971  -8.00453  -5.96717
 Alpha  occ. eigenvalues --   -5.96605  -5.96531  -1.00124  -0.94913  -0.89718
 Alpha  occ. eigenvalues --   -0.81344  -0.73111  -0.67293  -0.65411  -0.60377
 Alpha  occ. eigenvalues --   -0.58914  -0.55734  -0.55187  -0.51380  -0.45541
 Alpha  occ. eigenvalues --   -0.40890  -0.40417  -0.39966  -0.39656  -0.37640
 Alpha  occ. eigenvalues --   -0.36594  -0.36509  -0.34473  -0.34191  -0.33685
 Alpha  occ. eigenvalues --   -0.32512  -0.31387  -0.31331  -0.30260  -0.29833
 Alpha  occ. eigenvalues --   -0.29344  -0.27734  -0.26729  -0.25572  -0.24716
 Alpha  occ. eigenvalues --   -0.23536  -0.22531  -0.21755  -0.19969  -0.18418
 Alpha  occ. eigenvalues --   -0.17236  -0.13046   0.04392
 Alpha virt. eigenvalues --    0.06648   0.07092   0.07849   0.08961   0.09480
 Alpha virt. eigenvalues --    0.09585   0.10270   0.10694   0.11542   0.12010
 Alpha virt. eigenvalues --    0.12324   0.12546   0.13056   0.13620   0.13906

  Beta  occ. eigenvalues --  -88.93897 -19.03597 -19.01022 -19.00980 -14.19723
  Beta  occ. eigenvalues --  -10.12564 -10.12084 -10.11666 -10.11567 -10.10484
  Beta  occ. eigenvalues --  -10.08156 -10.07632 -10.06949  -8.00449  -5.96714
  Beta  occ. eigenvalues --   -5.96603  -5.96518  -1.00113  -0.94903  -0.89711
  Beta  occ. eigenvalues --   -0.81323  -0.73093  -0.67276  -0.65368  -0.60337
  Beta  occ. eigenvalues --   -0.58858  -0.55639  -0.55151  -0.51321  -0.45507
  Beta  occ. eigenvalues --   -0.40843  -0.40375  -0.39943  -0.39618  -0.37620
  Beta  occ. eigenvalues --   -0.36575  -0.36487  -0.34452  -0.34153  -0.33624
  Beta  occ. eigenvalues --   -0.32497  -0.31349  -0.31293  -0.30222  -0.29798
  Beta  occ. eigenvalues --   -0.29315  -0.27696  -0.26682  -0.25538  -0.24690
  Beta  occ. eigenvalues --   -0.23498  -0.22518  -0.21741  -0.19962  -0.18398
  Beta  occ. eigenvalues --   -0.17212  -0.13016
  Beta virt. eigenvalues --    0.06714   0.07481   0.07755   0.08463   0.09510
  Beta virt. eigenvalues --    0.10017   0.10084   0.10577   0.11017   0.12050
  Beta virt. eigenvalues --    0.12410   0.12505   0.12924   0.13111   0.14015

 Mulliken charges and spin densities:
               1          2
     1  C   -0.026607  -0.612356
     2  C   -0.522392   0.656107
     3  C    1.016684  -1.413350
     4  C   -0.234921  -0.212130
     5  C   -0.302927  -0.451661
     6  O   -0.195639   0.030737
     7  C    0.325832  -0.622466
     8  N   -0.132924   0.231332
     9  C    1.202273  -1.485630
    10  S    0.170136   0.004033
    11  O   -0.189024   0.011160
    12  O   -0.066574   0.007450
    13  C   -0.458711  -0.154359
    14  H   -0.364954   0.533448
    15  H    0.075822   0.083640
    16  H    0.174352   0.003484
    17  H   -0.101377   0.291012
    18  H    0.088843   0.069871
    19  H    0.158030   0.036721
    20  H   -0.058715   0.284829
    21  H   -0.636443   0.818321
    22  H    0.161644  -0.000299
    23  H    0.120270   0.054967
    24  H   -0.196955   0.331648
    25  H   -0.272765   0.405194
    26  H    0.128080   0.129503
    27  H   -0.448678   0.608443
    28  H   -0.572400   0.706661
    29  H   -0.350474   0.487505
    30  H    0.093935   0.145803
    31  H    0.265453  -0.055492
    32  H    0.151125   0.075873
 Sum of Mulliken charges =  -1.00000   1.00000

 Dipole moment (field-independent basis, Debye):
    X=             -5.3328    Y=             -3.4745    Z=             -2.1802  Tot=              6.7279
 Quadrupole moment (field-independent basis, Debye-Ang):
   XX=           -157.7052   YY=           -143.2238   ZZ=           -122.9812
   XY=            -10.5021   XZ=             -3.5123   YZ=              1.1708

 Summary of Natural Population Analysis:

                                       Natural Population
                Natural  -----------------------------------------------
    Atom  No    Charge         Core      Valence    Rydberg      Total
 -----------------------------------------------------------------------
      C    1   -0.30100      0.99961     2.29260    0.00880     3.30100
      C    2   -0.11109      0.99951     2.09384    0.01774     3.11109
      C    3   -0.30069      0.99960     2.29269    0.00840     3.30069
      C    4   -0.02944      0.99952     2.01030    0.01961     3.02944
      C    5   -0.01303      0.99954     2.00047    0.01302     3.01303
      O    6   -0.31237      0.99988     3.30188    0.01061     4.31237
      C    7   -0.09642      0.99961     2.08774    0.00908     3.09642
      N    8   -0.35502      0.99973     2.84135    0.01393     3.85502
      C    9   -0.17358      0.99965     2.16580    0.00813     3.17358
      S   10    1.02450      4.99916     1.88454    0.09180     6.97550
      O   11   -0.47644      0.99991     3.47061    0.00592     4.47644
      O   12   -0.47960      0.99991     3.47400    0.00569     4.47960
      C   13   -0.39189      0.99960     2.38425    0.00804     3.39189
      H   14    0.10843      0.00000     0.39040    0.00118     0.39157
      H   15    0.11008      0.00000     0.38887    0.00105     0.38992
      H   16    0.11004      0.00000     0.38898    0.00099     0.38996
      H   17    0.10706      0.00000     0.39167    0.00126     0.39294
      H   18    0.11178      0.00000     0.38694    0.00127     0.38822
      H   19    0.11170      0.00000     0.38734    0.00096     0.38830
      H   20    0.10367      0.00000     0.39266    0.00367     0.39633
      H   21    0.08903      0.00000     0.40872    0.00226     0.41097
      H   22    0.09216      0.00000     0.40606    0.00177     0.40784
      H   23    0.09028      0.00000     0.40850    0.00122     0.40972
      H   24    0.08787      0.00000     0.41114    0.00099     0.41213
      H   25    0.08044      0.00000     0.41813    0.00143     0.41956
      H   26    0.18473      0.00000     0.31152    0.00375     0.31527
      H   27    0.08500      0.00000     0.41232    0.00268     0.41500
      H   28    0.09591      0.00000     0.40268    0.00142     0.40409
      H   29    0.09154      0.00000     0.40651    0.00195     0.40846
      H   30    0.11730      0.00000     0.38154    0.00116     0.38270
      H   31    0.12619      0.00000     0.37200    0.00181     0.37381
      H   32    0.11286      0.00000     0.38614    0.00100     0.38714
 =======================================================================
   * Total *    0.00000     16.99521    39.75219    0.25259    57.00000

 Normal termination of Gaussian 16 at Wed Dec  9 23:23:41 2020.
