 Gaussian 16, Revision A.03,

 -----------------------------------------------------------
 # opt freq B3LYP/6-31G(d) empiricaldispersion=gd3bj scf=xqc
 -----------------------------------------------------------

 -------------------------------
 CID_115115469_JID_7583_neutraal
 -------------------------------
 Symbolic Z-matrix:
 Charge =  0 Multiplicity = 1

 SCF Done:  E(RB3LYP) =  -711.884259726     A.U. after   15 cycles
 SCF Done:  E(RB3LYP) =  -711.889697315     A.U. after   13 cycles
 SCF Done:  E(RB3LYP) =  -711.890636910     A.U. after   13 cycles
 SCF Done:  E(RB3LYP) =  -711.890422951     A.U. after   14 cycles
 SCF Done:  E(RB3LYP) =  -711.891328170     A.U. after   13 cycles
 SCF Done:  E(RB3LYP) =  -711.891515302     A.U. after   12 cycles
 SCF Done:  E(RB3LYP) =  -711.891605855     A.U. after   11 cycles
 SCF Done:  E(RB3LYP) =  -711.891620589     A.U. after   10 cycles
 SCF Done:  E(RB3LYP) =  -711.891625450     A.U. after   10 cycles
 SCF Done:  E(RB3LYP) =  -711.891626092     A.U. after    8 cycles
 SCF Done:  E(RB3LYP) =  -711.891626131     A.U. after    6 cycles
 Optimization completed.
    -- Stationary point found.
 Normal termination of Gaussian 16 at Sun Dec 13 12:27:55 2020.

 --------------------------------------------------------------------
 #N Geom=AllCheck Guess=TCheck SCRF=Check GenChk RB3LYP/6-31G(d) Freq
 --------------------------------------------------------------------

 Structure from the checkpoint file:  "JID_7583.chk"
 -------------------------------
 CID_115115469_JID_7583_neutraal
 -------------------------------
 Charge =  0 Multiplicity = 1

 SCF Done:  E(RB3LYP) =  -711.891626131     A.U. after    1 cycles

  Exact polarizability: 226.407   6.117 174.199   1.630   1.489  90.124
 Approx polarizability: 313.813   5.871 319.834   3.846   4.705 134.879

                      1                      2                      3
                      A                      A                      A
 Frequencies --     38.7550                56.2721                68.1514
 Red. masses --      4.5248                 4.0337                 2.9130
 Frc consts  --      0.0040                 0.0075                 0.0080
 IR Inten    --      0.0348                 3.8900                 0.2218

                      4                      5                      6
                      A                      A                      A
 Frequencies --     85.4917               127.8151               152.9267
 Red. masses --      3.1617                 4.7810                 3.3793
 Frc consts  --      0.0136                 0.0460                 0.0466
 IR Inten    --      0.1307                 0.4447                 1.3690

                      7                      8                      9
                      A                      A                      A
 Frequencies --    175.2590               194.5700               232.5616
 Red. masses --      1.0425                 4.0743                 4.0932
 Frc consts  --      0.0189                 0.0909                 0.1304
 IR Inten    --      0.3726                 5.0099                 1.8148

                     10                     11                     12
                      A                      A                      A
 Frequencies --    236.0970               266.4806               312.2426
 Red. masses --      2.9261                 2.0746                 3.5318
 Frc consts  --      0.0961                 0.0868                 0.2029
 IR Inten    --      0.0317                 0.0253                 0.2105

                     13                     14                     15
                      A                      A                      A
 Frequencies --    383.7598               389.0153               411.7894
 Red. masses --      4.8419                 4.1369                 5.2449
 Frc consts  --      0.4201                 0.3689                 0.5240
 IR Inten    --      0.2831                 0.8391                 0.2178

                     16                     17                     18
                      A                      A                      A
 Frequencies --    457.5195               458.9817               554.0246
 Red. masses --      3.2028                 3.7183                 2.0415
 Frc consts  --      0.3950                 0.4615                 0.3692
 IR Inten    --      1.4937                 3.0719                 1.1474

                     19                     20                     21
                      A                      A                      A
 Frequencies --    579.8159               585.0703               606.1629
 Red. masses --      3.5611                 4.0356                 3.6181
 Frc consts  --      0.7054                 0.8139                 0.7833
 IR Inten    --      0.6456                11.9450                 3.9030

                     22                     23                     24
                      A                      A                      A
 Frequencies --    610.7030               629.8882               650.6272
 Red. masses --      3.5645                 3.7131                 3.6064
 Frc consts  --      0.7833                 0.8680                 0.8995
 IR Inten    --      0.2973                 3.6353                 3.9639

                     25                     26                     27
                      A                      A                      A
 Frequencies --    681.0081               733.3251               746.7001
 Red. masses --      4.8765                 2.3567                 1.5185
 Frc consts  --      1.3325                 0.7467                 0.4988
 IR Inten    --     31.4240                 5.9303                 1.5699

                     28                     29                     30
                      A                      A                      A
 Frequencies --    770.0313               814.5221               830.9333
 Red. masses --      1.2568                 3.0655                 1.8999
 Frc consts  --      0.4391                 1.1983                 0.7729
 IR Inten    --     67.7485                 0.6233                13.7567

                     31                     32                     33
                      A                      A                      A
 Frequencies --    854.5384               867.3506               874.4027
 Red. masses --      3.6751                 2.0090                 1.3504
 Frc consts  --      1.5812                 0.8905                 0.6083
 IR Inten    --      2.3560                 0.4648                 3.3352

                     34                     35                     36
                      A                      A                      A
 Frequencies --    900.7203               903.8643               913.2233
 Red. masses --      1.3681                 3.0264                 2.3522
 Frc consts  --      0.6540                 1.4567                 1.1558
 IR Inten    --      0.0497                 0.6439                 1.2603

                     37                     38                     39
                      A                      A                      A
 Frequencies --    918.0645               942.5879               949.7029
 Red. masses --      4.6412                 1.8404                 1.2642
 Frc consts  --      2.3048                 0.9634                 0.6718
 IR Inten    --     23.3528                 2.9406                 0.4476

                     40                     41                     42
                      A                      A                      A
 Frequencies --    969.4288              1001.0034              1037.7039
 Red. masses --      1.5527                 1.9807                 1.5608
 Frc consts  --      0.8597                 1.1693                 0.9902
 IR Inten    --      7.6456                36.4279                 2.2715

                     43                     44                     45
                      A                      A                      A
 Frequencies --   1049.1205              1052.4715              1074.1989
 Red. masses --      1.6411                 1.8335                 1.5260
 Frc consts  --      1.0642                 1.1966                 1.0375
 IR Inten    --      2.2342                 2.2261                 6.9334

                     46                     47                     48
                      A                      A                      A
 Frequencies --   1100.9457              1111.1865              1124.9522
 Red. masses --      2.9330                 2.1232                 2.1494
 Frc consts  --      2.0945                 1.5446                 1.6026
 IR Inten    --      2.6654                 5.2944                 6.1201

                     49                     50                     51
                      A                      A                      A
 Frequencies --   1172.1398              1200.2823              1204.7922
 Red. masses --      1.5810                 1.4089                 1.4247
 Frc consts  --      1.2798                 1.1959                 1.2184
 IR Inten    --     73.6355                 1.7035                 8.9313

                     52                     53                     54
                      A                      A                      A
 Frequencies --   1227.5484              1237.5445              1253.4086
 Red. masses --      1.4888                 2.2916                 1.4783
 Frc consts  --      1.3218                 2.0678                 1.3684
 IR Inten    --     29.5502                28.8962                 1.6730

                     55                     56                     57
                      A                      A                      A
 Frequencies --   1272.9543              1294.9347              1304.7947
 Red. masses --      1.2693                 1.9159                 3.7824
 Frc consts  --      1.2119                 1.8928                 3.7940
 IR Inten    --      2.4584                78.0541                93.3053

                     58                     59                     60
                      A                      A                      A
 Frequencies --   1321.1184              1336.9216              1346.5891
 Red. masses --      1.3162                 1.3118                 1.6255
 Frc consts  --      1.3535                 1.3815                 1.7366
 IR Inten    --      0.4406                12.9096                27.3390

                     61                     62                     63
                      A                      A                      A
 Frequencies --   1360.2005              1365.4304              1372.7698
 Red. masses --      1.3681                 1.4662                 2.3090
 Frc consts  --      1.4913                 1.6105                 2.5637
 IR Inten    --      3.8483                13.7819                33.2704

                     64                     65                     66
                      A                      A                      A
 Frequencies --   1399.7453              1406.8593              1424.2276
 Red. masses --      2.9090                 1.4475                 2.5660
 Frc consts  --      3.3581                 1.6880                 3.0667
 IR Inten    --     29.6408                16.8267                26.2350

                     67                     68                     69
                      A                      A                      A
 Frequencies --   1464.5398              1475.0503              1502.1079
 Red. masses --      1.9197                 4.3096                 1.0654
 Frc consts  --      2.4259                 5.5246                 1.4164
 IR Inten    --     45.1396               108.8284                 6.7859

                     70                     71                     72
                      A                      A                      A
 Frequencies --   1509.8831              1520.7138              1523.2439
 Red. masses --      1.0485                 1.0879                 1.0861
 Frc consts  --      1.4083                 1.4824                 1.4848
 IR Inten    --      8.4088                 1.5637                 3.8043

                     73                     74                     75
                      A                      A                      A
 Frequencies --   1526.7734              1540.0284              1546.9304
 Red. masses --      1.0915                 2.7701                 1.1146
 Frc consts  --      1.4991                 3.8708                 1.5715
 IR Inten    --      6.0365                 3.8310                11.1713

                     76                     77                     78
                      A                      A                      A
 Frequencies --   1557.7536              1616.6837              1658.6598
 Red. masses --      4.3561                 6.4003                 6.1200
 Frc consts  --      6.2279                 9.8560                 9.9200
 IR Inten    --     66.4042                31.6681                 5.9605

                     79                     80                     81
                      A                      A                      A
 Frequencies --   1762.4288              3043.1490              3051.3986
 Red. masses --     10.6664                 1.0713                 1.0649
 Frc consts  --     19.5206                 5.8451                 5.8420
 IR Inten    --    159.2434                20.3943                37.2147

                     82                     83                     84
                      A                      A                      A
 Frequencies --   3055.6909              3072.9914              3076.3000
 Red. masses --      1.0378                 1.0712                 1.0650
 Frc consts  --      5.7094                 5.9602                 5.9382
 IR Inten    --      3.3271                16.3324                 8.0508

                     85                     86                     87
                      A                      A                      A
 Frequencies --   3087.2683              3106.4131              3109.4326
 Red. masses --      1.0794                 1.0917                 1.0993
 Frc consts  --      6.0616                 6.2069                 6.2624
 IR Inten    --     23.3212                34.4671                39.3236

                     88                     89                     90
                      A                      A                      A
 Frequencies --   3116.3049              3122.6697              3132.4625
 Red. masses --      1.1002                 1.1047                 1.1024
 Frc consts  --      6.2949                 6.3466                 6.3734
 IR Inten    --     11.4479                24.9396                47.8442

                     91                     92                     93
                      A                      A                      A
 Frequencies --   3169.1132              3195.0577              3218.4810
 Red. masses --      1.1015                 1.0870                 1.0899
 Frc consts  --      6.5179                 6.5379                 6.6518
 IR Inten    --     14.7703                 6.5008                15.5860

                     94                     95                     96
                      A                      A                      A
 Frequencies --   3225.8044              3259.9726              3323.1781
 Red. masses --      1.0940                 1.0948                 1.0983
 Frc consts  --      6.7071                 6.8549                 7.1464
 IR Inten    --     14.8510                 2.3765                 2.7475

 - Thermochemistry -
 -------------------
 Temperature   298.150 Kelvin.  Pressure   1.00000 Atm.
 Atom     1 has atomic number  6 and mass  12.00000

 Molecular mass:   227.13101 amu.
 Principal axes and moments of inertia in atomic units:
                           1         2         3
     Eigenvalues --  1517.775566757.969597790.91764
           X            0.99997   0.00797   0.00003
           Y           -0.00797   0.99997  -0.00098
           Z           -0.00003   0.00098   1.00000
 This molecule is an asymmetric top.
 Rotational symmetry number  1.
 Warning -- assumption of classical behavior for rotation
           may cause significant error
 Rotational temperatures (Kelvin)      0.05707     0.01282     0.01112
 Rotational constants (GHZ):           1.18907     0.26705     0.23165
 Zero-point vibrational energy     762970.5 (Joules/Mol)
                                  182.35434 (Kcal/Mol)
 Warning -- explicit consideration of  22 degrees of freedom as
           vibrations may cause significant error
 Vibrational temperatures:     55.76    80.96    98.05   123.00   183.90
          (Kelvin)            220.03   252.16   279.94   334.60   339.69
                              383.41   449.25   552.14   559.71   592.47
                              658.27   660.37   797.12   834.23   841.79
                              872.13   878.67   906.27   936.11   979.82
                             1055.09  1074.33  1107.90  1171.92  1195.53
                             1229.49  1247.92  1258.07  1295.94  1300.46
                             1313.92  1320.89  1356.17  1366.41  1394.79
                             1440.22  1493.02  1509.45  1514.27  1545.53
                             1584.02  1598.75  1618.56  1686.45  1726.94
                             1733.43  1766.17  1780.55  1803.38  1831.50
                             1863.12  1877.31  1900.79  1923.53  1937.44
                             1957.03  1964.55  1975.11  2013.92  2024.16
                             2049.15  2107.15  2122.27  2161.20  2172.39
                             2187.97  2191.61  2196.69  2215.76  2225.69
                             2241.26  2326.05  2386.44  2535.74  4378.41
                             4390.28  4396.46  4421.35  4426.11  4441.89
                             4469.44  4473.78  4483.67  4492.83  4506.91
                             4559.65  4596.98  4630.68  4641.21  4690.37
                             4781.31

 Zero-point correction=                           0.290600 (Hartree/Particle)
 Thermal correction to Energy=                    0.305184
 Thermal correction to Enthalpy=                  0.306129
 Thermal correction to Gibbs Free Energy=         0.248506
 Sum of electronic and zero-point Energies=           -711.601026
 Sum of electronic and thermal Energies=              -711.586442
 Sum of electronic and thermal Enthalpies=            -711.585498
 Sum of electronic and thermal Free Energies=         -711.643121

                     E (Thermal)             CV                S
                      KCal/Mol        Cal/Mol-Kelvin    Cal/Mol-Kelvin
 Total                  191.506             57.868            121.278
 Electronic               0.000              0.000              0.000
 Translational            0.889              2.981             42.163
 Rotational               0.889              2.981             32.746
 Vibrational            189.729             51.906             46.368
 Vibration     1          0.594              1.981              5.322
 Vibration     2          0.596              1.975              4.584
 Vibration     3          0.598              1.969              4.206
 Vibration     4          0.601              1.959              3.761
 Vibration     5          0.611              1.925              2.979
 Vibration     6          0.619              1.899              2.635
 Vibration     7          0.627              1.873              2.378
 Vibration     8          0.635              1.847              2.184
 Vibration     9          0.653              1.791              1.859
 Vibration    10          0.655              1.786              1.832
 Vibration    11          0.672              1.735              1.619
 Vibration    12          0.701              1.650              1.350
 Vibration    13          0.753              1.505              1.024
 Vibration    14          0.757              1.494              1.004
 Vibration    15          0.776              1.445              0.920
 Vibration    16          0.816              1.344              0.773
 Vibration    17          0.817              1.341              0.769
 Vibration    18          0.909              1.131              0.536
 Vibration    19          0.936              1.075              0.486
 Vibration    20          0.942              1.064              0.476
 Vibration    21          0.965              1.019              0.439
 Vibration    22          0.970              1.009              0.432

 Optimization completed.
    -- Stationary point found.
 Normal termination of Gaussian 16 at Sun Dec 13 12:40:26 2020.

 ----------------------------------------------------------------------
 # B3LYP/6-311++G(d,p) empiricaldispersion=gd3bj scf=xqc pop=npa geom=c
 heck
 ----------------------------------------------------------------------

 ---------------------------------------
 CID_115115469_JID_7583_Energie_neutraal
 ---------------------------------------
 Structure from the checkpoint file:  "JID_7583.chk"
 Charge =  0 Multiplicity = 1

 SCF Done:  E(RB3LYP) =  -712.076511789     A.U. after   15 cycles
 Normal termination of Gaussian 16 at Sun Dec 13 12:46:37 2020.

 ----------------------------------------------------------------------
 # B3LYP/6-311++G(d,p) empiricaldispersion=gd3bj scf=xqc pop=npa geom=c
 heck
 ----------------------------------------------------------------------

 -------------------------------------
 CID_115115469_JID_7583_Energie_kation
 -------------------------------------
 Structure from the checkpoint file:  "JID_7583.chk"
 Charge =  1 Multiplicity = 2

 SCF Done:  E(UB3LYP) =  -711.800747926     A.U. after   25 cycles
 Normal termination of Gaussian 16 at Sun Dec 13 13:01:27 2020.
 Gaussian 16:  ES64L-G16RevA.03 25-Dec-2016

 ----------------------------------------------------------------------
 # B3LYP/6-311++G(d,p) empiricaldispersion=gd3bj scf=xqc pop=npa geom=c
 heck
 ----------------------------------------------------------------------

 ------------------------------------
 CID_115115469_JID_7583_Energie_anion
 ------------------------------------
 Structure from the checkpoint file:  "JID_7583.chk"
 Charge = -1 Multiplicity = 2

                         Standard orientation:
 ---------------------------------------------------------------------
 Center     Atomic      Atomic             Coordinates (Angstroms)
 Number     Number       Type             X           Y           Z
 ---------------------------------------------------------------------
      1          6           0        4.892851    0.738347    0.077076
      2          6           0        3.707159   -0.216066    0.030414
      3          8           0        3.902649   -1.424985    0.005669
      4          6           0        2.332263    0.350966    0.016114
      5          6           0        1.202878   -0.505468   -0.025541
      6          6           0        1.030094   -1.925519   -0.063334
      7          6           0       -0.321230   -2.156894   -0.097962
      8          7           0       -1.023493   -0.965155   -0.086084
      9          6           0       -0.105147    0.071577   -0.038894
     10          6           0       -0.305550    1.454313   -0.012237
     11          6           0        0.817726    2.275190    0.029381
     12          6           0        2.110332    1.732184    0.043311
     13          6           0       -2.475911   -0.859070   -0.081880
     14          6           0       -3.063100   -0.262324    1.219090
     15          6           0       -4.399797    0.341069    0.771218
     16          6           0       -4.056524    0.985380   -0.584440
     17          6           0       -3.068059   -0.001337   -1.245819
     18          1           0        5.809543    0.146652    0.081866
     19          1           0        4.861544    1.366021    0.975067
     20          1           0        4.897633    1.407539   -0.790965
     21          1           0        1.817210   -2.660283   -0.067216
     22          1           0       -0.863505   -3.092188   -0.132404
     23          1           0       -1.299944    1.885980   -0.023027
     24          1           0        0.690424    3.353279    0.051059
     25          1           0        2.955419    2.410927    0.075873
     26          1           0       -2.834701   -1.886870   -0.185557
     27          1           0       -3.154849   -1.014833    2.008135
     28          1           0       -2.399437    0.524334    1.593924
     29          1           0       -4.812913    1.052169    1.493577
     30          1           0       -5.144179   -0.454300    0.631650
     31          1           0       -3.568917    1.953486   -0.412837
     32          1           0       -4.938051    1.178162   -1.203454
     33          1           0       -2.275974    0.506601   -1.801117
     34          1           0       -3.583957   -0.654806   -1.956317
 ---------------------------------------------------------------------

 SCF Done:  E(UB3LYP) =  -712.082491858     A.U. after   33 cycles
 SCF Done:  E(UB3LYP) =  -712.082491858     a.u. after    1 cycles

 The electronic state is 2-A.
 Alpha  occ. eigenvalues --  -18.91311 -14.21882 -10.11203 -10.08304 -10.08080
 Alpha  occ. eigenvalues --  -10.07192 -10.07053 -10.06177 -10.05277 -10.05150
 Alpha  occ. eigenvalues --  -10.02156 -10.02028 -10.01457 -10.01280 -10.00997
 Alpha  occ. eigenvalues --  -10.00746 -10.00424  -0.85378  -0.84963  -0.74690
 Alpha  occ. eigenvalues --   -0.69355  -0.65393  -0.62242  -0.61569  -0.58931
 Alpha  occ. eigenvalues --   -0.57891  -0.56101  -0.49533  -0.48870  -0.47217
 Alpha  occ. eigenvalues --   -0.44557  -0.43042  -0.41077  -0.39419  -0.36415
 Alpha  occ. eigenvalues --   -0.35608  -0.33193  -0.32904  -0.32199  -0.31471
 Alpha  occ. eigenvalues --   -0.30071  -0.29583  -0.28771  -0.28088  -0.25757
 Alpha  occ. eigenvalues --   -0.25558  -0.25435  -0.25181  -0.24636  -0.24094
 Alpha  occ. eigenvalues --   -0.23966  -0.23456  -0.23259  -0.20383  -0.20231
 Alpha  occ. eigenvalues --   -0.19593  -0.18197  -0.12727  -0.08499  -0.07514
 Alpha  occ. eigenvalues --   -0.06728   0.05034
 Alpha virt. eigenvalues --    0.06073   0.07825   0.08234   0.09124   0.09814
 Alpha virt. eigenvalues --    0.10695   0.10822   0.10855   0.11944   0.12345
 Alpha virt. eigenvalues --    0.12825   0.13257   0.13558   0.14513   0.14755

  Beta  occ. eigenvalues --  -18.90820 -14.21875 -10.11203 -10.08304 -10.08080
  Beta  occ. eigenvalues --  -10.07187 -10.07047 -10.05899 -10.05327 -10.04955
  Beta  occ. eigenvalues --  -10.02182 -10.02061 -10.01161 -10.01132 -10.00868
  Beta  occ. eigenvalues --  -10.00790 -10.00247  -0.84933  -0.84426  -0.74664
  Beta  occ. eigenvalues --   -0.69069  -0.65234  -0.62228  -0.61132  -0.58794
  Beta  occ. eigenvalues --   -0.57628  -0.55885  -0.49300  -0.48830  -0.46778
  Beta  occ. eigenvalues --   -0.44420  -0.42894  -0.40831  -0.39390  -0.36328
  Beta  occ. eigenvalues --   -0.35207  -0.33099  -0.32836  -0.32033  -0.31377
  Beta  occ. eigenvalues --   -0.29848  -0.29407  -0.28201  -0.27896  -0.25715
  Beta  occ. eigenvalues --   -0.25532  -0.25422  -0.25077  -0.24559  -0.23919
  Beta  occ. eigenvalues --   -0.23753  -0.23183  -0.23132  -0.20107  -0.19387
  Beta  occ. eigenvalues --   -0.18880  -0.16785  -0.11681  -0.07502  -0.07055
  Beta  occ. eigenvalues --   -0.05635
  Beta virt. eigenvalues --    0.05982   0.07733   0.08112   0.09044   0.09749
  Beta virt. eigenvalues --    0.10534   0.10590   0.10702   0.11089   0.11862
  Beta virt. eigenvalues --    0.12313   0.12767   0.13418   0.13508   0.14593

 Mulliken charges and spin densities:
               1          2
     1  C   -0.525574  -0.011915
     2  C   -0.543051   0.151816
     3  O   -0.380999   0.178001
     4  C    1.234781   0.112657
     5  C    0.005883   0.071746
     6  C    0.218921  -0.031979
     7  C   -0.132930   0.164288
     8  N    0.618857  -0.000993
     9  C   -0.604160  -0.062151
    10  C    0.035179   0.274953
    11  C   -0.615589  -0.003143
    12  C   -0.889694   0.127359
    13  C   -0.418783   0.009993
    14  C   -0.039282  -0.022709
    15  C   -0.533130  -0.048372
    16  C   -0.196041   0.008932
    17  C   -0.367379  -0.057674
    18  H    0.149214  -0.001749
    19  H    0.104788   0.019581
    20  H    0.103059   0.021331
    21  H    0.200147  -0.000413
    22  H    0.093929  -0.012640
    23  H    0.053863  -0.023878
    24  H    0.125564   0.002882
    25  H    0.073972  -0.006892
    26  H    0.154082  -0.001037
    27  H    0.112174   0.047099
    28  H    0.178155   0.009612
    29  H    0.127356   0.028398
    30  H    0.105622  -0.002651
    31  H    0.118626   0.000922
    32  H    0.153025   0.002558
    33  H    0.182146   0.016563
    34  H    0.097267   0.039508
 Sum of Mulliken charges =  -1.00000   1.00000

 Dipole moment (field-independent basis, Debye):
    X=            -10.1275    Y=              1.5754    Z=             -0.0366  Tot=             10.2494
 Quadrupole moment (field-independent basis, Debye-Ang):
   XX=           -150.8519   YY=           -120.6859   ZZ=           -114.2145
   XY=             11.1243   XZ=              0.3971   YZ=             -0.0541

 Summary of Natural Population Analysis:

                                       Natural Population
                Natural  -----------------------------------------------
    Atom  No    Charge         Core      Valence    Rydberg      Total
 -----------------------------------------------------------------------
      C    1   -0.32754      0.99959     2.32210    0.00586     3.32754
      C    2    0.29906      0.99965     1.68055    0.02074     2.70094
      O    3   -0.26105      0.99988     3.25489    0.00628     4.26105
      C    4   -0.03102      0.99945     2.02260    0.00898     3.03102
      C    5   -0.02522      0.99954     2.00995    0.01573     3.02522
      C    6   -0.15140      0.99954     2.14290    0.00897     3.15140
      C    7    0.02986      0.99958     1.95779    0.01278     2.97014
      N    8   -0.23436      0.99963     2.71976    0.01497     3.73436
      C    9    0.12914      0.99949     1.85938    0.01200     2.87086
      C   10   -0.08955      0.99958     2.07287    0.01709     3.08955
      C   11   -0.12493      0.99959     2.11531    0.01003     3.12493
      C   12   -0.08195      0.99956     2.07269    0.00971     3.08195
      C   13    0.00292      0.99960     1.98288    0.01460     2.99708
      C   14   -0.19659      0.99962     2.19028    0.00668     3.19659
      C   15   -0.19169      0.99964     2.18593    0.00612     3.19169
      C   16   -0.19362      0.99965     2.18760    0.00638     3.19362
      C   17   -0.19817      0.99963     2.19165    0.00689     3.19817
      H   18    0.09887      0.00000     0.39868    0.00244     0.40113
      H   19    0.09863      0.00000     0.39983    0.00154     0.40137
      H   20    0.09864      0.00000     0.39981    0.00155     0.40136
      H   21    0.11764      0.00000     0.38139    0.00098     0.38236
      H   22    0.08636      0.00000     0.41277    0.00087     0.41364
      H   23    0.08583      0.00000     0.41193    0.00224     0.41417
      H   24    0.08733      0.00000     0.41106    0.00161     0.41267
      H   25    0.09183      0.00000     0.40737    0.00080     0.40817
      H   26    0.09604      0.00000     0.40301    0.00095     0.40396
      H   27    0.09784      0.00000     0.40064    0.00152     0.40216
      H   28    0.10796      0.00000     0.39020    0.00184     0.39204
      H   29    0.09691      0.00000     0.40207    0.00103     0.40309
      H   30    0.08882      0.00000     0.41002    0.00116     0.41118
      H   31    0.09701      0.00000     0.40189    0.00110     0.40299
      H   32    0.09421      0.00000     0.40477    0.00102     0.40579
      H   33    0.11376      0.00000     0.38525    0.00098     0.38624
      H   34    0.09347      0.00000     0.40514    0.00139     0.40653
 =======================================================================
   * Total *    0.00502     16.99321    43.79497    0.20680    60.99498

 Normal termination of Gaussian 16 at Sun Dec 13 13:21:20 2020.
