 Gaussian 16, Revision A.03,

 -----------------------------------------------------------
 # opt freq B3LYP/6-31G(d) empiricaldispersion=gd3bj scf=xqc
 -----------------------------------------------------------

 ----------------------------
 CID_948660_JID_4898_neutraal
 ----------------------------
 Symbolic Z-matrix:
 Charge =  0 Multiplicity = 1

 SCF Done:  E(RB3LYP) =  -676.448116115     A.U. after   15 cycles
 SCF Done:  E(RB3LYP) =  -676.458287267     A.U. after   13 cycles
 SCF Done:  E(RB3LYP) =  -676.460142361     A.U. after   13 cycles
 SCF Done:  E(RB3LYP) =  -676.461086929     A.U. after   13 cycles
 SCF Done:  E(RB3LYP) =  -676.461435882     A.U. after   12 cycles
 SCF Done:  E(RB3LYP) =  -676.461517159     A.U. after   12 cycles
 SCF Done:  E(RB3LYP) =  -676.461531809     A.U. after   11 cycles
 SCF Done:  E(RB3LYP) =  -676.461554229     A.U. after    9 cycles
 SCF Done:  E(RB3LYP) =  -676.461562587     A.U. after   10 cycles
 SCF Done:  E(RB3LYP) =  -676.461564881     A.U. after    9 cycles
 SCF Done:  E(RB3LYP) =  -676.461565385     A.U. after    8 cycles
 Optimization completed.
    -- Stationary point found.
 Normal termination of Gaussian 16 at Thu Dec 10 10:47:21 2020.

 --------------------------------------------------------------------
 #N Geom=AllCheck Guess=TCheck SCRF=Check GenChk RB3LYP/6-31G(d) Freq
 --------------------------------------------------------------------

 Structure from the checkpoint file:  "JID_4898.chk"
 ----------------------------
 CID_948660_JID_4898_neutraal
 ----------------------------
 Charge =  0 Multiplicity = 1

 SCF Done:  E(RB3LYP) =  -676.461565385     A.U. after    1 cycles

  Exact polarizability: 182.413  14.784 106.294  -7.609   6.826  68.060
 Approx polarizability: 311.407  43.181 190.303 -23.615  22.231 108.508

                      1                      2                      3
                      A                      A                      A
 Frequencies --     37.3051                56.1044                91.7758
 Red. masses --      2.9098                 4.0198                 5.9172
 Frc consts  --      0.0024                 0.0075                 0.0294
 IR Inten    --      0.5479                 1.1514                 0.6832

                      4                      5                      6
                      A                      A                      A
 Frequencies --    160.8129               179.6817               227.3172
 Red. masses --      6.7523                 4.8370                 1.0343
 Frc consts  --      0.1029                 0.0920                 0.0315
 IR Inten    --      0.7078                 2.2496                 0.1520

                      7                      8                      9
                      A                      A                      A
 Frequencies --    249.9065               294.9259               323.9844
 Red. masses --      1.1710                 2.8348                 2.9527
 Frc consts  --      0.0431                 0.1453                 0.1826
 IR Inten    --      0.3795                 0.8863                 5.8166

                     10                     11                     12
                      A                      A                      A
 Frequencies --    351.4365               376.1798               391.5174
 Red. masses --      6.9277                 4.4075                 3.1696
 Frc consts  --      0.5041                 0.3675                 0.2863
 IR Inten    --      0.2210                 0.5145                 4.5469

                     13                     14                     15
                      A                      A                      A
 Frequencies --    439.2546               456.4784               464.2901
 Red. masses --      2.9238                 2.5402                 7.2889
 Frc consts  --      0.3324                 0.3119                 0.9257
 IR Inten    --      3.9517                17.7657                 9.1359

                     16                     17                     18
                      A                      A                      A
 Frequencies --    501.5872               541.6525               546.1053
 Red. masses --      6.8503                 1.7809                 1.9837
 Frc consts  --      1.0154                 0.3078                 0.3486
 IR Inten    --      6.0502                27.6536                82.1153

                     19                     20                     21
                      A                      A                      A
 Frequencies --    611.3204               631.5199               661.3493
 Red. masses --     12.3354                 1.5747                 4.8928
 Frc consts  --      2.7161                 0.3700                 1.2609
 IR Inten    --     11.8294               226.3332                16.7004

                     22                     23                     24
                      A                      A                      A
 Frequencies --    704.6939               750.1653               781.7471
 Red. masses --      6.2055                 8.7969                 7.4360
 Frc consts  --      1.8156                 2.9167                 2.6774
 IR Inten    --     22.5590                10.5035                10.5928

                     25                     26                     27
                      A                      A                      A
 Frequencies --    816.2954               836.1058               873.2941
 Red. masses --      6.9154                 2.9112                 2.2318
 Frc consts  --      2.7149                 1.1991                 1.0028
 IR Inten    --     22.6450                41.0036                15.8297

                     28                     29                     30
                      A                      A                      A
 Frequencies --    900.8232               906.3509               918.7455
 Red. masses --      8.2691                 4.5407                 4.9922
 Frc consts  --      3.9536                 2.1977                 2.4828
 IR Inten    --     29.9462                18.4356                16.9263

                     31                     32                     33
                      A                      A                      A
 Frequencies --    948.4228               964.3329               996.8607
 Red. masses --      1.2363                 1.4347                 2.0824
 Frc consts  --      0.6552                 0.7861                 1.2192
 IR Inten    --      2.6655                 2.0985                18.2406

                     34                     35                     36
                      A                      A                      A
 Frequencies --   1053.0773              1156.7333              1165.4174
 Red. masses --      7.1417                 1.9510                 2.1886
 Frc consts  --      4.6663                 1.5381                 1.7514
 IR Inten    --     80.1607                 4.6594                28.3164

                     37                     38                     39
                      A                      A                      A
 Frequencies --   1181.1035              1202.9586              1324.8808
 Red. masses --      2.4455                 1.8811                 5.1225
 Frc consts  --      2.0100                 1.6038                 5.2977
 IR Inten    --    152.9451                 4.9196                68.5928

                     40                     41                     42
                      A                      A                      A
 Frequencies --   1345.9829              1376.1137              1385.2383
 Red. masses --      3.7059                 1.7054                 1.3706
 Frc consts  --      3.9557                 1.9027                 1.5496
 IR Inten    --     28.4428                12.7468                29.3417

                     43                     44                     45
                      A                      A                      A
 Frequencies --   1421.4304              1433.4389              1452.0602
 Red. masses --      4.1007                 1.2883                 1.2525
 Frc consts  --      4.8816                 1.5597                 1.5559
 IR Inten    --    113.1649                 9.3618                 8.5567

                     46                     47                     48
                      A                      A                      A
 Frequencies --   1467.9611              1487.7367              1511.7484
 Red. masses --      3.5247                 1.8282                 1.0439
 Frc consts  --      4.4750                 2.3841                 1.4057
 IR Inten    --     19.1314                17.2326                 0.3876

                     49                     50                     51
                      A                      A                      A
 Frequencies --   1517.7778              1529.1577              1533.2279
 Red. masses --      1.0543                 2.0146                 1.8744
 Frc consts  --      1.4310                 2.7756                 2.5961
 IR Inten    --      1.7210               178.5855               129.8656

                     52                     53                     54
                      A                      A                      A
 Frequencies --   1534.9069              1584.3763              1619.9975
 Red. masses --      1.0680                 3.7568                 2.0354
 Frc consts  --      1.4825                 5.5564                 3.1473
 IR Inten    --      5.9884                49.4159               104.8088

                     55                     56                     57
                      A                      A                      A
 Frequencies --   1632.7026              1686.2747              3047.2912
 Red. masses --     12.3506                 2.3075                 1.0367
 Frc consts  --     19.3977                 3.8659                 5.6719
 IR Inten    --     14.4061               115.8870                14.3156

                     58                     59                     60
                      A                      A                      A
 Frequencies --   3051.6084              3100.9876              3113.4567
 Red. masses --      1.0381                 1.0889                 1.1009
 Frc consts  --      5.6959                 6.1691                 6.2875
 IR Inten    --     21.2914                 3.4915                 5.1571

                     61                     62                     63
                      A                      A                      A
 Frequencies --   3128.2233              3132.3998              3134.9015
 Red. masses --      1.0974                 1.1016                 1.1029
 Frc consts  --      6.3270                 6.3683                 6.3862
 IR Inten    --     36.8074                15.8338                38.8197

                     64                     65                     66
                      A                      A                      A
 Frequencies --   3495.0600              3556.5948              3670.9975
 Red. masses --      1.0734                 1.0460                 1.1018
 Frc consts  --      7.7254                 7.7959                 8.7484
 IR Inten    --      9.2648                46.2608                39.5810

 - Thermochemistry -
 -------------------
 Temperature   298.150 Kelvin.  Pressure   1.00000 Atm.
 Atom     1 has atomic number  6 and mass  12.00000

 Molecular mass:   194.09161 amu.
 Principal axes and moments of inertia in atomic units:
                           1         2         3
     Eigenvalues --  1103.534764321.594505011.87520
           X            0.99993  -0.01101   0.00426
           Y            0.01113   0.99949  -0.02988
           Z           -0.00393   0.02992   0.99954
 This molecule is an asymmetric top.
 Rotational symmetry number  1.
 Warning -- assumption of classical behavior for rotation
           may cause significant error
 Rotational temperatures (Kelvin)      0.07849     0.02004     0.01728
 Rotational constants (GHZ):           1.63542     0.41761     0.36009
 Zero-point vibrational energy     496618.7 (Joules/Mol)
                                  118.69472 (Kcal/Mol)
 Warning -- explicit consideration of  19 degrees of freedom as
           vibrations may cause significant error
 Vibrational temperatures:     53.67    80.72   132.04   231.37   258.52
          (Kelvin)            327.06   359.56   424.33   466.14   505.64
                              541.24   563.31   631.99   656.77   668.01
                              721.67   779.32   785.72   879.55   908.62
                              951.53  1013.90  1079.32  1124.76  1174.47
                             1202.97  1256.48  1296.08  1304.04  1321.87
                             1364.57  1387.46  1434.26  1515.14  1664.28
                             1676.78  1699.34  1730.79  1906.21  1936.57
                             1979.92  1993.05  2045.12  2062.40  2089.19
                             2112.07  2140.52  2175.07  2183.74  2200.12
                             2205.97  2208.39  2279.56  2330.82  2349.09
                             2426.17  4384.37  4390.58  4461.63  4479.57
                             4500.82  4506.82  4510.42  5028.61  5117.15
                             5281.75

 Zero-point correction=                           0.189152 (Hartree/Particle)
 Thermal correction to Energy=                    0.201266
 Thermal correction to Enthalpy=                  0.202210
 Thermal correction to Gibbs Free Energy=         0.150357
 Sum of electronic and zero-point Energies=           -676.272413
 Sum of electronic and thermal Energies=              -676.260299
 Sum of electronic and thermal Enthalpies=            -676.259355
 Sum of electronic and thermal Free Energies=         -676.311208

                     E (Thermal)             CV                S
                      KCal/Mol        Cal/Mol-Kelvin    Cal/Mol-Kelvin
 Total                  126.296             46.944            109.134
 Electronic               0.000              0.000              0.000
 Translational            0.889              2.981             41.695
 Rotational               0.889              2.981             31.547
 Vibrational            124.519             40.982             35.892
 Vibration     1          0.594              1.982              5.397
 Vibration     2          0.596              1.975              4.590
 Vibration     3          0.602              1.955              3.622
 Vibration     4          0.622              1.890              2.540
 Vibration     5          0.629              1.867              2.332
 Vibration     6          0.651              1.799              1.900
 Vibration     7          0.663              1.763              1.731
 Vibration     8          0.689              1.683              1.446
 Vibration     9          0.709              1.627              1.290
 Vibration    10          0.728              1.572              1.160
 Vibration    11          0.747              1.521              1.054
 Vibration    12          0.759              1.488              0.994
 Vibration    13          0.799              1.385              0.829
 Vibration    14          0.815              1.347              0.776
 Vibration    15          0.822              1.329              0.754
 Vibration    16          0.857              1.246              0.654
 Vibration    17          0.897              1.158              0.562
 Vibration    18          0.901              1.148              0.552
 Vibration    19          0.970              1.008              0.431

                           ! Non-Optimized Parameters !
 Normal termination of Gaussian 16 at Thu Dec 10 10:54:13 2020.

 ----------------------------------------------------------------------
 # B3LYP/6-311++G(d,p) empiricaldispersion=gd3bj scf=xqc pop=npa geom=c
 heck
 ----------------------------------------------------------------------

 ------------------------------------
 CID_948660_JID_4898_Energie_neutraal
 ------------------------------------
 Structure from the checkpoint file:  "JID_4898.chk"
 Charge =  0 Multiplicity = 1

 SCF Done:  E(RB3LYP) =  -676.648193710     A.U. after   15 cycles
 Normal termination of Gaussian 16 at Thu Dec 10 10:57:15 2020.

 ----------------------------------------------------------------------
 # B3LYP/6-311++G(d,p) empiricaldispersion=gd3bj scf=xqc pop=npa geom=c
 heck
 ----------------------------------------------------------------------

 ----------------------------------
 CID_948660_JID_4898_Energie_kation
 ----------------------------------
 Structure from the checkpoint file:  "JID_4898.chk"
 Charge =  1 Multiplicity = 2

 SCF Done:  E(UB3LYP) =  -676.321206509     A.U. after   26 cycles
 Normal termination of Gaussian 16 at Thu Dec 10 11:04:49 2020.
 Gaussian 16:  ES64L-G16RevA.03 25-Dec-2016

 ----------------------------------------------------------------------
 # B3LYP/6-311++G(d,p) empiricaldispersion=gd3bj scf=xqc pop=npa geom=c
 heck
 ----------------------------------------------------------------------

 ---------------------------------
 CID_948660_JID_4898_Energie_anion
 ---------------------------------
 Structure from the checkpoint file:  "JID_4898.chk"
 Charge = -1 Multiplicity = 2

                         Standard orientation:
 ---------------------------------------------------------------------
 Center     Atomic      Atomic             Coordinates (Angstroms)
 Number     Number       Type             X           Y           Z
 ---------------------------------------------------------------------
      1          6           0        2.689705   -1.422823    1.239753
      2          6           0        2.792439   -0.222092    0.293904
      3          6           0        4.165702   -0.119224   -0.365534
      4          7           0        1.757687   -0.291714   -0.777470
      5          6           0        0.423331   -0.085230   -0.448136
      6          7           0       -0.432377   -1.058049   -0.618565
      7          6           0       -1.720628   -0.730845   -0.299082
      8          7           0       -2.779647   -1.510746   -0.342852
      9          8           0       -3.795817   -0.714540    0.135099
     10          7           0       -3.383166    0.559741    0.477590
     11          6           0       -2.093779    0.555103    0.211037
     12          7           0       -1.214437    1.591815    0.322970
     13          6           0        0.009910    1.282027   -0.021533
     14          7           0        0.972862    2.254985   -0.005829
     15          1           0        2.884284   -2.359553    0.702906
     16          1           0        1.692339   -1.490361    1.685472
     17          1           0        3.423336   -1.338778    2.048969
     18          1           0        2.597742    0.690568    0.862849
     19          1           0        4.372150   -1.007649   -0.975258
     20          1           0        4.225822    0.758487   -1.016997
     21          1           0        4.951099   -0.045533    0.393418
     22          1           0        1.824512   -1.187072   -1.261001
     23          1           0        0.612085    3.197317    0.084446
     24          1           0        1.736633    2.135172   -0.658972
 ---------------------------------------------------------------------

 SCF Done:  E(UB3LYP) =  -676.687399005     A.U. after   22 cycles

 The electronic state is 2-A.
 Alpha  occ. eigenvalues --  -19.04994 -14.19590 -14.19309 -14.19013 -14.18975
 Alpha  occ. eigenvalues --  -14.15090 -14.14974 -10.10304 -10.09664 -10.08498
 Alpha  occ. eigenvalues --  -10.07393 -10.07266 -10.07038 -10.06263  -1.00330
 Alpha  occ. eigenvalues --   -0.85146  -0.80816  -0.78360  -0.75597  -0.71189
 Alpha  occ. eigenvalues --   -0.67865  -0.65622  -0.59684  -0.53129  -0.50457
 Alpha  occ. eigenvalues --   -0.48709  -0.45295  -0.41955  -0.40750  -0.37825
 Alpha  occ. eigenvalues --   -0.36476  -0.35291  -0.33846  -0.33040  -0.32292
 Alpha  occ. eigenvalues --   -0.31373  -0.29968  -0.28311  -0.26989  -0.25855
 Alpha  occ. eigenvalues --   -0.24979  -0.24651  -0.21600  -0.19275  -0.18495
 Alpha  occ. eigenvalues --   -0.16948  -0.15592  -0.14430  -0.10530  -0.10308
 Alpha  occ. eigenvalues --   -0.09413   0.02544
 Alpha virt. eigenvalues --    0.06677   0.08667   0.09124   0.09908   0.11612
 Alpha virt. eigenvalues --    0.12000   0.12962   0.13087   0.13831   0.14164
 Alpha virt. eigenvalues --    0.14972   0.16154   0.16885   0.17165   0.17702

  Beta  occ. eigenvalues --  -19.04559 -14.19536 -14.19289 -14.18666 -14.18607
  Beta  occ. eigenvalues --  -14.14710 -14.14695 -10.10273 -10.09468 -10.08199
  Beta  occ. eigenvalues --  -10.07392 -10.07354 -10.07139 -10.06262  -0.99643
  Beta  occ. eigenvalues --   -0.84686  -0.80546  -0.78038  -0.75133  -0.70593
  Beta  occ. eigenvalues --   -0.67569  -0.65318  -0.59674  -0.52323  -0.50298
  Beta  occ. eigenvalues --   -0.48539  -0.45058  -0.41758  -0.40550  -0.37624
  Beta  occ. eigenvalues --   -0.36318  -0.35160  -0.33455  -0.32240  -0.31764
  Beta  occ. eigenvalues --   -0.31157  -0.29951  -0.27767  -0.26213  -0.25648
  Beta  occ. eigenvalues --   -0.24582  -0.24352  -0.20293  -0.18733  -0.17525
  Beta  occ. eigenvalues --   -0.16402  -0.14774  -0.13929  -0.09886  -0.08419
  Beta  occ. eigenvalues --   -0.07852
  Beta virt. eigenvalues --    0.06634   0.08546   0.08942   0.09313   0.10018
  Beta virt. eigenvalues --    0.11565   0.12022   0.12991   0.13038   0.13835
  Beta virt. eigenvalues --    0.14949   0.16040   0.16287   0.17171   0.17472

 Mulliken charges and spin densities:
               1          2
     1  C   -0.568519  -0.017920
     2  C   -0.090594  -0.023251
     3  C   -0.504442   0.065506
     4  N    0.066142   0.010929
     5  C   -0.159176   0.162297
     6  N   -0.209865   0.195115
     7  C   -0.004677  -0.074802
     8  N   -0.420381   0.192897
     9  O    0.262660   0.099538
    10  N   -0.431172   0.146655
    11  C    0.033950  -0.052732
    12  N   -0.247504   0.142987
    13  C   -0.076046   0.078549
    14  N   -0.365784   0.035960
    15  H    0.121539  -0.001005
    16  H    0.197041   0.002238
    17  H    0.113681   0.001298
    18  H    0.209409  -0.014635
    19  H    0.116081   0.006188
    20  H    0.119074   0.009055
    21  H    0.121513  -0.000056
    22  H    0.235982   0.010807
    23  H    0.254548   0.001404
    24  H    0.226539   0.022975
 Sum of Mulliken charges =  -1.00000   1.00000

 Dipole moment (field-independent basis, Debye):
    X=             10.5083    Y=              1.2441    Z=             -0.0292  Tot=             10.5817
 Quadrupole moment (field-independent basis, Debye-Ang):
   XX=           -127.6956   YY=            -98.5858   ZZ=            -90.6151
   XY=             -1.9320   XZ=              2.4377   YZ=             -4.9452

 Summary of Natural Population Analysis:

                                       Natural Population
                Natural  -----------------------------------------------
    Atom  No    Charge         Core      Valence    Rydberg      Total
 -----------------------------------------------------------------------
      C    1   -0.29264      0.99965     2.28819    0.00480     3.29264
      C    2   -0.01444      0.99961     2.00677    0.00806     3.01444
      C    3   -0.28529      0.99965     2.28058    0.00506     3.28529
      N    4   -0.33744      0.99969     2.82352    0.01424     3.83744
      C    5    0.23101      0.99955     1.75325    0.01620     2.76899
      N    6   -0.20412      0.99963     2.69109    0.01340     3.70412
      C    7    0.10007      0.99952     1.88322    0.01720     2.89993
      N    8   -0.02325      0.99968     2.50579    0.01779     3.52325
      O    9   -0.06090      0.99990     3.05052    0.01047     4.06090
      N   10   -0.04670      0.99968     2.52933    0.01770     3.54670
      C   11    0.10938      0.99952     1.87395    0.01716     2.89062
      N   12   -0.23470      0.99963     2.71999    0.01507     3.73470
      C   13    0.22128      0.99957     1.76321    0.01594     2.77872
      N   14   -0.39806      0.99970     2.88892    0.00945     3.89806
      H   15    0.09316      0.00000     0.40592    0.00092     0.40684
      H   16    0.11044      0.00000     0.38875    0.00080     0.38956
      H   17    0.09191      0.00000     0.40723    0.00086     0.40809
      H   18    0.10118      0.00000     0.39671    0.00211     0.39882
      H   19    0.09363      0.00000     0.40545    0.00093     0.40637
      H   20    0.10003      0.00000     0.39906    0.00091     0.39997
      H   21    0.09381      0.00000     0.40543    0.00076     0.40619
      H   22    0.17840      0.00000     0.31778    0.00382     0.32160
      H   23    0.18472      0.00000     0.31179    0.00349     0.31528
      H   24    0.18854      0.00000     0.30944    0.00202     0.31146
 =======================================================================
   * Total *   -0.00000     13.99499    36.80587    0.19915    51.00000

 Normal termination of Gaussian 16 at Thu Dec 10 11:10:36 2020.
