 Gaussian 16, Revision A.03,

 -----------------------------------------------------------
 # opt freq B3LYP/6-31G(d) empiricaldispersion=gd3bj scf=xqc
 -----------------------------------------------------------

 -------------------------------
 CID_154137771_JID_2695_neutraal
 -------------------------------
 Symbolic Z-matrix:
 Charge =  0 Multiplicity = 1

 SCF Done:  E(RB3LYP) =  -506.466404331     A.U. after   14 cycles
 SCF Done:  E(RB3LYP) =  -506.469200750     A.U. after   12 cycles
 SCF Done:  E(RB3LYP) =  -506.469545763     A.U. after   12 cycles
 SCF Done:  E(RB3LYP) =  -506.468921829     A.U. after   12 cycles
 SCF Done:  E(RB3LYP) =  -506.470358154     A.U. after   12 cycles
 SCF Done:  E(RB3LYP) =  -506.471292700     A.U. after   12 cycles
 SCF Done:  E(RB3LYP) =  -506.471865088     A.U. after   14 cycles
 SCF Done:  E(RB3LYP) =  -506.473182190     A.U. after   12 cycles
 SCF Done:  E(RB3LYP) =  -506.473791654     A.U. after   12 cycles
 SCF Done:  E(RB3LYP) =  -506.474053082     A.U. after   13 cycles
 SCF Done:  E(RB3LYP) =  -506.479825432     A.U. after   10 cycles
 SCF Done:  E(RB3LYP) =  -506.479825616     A.U. after    7 cycles
 SCF Done:  E(RB3LYP) =  -506.479825679     A.U. after    8 cycles
 SCF Done:  E(RB3LYP) =  -506.479825692     A.U. after    7 cycles
 SCF Done:  E(RB3LYP) =  -506.479825700     A.U. after    7 cycles
 Optimization completed.
    -- Stationary point found.
 Normal termination of Gaussian 16 at Wed Dec  9 18:20:07 2020.

 --------------------------------------------------------------------
 #N Geom=AllCheck Guess=TCheck SCRF=Check GenChk RB3LYP/6-31G(d) Freq
 --------------------------------------------------------------------

 Structure from the checkpoint file:  "JID_2695.chk"
 -------------------------------
 CID_154137771_JID_2695_neutraal
 -------------------------------
 Charge =  0 Multiplicity = 1

 SCF Done:  E(RB3LYP) =  -506.479825700     A.U. after    1 cycles

  Exact polarizability: 122.471  -4.790 123.597   3.193   0.221 102.580
 Approx polarizability: 151.025  -6.464 174.442   1.143  -8.037 158.476

                      1                      2                      3
                      A                      A                      A
 Frequencies --     10.1410                32.0127                49.0514
 Red. masses --      4.2698                 2.6831                 3.0013
 Frc consts  --      0.0003                 0.0016                 0.0043
 IR Inten    --      0.3078                 0.2395                 0.8910

                      4                      5                      6
                      A                      A                      A
 Frequencies --     75.2677                96.0958               112.9170
 Red. masses --      2.9695                 2.2412                 3.6461
 Frc consts  --      0.0099                 0.0122                 0.0274
 IR Inten    --      0.7080                 0.0810                 3.4085

                      7                      8                      9
                      A                      A                      A
 Frequencies --    153.5878               186.1137               214.7832
 Red. masses --      2.8335                 1.6259                 1.5683
 Frc consts  --      0.0394                 0.0332                 0.0426
 IR Inten    --      0.0035                 0.2791                 1.4878

                     10                     11                     12
                      A                      A                      A
 Frequencies --    228.7504               240.3020               253.3218
 Red. masses --      1.4700                 1.4334                 1.2055
 Frc consts  --      0.0453                 0.0488                 0.0456
 IR Inten    --      0.0942                 0.3961                 1.0692

                     13                     14                     15
                      A                      A                      A
 Frequencies --    296.3368               316.4409               339.8424
 Red. masses --      2.3732                 2.8607                 2.5712
 Frc consts  --      0.1228                 0.1688                 0.1750
 IR Inten    --      3.3987                 3.7308                 2.7143

                     16                     17                     18
                      A                      A                      A
 Frequencies --    365.1073               404.6584               428.7471
 Red. masses --      2.2321                 2.2125                 2.0223
 Frc consts  --      0.1753                 0.2135                 0.2190
 IR Inten    --      0.5975                 2.2447                 1.3751

                     19                     20                     21
                      A                      A                      A
 Frequencies --    443.1369               493.2588               586.0335
 Red. masses --      1.9692                 2.4457                 2.3016
 Frc consts  --      0.2278                 0.3506                 0.4657
 IR Inten    --      1.2295                 0.0508                 1.5920

                     22                     23                     24
                      A                      A                      A
 Frequencies --    642.8959               693.7304               786.1267
 Red. masses --      2.3704                 1.9187                 2.4848
 Frc consts  --      0.5772                 0.5441                 0.9047
 IR Inten    --      9.6291                 4.8230                 3.3902

                     25                     26                     27
                      A                      A                      A
 Frequencies --    816.5112               856.6231               863.3452
 Red. masses --      2.3919                 1.9375                 2.2045
 Frc consts  --      0.9395                 0.8377                 0.9681
 IR Inten    --      1.4576                 0.5659                 2.8243

                     28                     29                     30
                      A                      A                      A
 Frequencies --    907.2978               925.4930               938.9722
 Red. masses --      1.6549                 1.6728                 1.3503
 Frc consts  --      0.8027                 0.8442                 0.7014
 IR Inten    --      3.0470                 4.4401                37.7096

                     31                     32                     33
                      A                      A                      A
 Frequencies --    944.3144               971.6620               981.5185
 Red. masses --      1.1793                 1.9350                 1.4924
 Frc consts  --      0.6196                 1.0764                 0.8471
 IR Inten    --      1.7921                 0.2459                 0.1033

                     34                     35                     36
                      A                      A                      A
 Frequencies --   1008.6864              1016.0603              1043.3081
 Red. masses --      2.3152                 2.0053                 1.3616
 Frc consts  --      1.3879                 1.2197                 0.8732
 IR Inten    --     24.9952                 4.4497                 2.1855

                     37                     38                     39
                      A                      A                      A
 Frequencies --   1049.3069              1066.9890              1086.9187
 Red. masses --      1.2099                 2.0763                 1.5319
 Frc consts  --      0.7849                 1.3927                 1.0663
 IR Inten    --      4.6235                31.5112                29.0560

                     40                     41                     42
                      A                      A                      A
 Frequencies --   1139.6915              1151.8931              1163.9789
 Red. masses --      2.1430                 2.0875                 2.0416
 Frc consts  --      1.6400                 1.6320                 1.6297
 IR Inten    --      9.1969                13.7146                17.8438

                     43                     44                     45
                      A                      A                      A
 Frequencies --   1202.0079              1208.5152              1212.7924
 Red. masses --      1.6096                 1.5532                 1.7833
 Frc consts  --      1.3702                 1.3366                 1.5454
 IR Inten    --      5.2505                 4.5897                 3.1770

                     46                     47                     48
                      A                      A                      A
 Frequencies --   1277.2755              1280.3218              1320.5425
 Red. masses --      1.3412                 1.3847                 1.2958
 Frc consts  --      1.2892                 1.3373                 1.3313
 IR Inten    --     21.0064                 2.7888                 4.3438

                     49                     50                     51
                      A                      A                      A
 Frequencies --   1330.5051              1358.5627              1371.8163
 Red. masses --      1.2303                 1.2601                 1.3691
 Frc consts  --      1.2832                 1.3703                 1.5180
 IR Inten    --      0.9042                 6.6525                 2.5618

                     52                     53                     54
                      A                      A                      A
 Frequencies --   1381.3401              1391.2294              1402.6792
 Red. masses --      1.3889                 1.3554                 1.5577
 Frc consts  --      1.5614                 1.5456                 1.8058
 IR Inten    --      7.3282                11.5583                12.7190

                     55                     56                     57
                      A                      A                      A
 Frequencies --   1417.1476              1431.4679              1439.3912
 Red. masses --      1.5153                 1.2760                 1.2614
 Frc consts  --      1.7929                 1.5405                 1.5397
 IR Inten    --      7.5795                 6.9216                 6.4507

                     58                     59                     60
                      A                      A                      A
 Frequencies --   1450.2936              1474.5497              1484.8620
 Red. masses --      1.2359                 1.1738                 1.0868
 Frc consts  --      1.5317                 1.5037                 1.4118
 IR Inten    --      6.8042                 1.1468                 9.7341

                     61                     62                     63
                      A                      A                      A
 Frequencies --   1508.5289              1510.9182              1519.0539
 Red. masses --      1.1231                 1.0789                 1.0498
 Frc consts  --      1.5058                 1.4512                 1.4272
 IR Inten    --     14.2060                 1.4934                 1.7660

                     64                     65                     66
                      A                      A                      A
 Frequencies --   1523.6601              1526.9253              1531.9705
 Red. masses --      1.0488                 1.0506                 1.0536
 Frc consts  --      1.4346                 1.4432                 1.4569
 IR Inten    --      7.2679                 1.0782                 5.8725

                     67                     68                     69
                      A                      A                      A
 Frequencies --   1535.5828              1542.7661              1735.1324
 Red. masses --      1.0556                 1.0465                 4.5019
 Frc consts  --      1.4666                 1.4676                 7.9857
 IR Inten    --      3.1686                12.6263                 6.3135

                     70                     71                     72
                      A                      A                      A
 Frequencies --   1803.7008              3021.2230              3022.2701
 Red. masses --     10.4554                 1.0640                 1.0675
 Frc consts  --     20.0411                 5.7223                 5.7452
 IR Inten    --    112.8029                28.9477                 1.9471

                     73                     74                     75
                      A                      A                      A
 Frequencies --   3033.5126              3037.4827              3041.9755
 Red. masses --      1.0751                 1.0396                 1.0719
 Frc consts  --      5.8290                 5.6514                 5.8441
 IR Inten    --     10.0197                18.1632                18.6604

                     76                     77                     78
                      A                      A                      A
 Frequencies --   3044.4364              3056.1021              3064.1789
 Red. masses --      1.0492                 1.0591                 1.0368
 Frc consts  --      5.7297                 5.8279                 5.7356
 IR Inten    --     27.5448                21.0858                20.4953

                     79                     80                     81
                      A                      A                      A
 Frequencies --   3070.0450              3082.2605              3101.2650
 Red. masses --      1.0988                 1.0939                 1.1029
 Frc consts  --      6.1021                 6.1231                 6.2497
 IR Inten    --     35.2205                18.3378                17.6110

                     82                     83                     84
                      A                      A                      A
 Frequencies --   3101.6116              3108.2988              3113.3543
 Red. masses --      1.1007                 1.1002                 1.1025
 Frc consts  --      6.2387                 6.2628                 6.2961
 IR Inten    --      6.9902                69.5259                32.9755

                     85                     86                     87
                      A                      A                      A
 Frequencies --   3117.1079              3128.0201              3142.9995
 Red. masses --      1.1014                 1.1020                 1.1026
 Frc consts  --      6.3052                 6.3527                 6.4171
 IR Inten    --     49.0327                31.0626                19.5529

                     88                     89                     90
                      A                      A                      A
 Frequencies --   3151.6220              3168.0730              3233.0717
 Red. masses --      1.0588                 1.0918                 1.1151
 Frc consts  --      6.1966                 6.4565                 6.8674
 IR Inten    --     14.9941                 6.2554                21.0645

 - Thermochemistry -
 -------------------
 Temperature   298.150 Kelvin.  Pressure   1.00000 Atm.
 Atom     1 has atomic number  6 and mass  12.00000

 Molecular mass:   168.15142 amu.
 Principal axes and moments of inertia in atomic units:
                           1         2         3
     Eigenvalues --  1570.463773596.780764440.87130
           X            0.99998  -0.00328   0.00509
           Y            0.00319   0.99986   0.01661
           Z           -0.00515  -0.01660   0.99985
 This molecule is an asymmetric top.
 Rotational symmetry number  1.
 Warning -- assumption of classical behavior for rotation
           may cause significant error
 Rotational temperatures (Kelvin)      0.05515     0.02408     0.01950
 Rotational constants (GHZ):           1.14918     0.50177     0.40639
 Zero-point vibrational energy     761983.4 (Joules/Mol)
                                  182.11841 (Kcal/Mol)
 Warning -- explicit consideration of  21 degrees of freedom as
           vibrations may cause significant error
 Vibrational temperatures:     14.59    46.06    70.57   108.29   138.26
          (Kelvin)            162.46   220.98   267.78   309.03   329.12
                              345.74   364.47   426.36   455.29   488.96
                              525.31   582.21   616.87   637.58   709.69
                              843.17   924.98   998.12  1131.06  1174.78
                             1232.49  1242.16  1305.40  1331.58  1350.97
                             1358.66  1398.00  1412.19  1451.27  1461.88
                             1501.09  1509.72  1535.16  1563.83  1639.76
                             1657.32  1674.71  1729.42  1738.78  1744.94
                             1837.71  1842.10  1899.97  1914.30  1954.67
                             1973.74  1987.44  2001.67  2018.14  2038.96
                             2059.56  2070.96  2086.65  2121.55  2136.39
                             2170.44  2173.87  2185.58  2192.21  2196.90
                             2204.16  2209.36  2219.70  2496.47  2595.12
                             4346.87  4348.37  4364.55  4370.26  4376.72
                             4380.26  4397.05  4408.67  4417.11  4434.69
                             4462.03  4462.53  4472.15  4479.42  4484.82
                             4500.52  4522.08  4534.48  4558.15  4651.67

 Zero-point correction=                           0.290224 (Hartree/Particle)
 Thermal correction to Energy=                    0.305242
 Thermal correction to Enthalpy=                  0.306186
 Thermal correction to Gibbs Free Energy=         0.246046
 Sum of electronic and zero-point Energies=           -506.189602
 Sum of electronic and thermal Energies=              -506.174584
 Sum of electronic and thermal Enthalpies=            -506.173639
 Sum of electronic and thermal Free Energies=         -506.233780

                     E (Thermal)             CV                S
                      KCal/Mol        Cal/Mol-Kelvin    Cal/Mol-Kelvin
 Total                  191.542             54.162            126.577
 Electronic               0.000              0.000              0.000
 Translational            0.889              2.981             41.267
 Rotational               0.889              2.981             31.595
 Vibrational            189.765             48.200             53.714
 Vibration     1          0.593              1.987              7.983
 Vibration     2          0.594              1.983              5.701
 Vibration     3          0.595              1.978              4.855
 Vibration     4          0.599              1.966              4.011
 Vibration     5          0.603              1.952              3.532
 Vibration     6          0.607              1.939              3.218
 Vibration     7          0.619              1.899              2.627
 Vibration     8          0.632              1.859              2.266
 Vibration     9          0.645              1.818              2.003
 Vibration    10          0.651              1.797              1.889
 Vibration    11          0.657              1.779              1.801
 Vibration    12          0.664              1.757              1.707
 Vibration    13          0.690              1.681              1.438
 Vibration    14          0.703              1.642              1.328
 Vibration    15          0.720              1.596              1.213
 Vibration    16          0.738              1.544              1.100
 Vibration    17          0.770              1.460              0.946
 Vibration    18          0.790              1.408              0.863
 Vibration    19          0.803              1.376              0.817
 Vibration    20          0.849              1.265              0.675
 Vibration    21          0.943              1.062              0.474

 Optimization completed.
    -- Stationary point found.
 Normal termination of Gaussian 16 at Wed Dec  9 18:27:59 2020.

 ----------------------------------------------------------------------
 # B3LYP/6-311++G(d,p) empiricaldispersion=gd3bj scf=xqc pop=npa geom=c
 heck
 ----------------------------------------------------------------------

 ---------------------------------------
 CID_154137771_JID_2695_Energie_neutraal
 ---------------------------------------
 Structure from the checkpoint file:  "JID_2695.chk"
 Charge =  0 Multiplicity = 1

 SCF Done:  E(RB3LYP) =  -506.626598476     A.U. after   14 cycles
 Normal termination of Gaussian 16 at Wed Dec  9 18:31:18 2020.

 ----------------------------------------------------------------------
 # B3LYP/6-311++G(d,p) empiricaldispersion=gd3bj scf=xqc pop=npa geom=c
 heck
 ----------------------------------------------------------------------

 -------------------------------------
 CID_154137771_JID_2695_Energie_kation
 -------------------------------------
 Structure from the checkpoint file:  "JID_2695.chk"
 Charge =  1 Multiplicity = 2

 SCF Done:  E(UB3LYP) =  -506.305118886     A.U. after   23 cycles
 Normal termination of Gaussian 16 at Wed Dec  9 18:37:52 2020.
 Gaussian 16:  ES64L-G16RevA.03 25-Dec-2016

 ----------------------------------------------------------------------
 # B3LYP/6-311++G(d,p) empiricaldispersion=gd3bj scf=xqc pop=npa geom=c
 heck
 ----------------------------------------------------------------------

 ------------------------------------
 CID_154137771_JID_2695_Energie_anion
 ------------------------------------
 Structure from the checkpoint file:  "JID_2695.chk"
 Charge = -1 Multiplicity = 2

                         Standard orientation:
 ---------------------------------------------------------------------
 Center     Atomic      Atomic             Coordinates (Angstroms)
 Number     Number       Type             X           Y           Z
 ---------------------------------------------------------------------
      1          6           0        3.013856    0.654478   -1.361753
      2          6           0        2.644883    0.617224    0.125901
      3          6           0        2.947351    1.965556    0.792707
      4          6           0        1.167767    0.249927    0.352455
      5          6           0        0.719138   -1.122627   -0.210216
      6          6           0        1.446422   -2.296416    0.447438
      7          6           0       -0.787350   -1.205756    0.009903
      8          8           0       -1.263182   -1.714353    1.009688
      9          6           0       -1.670851   -0.591282   -1.069462
     10          6           0       -3.044331   -0.139759   -0.550077
     11          6           0       -2.927563    0.998110    0.426403
     12          6           0       -3.369800    2.236421    0.207706
     13          1           0        2.375703    1.365689   -1.902573
     14          1           0        2.903539   -0.325012   -1.839190
     15          1           0        4.053977    0.971688   -1.497368
     16          1           0        3.268770   -0.143543    0.614575
     17          1           0        2.356343    2.768551    0.333781
     18          1           0        2.707675    1.944148    1.862047
     19          1           0        4.005975    2.229378    0.688476
     20          1           0        0.957448    0.252986    1.430233
     21          1           0        0.544551    1.044051   -0.084197
     22          1           0        0.899090   -1.128518   -1.293462
     23          1           0        1.271086   -2.295083    1.527051
     24          1           0        1.082266   -3.251621    0.055036
     25          1           0        2.524170   -2.245063    0.266150
     26          1           0       -1.143492    0.240406   -1.551649
     27          1           0       -1.791676   -1.364120   -1.844609
     28          1           0       -3.672755    0.156659   -1.397660
     29          1           0       -3.521805   -0.997343   -0.061247
     30          1           0       -2.424128    0.763509    1.363563
     31          1           0       -3.248421    3.027316    0.943004
     32          1           0       -3.879998    2.505489   -0.715496
 ---------------------------------------------------------------------

 SCF Done:  E(UB3LYP) =  -506.613208431     A.U. after   33 cycles
 SCF Done:  E(UB3LYP) =  -506.613208431     a.u. after    1 cycles

 The electronic state is 2-A.
 Alpha  occ. eigenvalues --  -19.00526 -10.14809 -10.07973 -10.07874 -10.07673
 Alpha  occ. eigenvalues --  -10.07460 -10.07389 -10.07165 -10.06906 -10.06074
 Alpha  occ. eigenvalues --  -10.06044 -10.05569  -0.93882  -0.72674  -0.70985
 Alpha  occ. eigenvalues --   -0.67770  -0.64554  -0.58749  -0.58480  -0.56510
 Alpha  occ. eigenvalues --   -0.51337  -0.46406  -0.45736  -0.41593  -0.39136
 Alpha  occ. eigenvalues --   -0.38144  -0.36832  -0.35851  -0.34038  -0.33608
 Alpha  occ. eigenvalues --   -0.32666  -0.31790  -0.30514  -0.29425  -0.28849
 Alpha  occ. eigenvalues --   -0.27762  -0.27491  -0.26301  -0.25899  -0.25421
 Alpha  occ. eigenvalues --   -0.24683  -0.23797  -0.22902  -0.22398  -0.22044
 Alpha  occ. eigenvalues --   -0.16923  -0.14474   0.04456
 Alpha virt. eigenvalues --    0.06326   0.07204   0.07590   0.08053   0.08680
 Alpha virt. eigenvalues --    0.08882   0.09165   0.09994   0.10177   0.10549
 Alpha virt. eigenvalues --    0.11124   0.11530   0.11947   0.12498   0.13045

  Beta  occ. eigenvalues --  -19.00474 -10.14729 -10.07970 -10.07872 -10.07661
  Beta  occ. eigenvalues --  -10.07440 -10.07373 -10.07147 -10.06879 -10.06046
  Beta  occ. eigenvalues --  -10.06030 -10.05530  -0.93765  -0.72634  -0.70947
  Beta  occ. eigenvalues --   -0.67721  -0.64500  -0.58694  -0.58424  -0.56426
  Beta  occ. eigenvalues --   -0.51276  -0.46339  -0.45676  -0.41480  -0.39090
  Beta  occ. eigenvalues --   -0.38095  -0.36764  -0.35763  -0.33974  -0.33572
  Beta  occ. eigenvalues --   -0.32618  -0.31752  -0.30439  -0.29383  -0.28813
  Beta  occ. eigenvalues --   -0.27692  -0.27376  -0.26251  -0.25847  -0.25374
  Beta  occ. eigenvalues --   -0.24644  -0.23724  -0.22848  -0.22350  -0.21976
  Beta  occ. eigenvalues --   -0.16842  -0.14421
  Beta virt. eigenvalues --    0.06634   0.07303   0.07646   0.08080   0.08458
  Beta virt. eigenvalues --    0.09195   0.09360   0.09407   0.10203   0.10437
  Beta virt. eigenvalues --    0.10991   0.11546   0.11848   0.12327   0.12733

 Mulliken charges and spin densities:
               1          2
     1  C    0.972535  -1.649448
     2  C   -1.763715   2.221903
     3  C    0.659847  -1.283541
     4  C    0.989672  -1.882176
     5  C   -0.388972   1.308708
     6  C   -0.328485  -0.352116
     7  C   -0.052728  -0.135948
     8  O   -0.260927   0.021379
     9  C    0.442651  -0.565586
    10  C    0.905618  -1.655451
    11  C   -0.549812   0.944235
    12  C   -0.089504  -0.518270
    13  H   -0.181848   0.330715
    14  H   -0.242506   0.380226
    15  H   -0.440409   0.590298
    16  H    0.027948   0.112615
    17  H   -0.145906   0.283587
    18  H   -0.066156   0.189157
    19  H   -0.283978   0.438719
    20  H    0.160282  -0.020384
    21  H    0.454312  -0.345561
    22  H   -0.035910   0.249255
    23  H    0.099458   0.078970
    24  H   -0.091705   0.238016
    25  H    0.021116   0.124502
    26  H    0.012099   0.122724
    27  H   -0.695839   0.910326
    28  H   -0.276718   0.443160
    29  H    0.182020  -0.012968
    30  H    0.035818   0.147805
    31  H    0.051789   0.049493
    32  H   -0.120048   0.235658
 Sum of Mulliken charges =  -1.00000   1.00000

 Dipole moment (field-independent basis, Debye):
    X=             -1.5445    Y=              0.3230    Z=              3.8387  Tot=              4.1504
 Quadrupole moment (field-independent basis, Debye-Ang):
   XX=           -152.3518   YY=           -119.9782   ZZ=           -117.3434
   XY=            -11.4261   XZ=              1.0429   YZ=             -2.4098

 Summary of Natural Population Analysis:

                                       Natural Population
                Natural  -----------------------------------------------
    Atom  No    Charge         Core      Valence    Rydberg      Total
 -----------------------------------------------------------------------
      C    1   -0.28642      0.99965     2.28063    0.00614     3.28642
      C    2   -0.11420      0.99961     2.10550    0.00909     3.11420
      C    3   -0.28199      0.99965     2.27645    0.00588     3.28199
      C    4   -0.18040      0.99959     2.17321    0.00760     3.18040
      C    5   -0.15494      0.99955     2.14490    0.01049     3.15494
      C    6   -0.28617      0.99965     2.27897    0.00755     3.28617
      C    7    0.31482      0.99964     1.66244    0.02311     2.68518
      O    8   -0.29540      0.99987     3.28937    0.00615     4.29540
      C    9   -0.23475      0.99957     2.22566    0.00953     3.23475
      C   10   -0.21104      0.99961     2.19954    0.01188     3.21104
      C   11   -0.07857      0.99956     2.06964    0.00937     3.07857
      C   12   -0.19569      0.99956     2.18968    0.00645     3.19569
      H   13    0.09697      0.00000     0.40183    0.00120     0.40303
      H   14    0.10086      0.00000     0.39776    0.00138     0.39914
      H   15    0.10119      0.00000     0.39740    0.00141     0.39881
      H   16    0.09186      0.00000     0.40632    0.00182     0.40814
      H   17    0.09648      0.00000     0.40256    0.00097     0.40352
      H   18    0.09706      0.00000     0.40207    0.00087     0.40294
      H   19    0.10060      0.00000     0.39832    0.00108     0.39940
      H   20    0.09851      0.00000     0.40025    0.00124     0.40149
      H   21    0.09940      0.00000     0.39902    0.00157     0.40060
      H   22    0.10543      0.00000     0.39199    0.00258     0.39457
      H   23    0.10372      0.00000     0.39540    0.00088     0.39628
      H   24    0.10182      0.00000     0.39743    0.00074     0.39818
      H   25    0.09866      0.00000     0.40045    0.00089     0.40134
      H   26    0.10499      0.00000     0.39338    0.00163     0.39501
      H   27    0.12032      0.00000     0.37502    0.00466     0.37968
      H   28    0.10079      0.00000     0.39771    0.00149     0.39921
      H   29    0.10950      0.00000     0.38925    0.00125     0.39050
      H   30    0.09677      0.00000     0.40200    0.00124     0.40323
      H   31    0.09094      0.00000     0.40809    0.00097     0.40906
      H   32    0.08885      0.00000     0.40987    0.00128     0.41115
 =======================================================================
   * Total *   -0.00000     11.99551    34.86210    0.14239    47.00000

 Normal termination of Gaussian 16 at Wed Dec  9 18:47:12 2020.
