 Gaussian 16, Revision A.03,

 -----------------------------------------------------------
 # opt freq B3LYP/6-31G(d) empiricaldispersion=gd3bj scf=xqc
 -----------------------------------------------------------

 -----------------------------
 CID_22964462_JID_439_neutraal
 -----------------------------
 Symbolic Z-matrix:
 Charge =  0 Multiplicity = 1

 SCF Done:  E(RB3LYP) =  -495.862417435     A.U. after   15 cycles
 SCF Done:  E(RB3LYP) =  -495.905497029     A.U. after   14 cycles
 SCF Done:  E(RB3LYP) =  -495.911452170     A.U. after   16 cycles
 SCF Done:  E(RB3LYP) =  -495.911311069     A.U. after   16 cycles
 SCF Done:  E(RB3LYP) =  -495.914835063     A.U. after   14 cycles
 SCF Done:  E(RB3LYP) =  -495.916897823     A.U. after   13 cycles
 SCF Done:  E(RB3LYP) =  -495.913844089     A.U. after   14 cycles
 SCF Done:  E(RB3LYP) =  -495.916163846     A.U. after   13 cycles
 SCF Done:  E(RB3LYP) =  -495.916963314     A.U. after   11 cycles
 SCF Done:  E(RB3LYP) =  -495.916969548     A.U. after   13 cycles
 SCF Done:  E(RB3LYP) =  -495.917129138     A.U. after   12 cycles
 SCF Done:  E(RB3LYP) =  -495.917130870     A.U. after   13 cycles
 SCF Done:  E(RB3LYP) =  -495.917130976     A.U. after   12 cycles
 SCF Done:  E(RB3LYP) =  -495.917131003     A.U. after   10 cycles
 SCF Done:  E(RB3LYP) =  -495.917131025     A.U. after   12 cycles
 Optimization completed on the basis of negligible forces.
    -- Stationary point found.
 Normal termination of Gaussian 16 at Tue Dec  8 10:38:58 2020.

 --------------------------------------------------------------------
 #N Geom=AllCheck Guess=TCheck SCRF=Check GenChk RB3LYP/6-31G(d) Freq
 --------------------------------------------------------------------

 Structure from the checkpoint file:  "JID_439.chk"
 -----------------------------
 CID_22964462_JID_439_neutraal
 -----------------------------
 Charge =  0 Multiplicity = 1

 SCF Done:  E(RB3LYP) =  -495.917131025     A.U. after    1 cycles

  Exact polarizability: 166.470  10.720  54.202   8.244   1.860  47.933
 Approx polarizability: 271.464  30.778  76.164  20.490   2.925  69.864

                      1                      2                      3
                      A                      A                      A
 Frequencies --      7.0451                19.7312                53.4666
 Red. masses --      3.6802                 9.7986                 5.0163
 Frc consts  --      0.0001                 0.0022                 0.0084
 IR Inten    --      2.5255                 1.6299                 0.9076

                      4                      5                      6
                      A                      A                      A
 Frequencies --     74.8942               139.8471               173.6812
 Red. masses --      4.5830                 4.0127                 4.0195
 Frc consts  --      0.0151                 0.0462                 0.0714
 IR Inten    --      1.3259                 3.2135                 2.9028

                      7                      8                      9
                      A                      A                      A
 Frequencies --    265.0236               317.8590               348.5218
 Red. masses --      3.5598                 2.2679                 2.7493
 Frc consts  --      0.1473                 0.1350                 0.1968
 IR Inten    --     27.1171                45.8261                61.9868

                     10                     11                     12
                      A                      A                      A
 Frequencies --    368.6971               410.5041               501.8730
 Red. masses --      3.3841                 6.1040                 2.6829
 Frc consts  --      0.2710                 0.6060                 0.3981
 IR Inten    --     39.4270                 3.2462                 4.0100

                     13                     14                     15
                      A                      A                      A
 Frequencies --    532.6885               610.7091               669.7304
 Red. masses --      4.7005                 3.2029                 2.5413
 Frc consts  --      0.7859                 0.7038                 0.6716
 IR Inten    --     40.7810                53.8603                28.0301

                     16                     17                     18
                      A                      A                      A
 Frequencies --    698.8257               734.0046               736.5314
 Red. masses --      2.9897                 4.1763                 9.1194
 Frc consts  --      0.8602                 1.3257                 2.9147
 IR Inten    --     46.0266                53.5780                 2.2160

                     19                     20                     21
                      A                      A                      A
 Frequencies --    865.3087               953.5381               965.4417
 Red. masses --      4.6034                 2.4271                 2.8069
 Frc consts  --      2.0308                 1.3002                 1.5415
 IR Inten    --     10.1470                 5.0379                23.7026

                     22                     23                     24
                      A                      A                      A
 Frequencies --    995.3089              1058.4519              1191.7874
 Red. masses --      1.8051                 6.4484                 1.9646
 Frc consts  --      1.0536                 4.2564                 1.6441
 IR Inten    --     14.2725               112.9951               193.6726

                     25                     26                     27
                      A                      A                      A
 Frequencies --   1220.9166              1248.2675              1277.6207
 Red. masses --      1.0839                 1.2218                 2.5139
 Frc consts  --      0.9519                 1.1217                 2.4177
 IR Inten    --     18.5923                36.1582                18.0664

                     28                     29                     30
                      A                      A                      A
 Frequencies --   1352.9360              1371.1902              1388.5987
 Red. masses --      1.9485                 1.2591                 2.5618
 Frc consts  --      2.1014                 1.3948                 2.9104
 IR Inten    --     34.3265                 3.5714                66.2657

                     31                     32                     33
                      A                      A                      A
 Frequencies --   1430.5021              1470.5657              1515.1778
 Red. masses --      1.2623                 1.0973                 1.0779
 Frc consts  --      1.5220                 1.3982                 1.4580
 IR Inten    --    144.3818                 4.6815                 0.8756

                     34                     35                     36
                      A                      A                      A
 Frequencies --   1854.7729              2277.5905              2379.8864
 Red. masses --     10.1407                11.8854                11.9095
 Frc consts  --     20.5541                36.3257                39.7426
 IR Inten    --    388.1169                 2.8852                 4.3873

                     37                     38                     39
                      A                      A                      A
 Frequencies --   2991.5600              3029.0196              3087.7981
 Red. masses --      1.0717                 1.0686                 1.0895
 Frc consts  --      5.6508                 5.7767                 6.1206
 IR Inten    --     54.8448                11.3712                16.9531

                     40                     41                     42
                      A                      A                      A
 Frequencies --   3099.9227              3684.7954              3740.6319
 Red. masses --      1.0916                 1.0640                 1.0663
 Frc consts  --      6.1806                 8.5114                 8.7908
 IR Inten    --      1.9970                58.9647                17.6136

 - Thermochemistry -
 -------------------
 Temperature   298.150 Kelvin.  Pressure   1.00000 Atm.
 Atom     1 has atomic number  6 and mass  12.00000

 Molecular mass:   138.03169 amu.
 Principal axes and moments of inertia in atomic units:
                           1         2         3
     Eigenvalues --   344.070685180.163595365.85211
           X            0.99999  -0.00046   0.00418
           Y            0.00034   0.99955   0.02994
           Z           -0.00419  -0.02994   0.99954
 This molecule is an asymmetric top.
 Rotational symmetry number  1.
 Rotational temperatures (Kelvin)      0.25173     0.01672     0.01614
 Rotational constants (GHZ):           5.24526     0.34839     0.33634
 Zero-point vibrational energy     305736.9 (Joules/Mol)
                                   73.07288 (Kcal/Mol)
 Warning -- explicit consideration of  14 degrees of freedom as
           vibrations may cause significant error
 Vibrational temperatures:     10.14    28.39    76.93   107.76   201.21
          (Kelvin)            249.89   381.31   457.33   501.45   530.47
                              590.62   722.08   766.42   878.67   963.59
                             1005.45  1056.07  1059.70  1244.99  1371.93
                             1389.06  1432.03  1522.88  1714.72  1756.63
                             1795.98  1838.21  1946.57  1972.84  1997.88
                             2058.17  2115.82  2180.00  2668.60  3276.94
                             3424.13  4304.19  4358.08  4442.65  4460.10
                             5301.60  5381.93

 Zero-point correction=                           0.116449 (Hartree/Particle)
 Thermal correction to Energy=                    0.127184
 Thermal correction to Enthalpy=                  0.128129
 Thermal correction to Gibbs Free Energy=         0.075687
 Sum of electronic and zero-point Energies=           -495.800682
 Sum of electronic and thermal Energies=              -495.789947
 Sum of electronic and thermal Enthalpies=            -495.789002
 Sum of electronic and thermal Free Energies=         -495.841444

                     E (Thermal)             CV                S
                      KCal/Mol        Cal/Mol-Kelvin    Cal/Mol-Kelvin
 Total                   79.809             35.744            110.373
 Electronic               0.000              0.000              0.000
 Translational            0.889              2.981             40.679
 Rotational               0.889              2.981             30.637
 Vibrational             78.032             29.782             39.057
 Vibration     1          0.593              1.987              8.707
 Vibration     2          0.593              1.986              6.661
 Vibration     3          0.596              1.976              4.685
 Vibration     4          0.599              1.966              4.020
 Vibration     5          0.615              1.913              2.806
 Vibration     6          0.627              1.875              2.395
 Vibration     7          0.671              1.737              1.628
 Vibration     8          0.704              1.639              1.321
 Vibration     9          0.726              1.578              1.173
 Vibration    10          0.741              1.537              1.085
 Vibration    11          0.775              1.447              0.925
 Vibration    12          0.857              1.246              0.653
 Vibration    13          0.888              1.178              0.581
 Vibration    14          0.970              1.009              0.432

 Optimization completed on the basis of negligible forces.
    -- Stationary point found.
 Normal termination of Gaussian 16 at Tue Dec  8 10:41:29 2020.

 ----------------------------------------------------------------------
 # B3LYP/6-311++G(d,p) empiricaldispersion=gd3bj scf=xqc pop=npa geom=c
 heck
 ----------------------------------------------------------------------

 -------------------------------------
 CID_22964462_JID_439_Energie_neutraal
 -------------------------------------
 Structure from the checkpoint file:  "JID_439.chk"
 Charge =  0 Multiplicity = 1

 SCF Done:  E(RB3LYP) =  -496.083784116     A.U. after   15 cycles
 Normal termination of Gaussian 16 at Tue Dec  8 10:43:31 2020.

 ----------------------------------------------------------------------
 # B3LYP/6-311++G(d,p) empiricaldispersion=gd3bj scf=xqc pop=npa geom=c
 heck
 ----------------------------------------------------------------------

 -----------------------------------
 CID_22964462_JID_439_Energie_kation
 -----------------------------------
 Structure from the checkpoint file:  "JID_439.chk"
 Charge =  1 Multiplicity = 2

 SCF Done:  E(UB3LYP) =  -495.755644287     A.U. after   24 cycles
 Normal termination of Gaussian 16 at Tue Dec  8 10:46:13 2020.
 Gaussian 16:  ES64L-G16RevA.03 25-Dec-2016

 ----------------------------------------------------------------------
 # B3LYP/6-311++G(d,p) empiricaldispersion=gd3bj scf=xqc pop=npa geom=c
 heck
 ----------------------------------------------------------------------

 ----------------------------------
 CID_22964462_JID_439_Energie_anion
 ----------------------------------
 Structure from the checkpoint file:  "JID_439.chk"
 Charge = -1 Multiplicity = 2

                         Standard orientation:
 ---------------------------------------------------------------------
 Center     Atomic      Atomic             Coordinates (Angstroms)
 Number     Number       Type             X           Y           Z
 ---------------------------------------------------------------------
      1          6           0       -2.365785   -0.937902   -0.433046
      2          6           0       -0.941623   -0.727815   -0.223107
      3          6           0        0.248226   -0.568308   -0.039890
      4          6           0        1.585857   -0.386805    0.164413
      5          6           0        2.774474   -0.228104    0.367069
      6          6           0        4.220564   -0.046071    0.511727
      7          8           0        4.799603    0.724291   -0.535372
      8          6           0       -3.278448    0.196536    0.030295
      9          8           0       -4.408452    0.028649    0.424117
     10          8           0       -2.703161    1.408440   -0.099494
     11          1           0       -2.714534   -1.845227    0.071570
     12          1           0       -2.571147   -1.082335   -1.504635
     13          1           0        4.441042    0.498268    1.436532
     14          1           0        4.701549   -1.034317    0.599694
     15          1           0        4.549687    0.304628   -1.373757
     16          1           0       -3.370106    2.058757    0.191838
 ---------------------------------------------------------------------

 SCF Done:  E(UB3LYP) =  -496.073399639     A.U. after   33 cycles
 SCF Done:  E(UB3LYP) =  -496.073399639     a.u. after    1 cycles

 The electronic state is 2-A.
 Alpha  occ. eigenvalues --  -19.08103 -19.02280 -18.99634 -10.21135 -10.11375
 Alpha  occ. eigenvalues --  -10.10623 -10.05383 -10.04809 -10.04588 -10.04171
 Alpha  occ. eigenvalues --   -1.02149  -0.93208  -0.89938  -0.69654  -0.65835
 Alpha  occ. eigenvalues --   -0.61591  -0.56728  -0.52875  -0.47060  -0.41125
 Alpha  occ. eigenvalues --   -0.39820  -0.39462  -0.38498  -0.34894  -0.34150
 Alpha  occ. eigenvalues --   -0.32340  -0.31557  -0.30773  -0.23863  -0.23831
 Alpha  occ. eigenvalues --   -0.21680  -0.21005  -0.19322  -0.16446  -0.12091
 Alpha  occ. eigenvalues --   -0.11297   0.05489
 Alpha virt. eigenvalues --    0.06464   0.07529   0.09190   0.09355   0.10310
 Alpha virt. eigenvalues --    0.10592   0.11415   0.12029   0.13616   0.14960
 Alpha virt. eigenvalues --    0.15671   0.16368   0.16915   0.17519   0.17957

  Beta  occ. eigenvalues --  -19.08078 -19.02252 -18.99510 -10.21026 -10.11352
  Beta  occ. eigenvalues --  -10.10665 -10.05377 -10.04589 -10.04476 -10.04054
  Beta  occ. eigenvalues --   -1.02060  -0.93150  -0.89635  -0.69374  -0.65518
  Beta  occ. eigenvalues --   -0.61337  -0.56501  -0.52743  -0.46677  -0.40958
  Beta  occ. eigenvalues --   -0.39664  -0.39365  -0.38116  -0.34723  -0.33926
  Beta  occ. eigenvalues --   -0.32115  -0.31240  -0.30666  -0.23685  -0.23641
  Beta  occ. eigenvalues --   -0.21370  -0.20390  -0.19245  -0.16277  -0.11292
  Beta  occ. eigenvalues --   -0.10977
  Beta virt. eigenvalues --    0.06606   0.08371   0.08711   0.09572   0.10362
  Beta virt. eigenvalues --    0.10923   0.11203   0.11813   0.12657   0.13477
  Beta virt. eigenvalues --    0.14964   0.15807   0.16369   0.16892   0.17636

 Mulliken charges and spin densities:
               1          2
     1  C   -0.172274  -0.230066
     2  C   -0.336509   0.293187
     3  C   -0.017471   0.236428
     4  C    0.063772   0.062209
     5  C   -1.635011   1.467618
     6  C    2.216084  -2.554189
     7  O   -0.233293  -0.021769
     8  C    0.063412   0.035956
     9  O   -0.328596   0.013169
    10  O   -0.139107   0.001206
    11  H    0.201909  -0.012890
    12  H   -0.066514   0.277669
    13  H   -0.198208   0.358527
    14  H   -0.373136   0.511111
    15  H   -0.252834   0.500848
    16  H    0.207777   0.060986
 Sum of Mulliken charges =  -1.00000   1.00000

 Dipole moment (field-independent basis, Debye):
    X=             -8.4237    Y=              0.1947    Z=              1.2332  Tot=              8.5158
 Quadrupole moment (field-independent basis, Debye-Ang):
   XX=           -155.3952   YY=            -69.4440   ZZ=            -72.4105
   XY=             -8.0177   XZ=              7.7915   YZ=              0.5124

 Summary of Natural Population Analysis:

                                       Natural Population
                Natural  -----------------------------------------------
    Atom  No    Charge         Core      Valence    Rydberg      Total
 -----------------------------------------------------------------------
      C    1   -0.27319      0.99954     2.26617    0.00748     3.27319
      C    2    0.04802      0.99926     1.94603    0.00669     2.95198
      C    3   -0.04250      0.99923     2.03782    0.00545     3.04250
      C    4   -0.03464      0.99925     2.02991    0.00547     3.03464
      C    5    0.02753      0.99927     1.96654    0.00666     2.97247
      C    6   -0.04703      0.99955     2.03317    0.01432     3.04703
      O    7   -0.35966      0.99990     3.35210    0.00766     4.35966
      C    8    0.42469      0.99975     1.54908    0.02649     2.57531
      O    9   -0.31314      0.99987     3.30722    0.00606     4.31314
      O   10   -0.33656      0.99987     3.33042    0.00627     4.33656
      H   11    0.12137      0.00000     0.37765    0.00098     0.37863
      H   12    0.12897      0.00000     0.36857    0.00245     0.37103
      H   13    0.09766      0.00000     0.40040    0.00194     0.40234
      H   14    0.08905      0.00000     0.40861    0.00234     0.41095
      H   15    0.23310      0.00000     0.25553    0.01137     0.26690
      H   16    0.23633      0.00000     0.26030    0.00337     0.26367
 =======================================================================
   * Total *    0.00000      9.99548    25.88953    0.11499    36.00000

 Normal termination of Gaussian 16 at Tue Dec  8 10:48:38 2020.
