 Gaussian 16, Revision A.03,

 -----------------------------------------------------------
 # opt freq B3LYP/6-31G(d) empiricaldispersion=gd3bj scf=xqc
 -----------------------------------------------------------

 -------------------------------
 CID_102612659_JID_6685_neutraal
 -------------------------------
 Symbolic Z-matrix:
 Charge =  0 Multiplicity = 1

 SCF Done:  E(RB3LYP) =  -709.425722583     A.U. after   14 cycles
 SCF Done:  E(RB3LYP) =  -709.431145954     A.U. after   12 cycles
 SCF Done:  E(RB3LYP) =  -709.431959252     A.U. after   12 cycles
 SCF Done:  E(RB3LYP) =  -709.433573983     A.U. after   12 cycles
 SCF Done:  E(RB3LYP) =  -709.435965419     A.U. after   12 cycles
 SCF Done:  E(RB3LYP) =  -709.439658613     A.U. after   14 cycles
 SCF Done:  E(RB3LYP) =  -709.441452613     A.U. after   12 cycles
 SCF Done:  E(RB3LYP) =  -709.442217476     A.U. after   14 cycles
 SCF Done:  E(RB3LYP) =  -709.443874408     A.U. after   12 cycles
 SCF Done:  E(RB3LYP) =  -709.444346040     A.U. after   12 cycles
 SCF Done:  E(RB3LYP) =  -709.446948681     A.U. after    9 cycles
 SCF Done:  E(RB3LYP) =  -709.446950002     A.U. after    9 cycles
 SCF Done:  E(RB3LYP) =  -709.446950163     A.U. after    7 cycles
 SCF Done:  E(RB3LYP) =  -709.446950215     A.U. after    7 cycles
 SCF Done:  E(RB3LYP) =  -709.446950222     A.U. after    7 cycles
 Optimization completed.
    -- Stationary point found.
 Normal termination of Gaussian 16 at Fri Dec 11 00:37:53 2020.

 --------------------------------------------------------------------
 #N Geom=AllCheck Guess=TCheck SCRF=Check GenChk RB3LYP/6-31G(d) Freq
 --------------------------------------------------------------------

 Structure from the checkpoint file:  "JID_6685.chk"
 -------------------------------
 CID_102612659_JID_6685_neutraal
 -------------------------------
 Charge =  0 Multiplicity = 1

 SCF Done:  E(RB3LYP) =  -709.446950222     A.U. after    1 cycles

  Exact polarizability: 167.553  13.729 141.211  -6.922  12.011 131.975
 Approx polarizability: 213.118  26.403 221.245 -16.481  30.245 209.845

                      1                      2                      3
                      A                      A                      A
 Frequencies --     21.7427                34.6558                44.8744
 Red. masses --      3.4580                 3.9151                 4.1185
 Frc consts  --      0.0010                 0.0028                 0.0049
 IR Inten    --      0.3357                 0.0335                 0.1928

                      4                      5                      6
                      A                      A                      A
 Frequencies --     50.5425                70.1437               104.4396
 Red. masses --      2.8412                 3.1509                 2.9423
 Frc consts  --      0.0043                 0.0091                 0.0189
 IR Inten    --      0.1721                 0.1896                 0.2516

                      7                      8                      9
                      A                      A                      A
 Frequencies --    122.6812               139.6268               163.9303
 Red. masses --      2.8899                 1.5015                 1.7897
 Frc consts  --      0.0256                 0.0172                 0.0283
 IR Inten    --      1.2804                 0.1210                 0.3280

                     10                     11                     12
                      A                      A                      A
 Frequencies --    185.4674               208.8223               228.2165
 Red. masses --      2.0003                 2.8183                 1.2253
 Frc consts  --      0.0405                 0.0724                 0.0376
 IR Inten    --      2.9975                 0.4851                 0.3356

                     13                     14                     15
                      A                      A                      A
 Frequencies --    242.6156               254.6292               270.7810
 Red. masses --      1.2297                 1.3134                 2.2458
 Frc consts  --      0.0426                 0.0502                 0.0970
 IR Inten    --      0.7994                 0.5100                 2.7285

                     16                     17                     18
                      A                      A                      A
 Frequencies --    275.5239               328.3533               353.4337
 Red. masses --      2.6780                 2.4936                 3.0014
 Frc consts  --      0.1198                 0.1584                 0.2209
 IR Inten    --      1.5503                 2.4505                 7.9363

                     19                     20                     21
                      A                      A                      A
 Frequencies --    406.0673               413.0802               426.5114
 Red. masses --      2.7782                 3.4563                 2.4508
 Frc consts  --      0.2699                 0.3475                 0.2627
 IR Inten    --      2.9397                 3.0775                 5.6471

                     22                     23                     24
                      A                      A                      A
 Frequencies --    454.6110               477.2283               520.2468
 Red. masses --      3.1688                 4.4034                 2.6640
 Frc consts  --      0.3859                 0.5909                 0.4248
 IR Inten    --      3.1437                 4.9585                 7.7636

                     25                     26                     27
                      A                      A                      A
 Frequencies --    538.2435               556.9391               596.0422
 Red. masses --      2.9178                 3.4020                 5.7038
 Frc consts  --      0.4980                 0.6217                 1.1939
 IR Inten    --      8.7955                 0.6958                 2.5491

                     28                     29                     30
                      A                      A                      A
 Frequencies --    662.5081               717.0206               748.5999
 Red. masses --      4.7610                 1.9261                 3.1991
 Frc consts  --      1.2312                 0.5834                 1.0563
 IR Inten    --     11.0047                75.3010                18.3087

                     31                     32                     33
                      A                      A                      A
 Frequencies --    812.2865               815.6526               864.2400
 Red. masses --      1.1378                 3.4819                 2.3645
 Frc consts  --      0.4423                 1.3648                 1.0405
 IR Inten    --      1.9199                 4.7393                 0.8885

                     34                     35                     36
                      A                      A                      A
 Frequencies --    876.1546               887.4748               898.2653
 Red. masses --      1.4006                 2.6786                 2.4355
 Frc consts  --      0.6335                 1.2430                 1.1578
 IR Inten    --      9.6867                 1.4205                 7.1859

                     37                     38                     39
                      A                      A                      A
 Frequencies --    918.7913               945.3841               976.2109
 Red. masses --      2.6685                 1.2112                 1.4137
 Frc consts  --      1.3273                 0.6378                 0.7938
 IR Inten    --      5.7081                 1.2476                 0.1114

                     40                     41                     42
                      A                      A                      A
 Frequencies --    987.8190              1006.2532              1021.4422
 Red. masses --      1.8193                 1.6558                 3.1627
 Frc consts  --      1.0460                 0.9878                 1.9442
 IR Inten    --      4.4987                 9.8113                13.0456

                     43                     44                     45
                      A                      A                      A
 Frequencies --   1057.0080              1069.5916              1085.3092
 Red. masses --      1.6696                 1.6071                 2.0364
 Frc consts  --      1.0991                 1.0832                 1.4132
 IR Inten    --      6.2417                 3.2430                15.2573

                     46                     47                     48
                      A                      A                      A
 Frequencies --   1099.2645              1112.4608              1123.7108
 Red. masses --      2.4580                 2.5013                 2.1151
 Frc consts  --      1.7500                 1.8239                 1.5736
 IR Inten    --     20.5542                27.7821                 5.9571

                     49                     50                     51
                      A                      A                      A
 Frequencies --   1154.4217              1157.4899              1172.3455
 Red. masses --      2.5057                 2.6135                 3.5201
 Frc consts  --      1.9675                 2.0630                 2.8505
 IR Inten    --     39.2471                22.0537               249.5770

                     52                     53                     54
                      A                      A                      A
 Frequencies --   1198.4080              1206.6445              1221.8273
 Red. masses --      2.2589                 2.2712                 1.9407
 Frc consts  --      1.9114                 1.9483                 1.7070
 IR Inten    --     12.4903                31.7869                38.0143

                     55                     56                     57
                      A                      A                      A
 Frequencies --   1250.0808              1275.0695              1288.2451
 Red. masses --      4.7423                 1.2086                 2.6353
 Frc consts  --      4.3664                 1.1577                 2.5768
 IR Inten    --      7.0050                 4.3160                 0.3301

                     58                     59                     60
                      A                      A                      A
 Frequencies --   1302.2714              1337.9645              1356.3184
 Red. masses --      1.9490                 1.1199                 1.2347
 Frc consts  --      1.9474                 1.1812                 1.3382
 IR Inten    --      0.8891                16.3236                 2.1635

                     61                     62                     63
                      A                      A                      A
 Frequencies --   1369.2610              1375.3966              1395.0837
 Red. masses --      1.5728                 1.2620                 1.2583
 Frc consts  --      1.7374                 1.4065                 1.4429
 IR Inten    --     13.6017                 2.3690                 5.3184

                     64                     65                     66
                      A                      A                      A
 Frequencies --   1414.5303              1426.7301              1428.7484
 Red. masses --      1.2534                 1.3073                 1.4007
 Frc consts  --      1.4776                 1.5679                 1.6846
 IR Inten    --     12.2183                 5.5089                 2.9605

                     67                     68                     69
                      A                      A                      A
 Frequencies --   1435.1968              1440.3996              1444.5185
 Red. masses --      1.2582                 1.2807                 2.3699
 Frc consts  --      1.5269                 1.5655                 2.9135
 IR Inten    --      6.8466                43.5992                43.7367

                     70                     71                     72
                      A                      A                      A
 Frequencies --   1450.2368              1488.4057              1507.5515
 Red. masses --      1.3655                 1.5126                 1.1916
 Frc consts  --      1.6920                 1.9744                 1.5957
 IR Inten    --      1.5860                 6.3465                10.8597

                     73                     74                     75
                      A                      A                      A
 Frequencies --   1516.8763              1517.7224              1518.6320
 Red. masses --      1.0527                 1.2771                 1.0719
 Frc consts  --      1.4271                 1.7332                 1.4565
 IR Inten    --      7.0222                 7.2896                 4.4230

                     76                     77                     78
                      A                      A                      A
 Frequencies --   1519.3878              1520.2540              1521.1706
 Red. masses --      1.0906                 1.0737                 1.0958
 Frc consts  --      1.4834                 1.4620                 1.4939
 IR Inten    --      4.7774                 2.2757                 5.8333

                     79                     80                     81
                      A                      A                      A
 Frequencies --   1527.8758              1536.2574              1537.8111
 Red. masses --      1.0656                 1.0684                 1.0807
 Frc consts  --      1.4656                 1.4856                 1.5057
 IR Inten    --      3.4202                 0.2551                 4.5894

                     82                     83                     84
                      A                      A                      A
 Frequencies --   1550.4265              1599.1988              1618.2060
 Red. masses --      1.0869                 8.2112                 5.0595
 Frc consts  --      1.5394                12.3727                 7.8060
 IR Inten    --      5.3532                10.4424                 0.2766

                     85                     86                     87
                      A                      A                      A
 Frequencies --   2968.9178              2987.8415              3035.9508
 Red. masses --      1.0673                 1.0712                 1.0468
 Frc consts  --      5.5428                 5.6341                 5.6849
 IR Inten    --     31.3104                80.3524                24.2992

                     88                     89                     90
                      A                      A                      A
 Frequencies --   3042.2631              3049.4921              3055.7198
 Red. masses --      1.0868                 1.0403                 1.0410
 Frc consts  --      5.9264                 5.7001                 5.7270
 IR Inten    --     23.6267                11.3903                29.0866

                     91                     92                     93
                      A                      A                      A
 Frequencies --   3067.1633              3072.1799              3087.8865
 Red. masses --      1.0445                 1.0749                 1.0930
 Frc consts  --      5.7896                 5.9774                 6.1406
 IR Inten    --     17.7762                27.1681                23.6132

                     94                     95                     96
                      A                      A                      A
 Frequencies --   3089.7626              3101.2449              3114.1347
 Red. masses --      1.0833                 1.0997                 1.0916
 Frc consts  --      6.0935                 6.2318                 6.2373
 IR Inten    --     10.4851                16.6064                29.1762

                     97                     98                     99
                      A                      A                      A
 Frequencies --   3122.0501              3132.6892              3136.6103
 Red. masses --      1.1010                 1.1036                 1.1017
 Frc consts  --      6.3232                 6.3811                 6.3862
 IR Inten    --     46.5443                37.6520                27.0266

                    100                    101                    102
                      A                      A                      A
 Frequencies --   3147.1582              3157.0898              3160.6108
 Red. masses --      1.1016                 1.1020                 1.0995
 Frc consts  --      6.4288                 6.4713                 6.4714
 IR Inten    --     21.9131                20.3814                 8.3695

                    103                    104                    105
                      A                      A                      A
 Frequencies --   3174.9233              3193.9392              3514.5572
 Red. masses --      1.0871                 1.0972                 1.0742
 Frc consts  --      6.4562                 6.5948                 7.8179
 IR Inten    --      4.2337                52.8641                 0.8468

 - Thermochemistry -
 -------------------
 Temperature   298.150 Kelvin.  Pressure   1.00000 Atm.
 Atom     1 has atomic number  6 and mass  12.00000

 Molecular mass:   223.16846 amu.
 Principal axes and moments of inertia in atomic units:
                           1         2         3
     Eigenvalues --  1826.250847140.102717351.92662
           X            0.99997  -0.00423  -0.00689
           Y            0.00397   0.99928  -0.03785
           Z            0.00705   0.03782   0.99926
 This molecule is an asymmetric top.
 Rotational symmetry number  1.
 Warning -- assumption of classical behavior for rotation
           may cause significant error
 Rotational temperatures (Kelvin)      0.04743     0.01213     0.01178
 Rotational constants (GHZ):           0.98822     0.25276     0.24548
 Zero-point vibrational energy     856335.1 (Joules/Mol)
                                  204.66900 (Kcal/Mol)
 Warning -- explicit consideration of  27 degrees of freedom as
           vibrations may cause significant error
 Vibrational temperatures:     31.28    49.86    64.56    72.72   100.92
          (Kelvin)            150.27   176.51   200.89   235.86   266.85
                              300.45   328.35   349.07   366.35   389.59
                              396.42   472.43   508.51   584.24   594.33
                              613.65   654.08   686.63   748.52   774.41
                              801.31   857.57   953.20  1031.63  1077.07
                             1168.70  1173.54  1243.45  1260.59  1276.88
                             1292.40  1321.94  1360.20  1404.55  1421.25
                             1447.77  1469.63  1520.80  1538.90  1561.52
                             1581.60  1600.58  1616.77  1660.96  1665.37
                             1686.74  1724.24  1736.09  1757.94  1798.59
                             1834.54  1853.50  1873.68  1925.03  1951.44
                             1970.06  1978.89  2007.21  2035.19  2052.75
                             2055.65  2064.93  2072.41  2078.34  2086.57
                             2141.48  2169.03  2182.45  2183.66  2184.97
                             2186.06  2187.31  2188.63  2198.27  2210.33
                             2212.57  2230.72  2300.89  2328.24  4271.61
                             4298.84  4368.06  4377.14  4387.54  4396.50
                             4412.96  4420.18  4442.78  4445.48  4462.00
                             4480.55  4491.93  4507.24  4512.88  4528.06
                             4542.35  4547.41  4568.01  4595.37  5056.66

 Zero-point correction=                           0.326161 (Hartree/Particle)
 Thermal correction to Energy=                    0.343762
 Thermal correction to Enthalpy=                  0.344706
 Thermal correction to Gibbs Free Energy=         0.279103
 Sum of electronic and zero-point Energies=           -709.120789
 Sum of electronic and thermal Energies=              -709.103188
 Sum of electronic and thermal Enthalpies=            -709.102244
 Sum of electronic and thermal Free Energies=         -709.167847

                     E (Thermal)             CV                S
                      KCal/Mol        Cal/Mol-Kelvin    Cal/Mol-Kelvin
 Total                  215.714             64.758            138.074
 Electronic               0.000              0.000              0.000
 Translational            0.889              2.981             42.111
 Rotational               0.889              2.981             32.927
 Vibrational            213.936             58.797             63.036
 Vibration     1          0.593              1.985              6.468
 Vibration     2          0.594              1.983              5.543
 Vibration     3          0.595              1.979              5.031
 Vibration     4          0.595              1.977              4.796
 Vibration     5          0.598              1.968              4.149
 Vibration     6          0.605              1.946              3.370
 Vibration     7          0.610              1.930              3.058
 Vibration     8          0.615              1.914              2.809
 Vibration     9          0.623              1.887              2.504
 Vibration    10          0.632              1.860              2.273
 Vibration    11          0.642              1.827              2.054
 Vibration    12          0.651              1.798              1.893
 Vibration    13          0.659              1.775              1.784
 Vibration    14          0.665              1.755              1.698
 Vibration    15          0.674              1.727              1.591
 Vibration    16          0.677              1.719              1.561
 Vibration    17          0.712              1.619              1.268
 Vibration    18          0.730              1.568              1.151
 Vibration    19          0.771              1.457              0.941
 Vibration    20          0.777              1.442              0.916
 Vibration    21          0.788              1.413              0.870
 Vibration    22          0.813              1.351              0.782
 Vibration    23          0.834              1.301              0.718
 Vibration    24          0.875              1.205              0.609
 Vibration    25          0.893              1.165              0.569
 Vibration    26          0.912              1.125              0.530
 Vibration    27          0.954              1.040              0.457

                           ! Non-Optimized Parameters !
 Normal termination of Gaussian 16 at Fri Dec 11 00:50:21 2020.

 ----------------------------------------------------------------------
 # B3LYP/6-311++G(d,p) empiricaldispersion=gd3bj scf=xqc pop=npa geom=c
 heck
 ----------------------------------------------------------------------

 ---------------------------------------
 CID_102612659_JID_6685_Energie_neutraal
 ---------------------------------------
 Structure from the checkpoint file:  "JID_6685.chk"
 Charge =  0 Multiplicity = 1

 SCF Done:  E(RB3LYP) =  -709.644995714     A.U. after   15 cycles
 Normal termination of Gaussian 16 at Fri Dec 11 00:55:54 2020.

 ----------------------------------------------------------------------
 # B3LYP/6-311++G(d,p) empiricaldispersion=gd3bj scf=xqc pop=npa geom=c
 heck
 ----------------------------------------------------------------------

 -------------------------------------
 CID_102612659_JID_6685_Energie_kation
 -------------------------------------
 Structure from the checkpoint file:  "JID_6685.chk"
 Charge =  1 Multiplicity = 2

 SCF Done:  E(UB3LYP) =  -709.351847603     A.U. after   23 cycles
 Normal termination of Gaussian 16 at Fri Dec 11 01:07:16 2020.
 Gaussian 16:  ES64L-G16RevA.03 25-Dec-2016

 ----------------------------------------------------------------------
 # B3LYP/6-311++G(d,p) empiricaldispersion=gd3bj scf=xqc pop=npa geom=c
 heck
 ----------------------------------------------------------------------

 ------------------------------------
 CID_102612659_JID_6685_Energie_anion
 ------------------------------------
 Structure from the checkpoint file:  "JID_6685.chk"
 Charge = -1 Multiplicity = 2

                         Standard orientation:
 ---------------------------------------------------------------------
 Center     Atomic      Atomic             Coordinates (Angstroms)
 Number     Number       Type             X           Y           Z
 ---------------------------------------------------------------------
      1          6           0        5.326365    0.059122   -0.677996
      2          6           0        4.597364   -0.797225    0.355361
      3          8           0        3.199769   -0.889504    0.132950
      4          6           0        2.478241    0.291879    0.433008
      5          6           0        0.980768   -0.013510    0.363208
      6          6           0        0.582680   -1.122418    1.340318
      7          7           0        0.260279    1.250486    0.592805
      8          6           0       -0.865548    1.557614   -0.311526
      9          6           0       -0.344203    2.010018   -1.675448
     10          6           0       -1.856948    0.403181   -0.417943
     11          7           0       -1.694791   -0.454190   -1.432785
     12          6           0       -2.498855   -1.522146   -1.476837
     13          6           0       -3.477174   -1.735356   -0.512675
     14          7           0       -3.660019   -0.882599    0.502966
     15          6           0       -2.854978    0.185110    0.562376
     16          6           0       -3.065182    1.119875    1.725492
     17          1           0        5.116180   -0.306565   -1.688596
     18          1           0        6.408843    0.014910   -0.510826
     19          1           0        5.022734    1.109684   -0.623429
     20          1           0        4.965884   -1.827802    0.313759
     21          1           0        4.790718   -0.414784    1.371898
     22          1           0        2.738431    0.655446    1.443283
     23          1           0        2.704213    1.100896   -0.275386
     24          1           0        0.763629   -0.354970   -0.653996
     25          1           0        0.735421   -0.791501    2.377234
     26          1           0       -0.470105   -1.397130    1.221005
     27          1           0        1.199109   -2.010935    1.180268
     28          1           0       -0.048025    1.295363    1.560337
     29          1           0       -1.380803    2.407154    0.149351
     30          1           0       -1.173105    2.304964   -2.327452
     31          1           0        0.327092    2.861953   -1.536625
     32          1           0        0.198092    1.207382   -2.180138
     33          1           0       -2.355580   -2.216325   -2.302155
     34          1           0       -4.131508   -2.603549   -0.552229
     35          1           0       -3.295389    2.139317    1.394369
     36          1           0       -3.895098    0.751021    2.330997
     37          1           0       -2.172339    1.178760    2.359803
 ---------------------------------------------------------------------

 SCF Done:  E(UB3LYP) =  -709.642541998     A.U. after   33 cycles
 SCF Done:  E(UB3LYP) =  -709.642541998     a.u. after    1 cycles

 The electronic state is 2-A.
 Alpha  occ. eigenvalues --  -19.02127 -14.18701 -14.15805 -14.15531 -10.11976
 Alpha  occ. eigenvalues --  -10.10394 -10.08839 -10.08521 -10.07564 -10.06582
 Alpha  occ. eigenvalues --  -10.06468 -10.06431 -10.06223 -10.05662 -10.04693
 Alpha  occ. eigenvalues --  -10.04442  -0.93499  -0.83290  -0.79791  -0.75685
 Alpha  occ. eigenvalues --   -0.68295  -0.66014  -0.64182  -0.61142  -0.58303
 Alpha  occ. eigenvalues --   -0.57906  -0.53497  -0.51156  -0.48782  -0.47854
 Alpha  occ. eigenvalues --   -0.45807  -0.39867  -0.39227  -0.38312  -0.37459
 Alpha  occ. eigenvalues --   -0.36320  -0.35313  -0.34178  -0.32819  -0.31723
 Alpha  occ. eigenvalues --   -0.31470  -0.31130  -0.30025  -0.28548  -0.28399
 Alpha  occ. eigenvalues --   -0.28216  -0.27180  -0.26700  -0.26353  -0.26051
 Alpha  occ. eigenvalues --   -0.24833  -0.24452  -0.22687  -0.22263  -0.21143
 Alpha  occ. eigenvalues --   -0.18690  -0.16014  -0.15689  -0.13553  -0.11734
 Alpha  occ. eigenvalues --   -0.09785   0.04611
 Alpha virt. eigenvalues --    0.05840   0.07578   0.08227   0.08745   0.09075
 Alpha virt. eigenvalues --    0.09383   0.09775   0.10455   0.11058   0.11213
 Alpha virt. eigenvalues --    0.11336   0.12006   0.12185   0.12773   0.13727

  Beta  occ. eigenvalues --  -19.02123 -14.18680 -14.15284 -14.14990 -10.11961
  Beta  occ. eigenvalues --  -10.10384 -10.08850 -10.08520 -10.07546 -10.06553
  Beta  occ. eigenvalues --  -10.06425 -10.06371 -10.06163 -10.05664 -10.04689
  Beta  occ. eigenvalues --  -10.04440  -0.93489  -0.82670  -0.79679  -0.74811
  Beta  occ. eigenvalues --   -0.68218  -0.65885  -0.64089  -0.61104  -0.58153
  Beta  occ. eigenvalues --   -0.57846  -0.53218  -0.51001  -0.48592  -0.47651
  Beta  occ. eigenvalues --   -0.45669  -0.39811  -0.39165  -0.38192  -0.37344
  Beta  occ. eigenvalues --   -0.36225  -0.35228  -0.34049  -0.32641  -0.31659
  Beta  occ. eigenvalues --   -0.31362  -0.31074  -0.29962  -0.28507  -0.28332
  Beta  occ. eigenvalues --   -0.28172  -0.26956  -0.26453  -0.26283  -0.25451
  Beta  occ. eigenvalues --   -0.24626  -0.24358  -0.22642  -0.22165  -0.21117
  Beta  occ. eigenvalues --   -0.16220  -0.15984  -0.15002  -0.13051  -0.11114
  Beta  occ. eigenvalues --   -0.09328
  Beta virt. eigenvalues --    0.06732   0.07568   0.08284   0.08780   0.09161
  Beta virt. eigenvalues --    0.09460   0.09863   0.10424   0.10633   0.11101
  Beta virt. eigenvalues --    0.11235   0.11402   0.11980   0.12201   0.12835

 Mulliken charges and spin densities:
               1          2
     1  C    0.596091  -0.997729
     2  C   -0.254244   0.131555
     3  O   -0.079195   0.022498
     4  C   -0.519629   0.246534
     5  C    0.217264  -0.550370
     6  C   -0.526338  -0.030225
     7  N    0.177467   0.042595
     8  C   -0.585853   0.114018
     9  C   -0.587238  -0.046038
    10  C    0.243912  -0.062002
    11  N   -0.010134   0.243504
    12  C    0.055180   0.044400
    13  C   -0.121750   0.076590
    14  N   -0.037437   0.229515
    15  C   -0.514907   0.077443
    16  C   -0.565319  -0.048815
    17  H    0.127650   0.006546
    18  H   -0.554193   0.701147
    19  H   -0.244083   0.378802
    20  H   -0.183916   0.339897
    21  H    0.044693   0.050271
    22  H    0.015006   0.084137
    23  H    0.316426  -0.151825
    24  H    0.236880  -0.045081
    25  H    0.119416  -0.000456
    26  H    0.179195   0.004182
    27  H    0.104053   0.033183
    28  H    0.219218   0.014839
    29  H    0.126432   0.029676
    30  H    0.132598   0.001484
    31  H    0.085979   0.041104
    32  H    0.161187   0.012383
    33  H    0.131710  -0.002027
    34  H    0.134706  -0.006992
    35  H    0.125141   0.010958
    36  H    0.150959  -0.001908
    37  H    0.083072   0.006207
 Sum of Mulliken charges =  -1.00000   1.00000

 Dipole moment (field-independent basis, Debye):
    X=             -2.4818    Y=              1.8102    Z=              1.2246  Tot=              3.3069
 Quadrupole moment (field-independent basis, Debye-Ang):
   XX=           -202.6060   YY=           -119.4540   ZZ=           -117.1036
   XY=             -5.4258   XZ=              1.4992   YZ=              1.3400

 Summary of Natural Population Analysis:

                                       Natural Population
                Natural  -----------------------------------------------
    Atom  No    Charge         Core      Valence    Rydberg      Total
 -----------------------------------------------------------------------
      C    1   -0.30165      0.99967     2.29708    0.00490     3.30165
      C    2   -0.00781      0.99960     1.99498    0.01323     3.00781
      O    3   -0.30345      0.99988     3.29472    0.00884     4.30345
      C    4   -0.00573      0.99955     1.99278    0.01341     3.00573
      C    5   -0.03447      0.99960     2.02198    0.01290     3.03447
      C    6   -0.29318      0.99965     2.28853    0.00500     3.29318
      N    7   -0.34158      0.99973     2.82966    0.01220     3.84158
      C    8   -0.02260      0.99957     2.00999    0.01304     3.02260
      C    9   -0.28523      0.99965     2.28023    0.00535     3.28523
      C   10    0.09390      0.99948     1.89243    0.01420     2.90610
      N   11   -0.16910      0.99967     2.65551    0.01392     3.66910
      C   12   -0.00257      0.99959     1.98968    0.01330     3.00257
      C   13    0.00508      0.99960     1.98150    0.01383     2.99492
      N   14   -0.16958      0.99968     2.65608    0.01382     3.66958
      C   15    0.08443      0.99951     1.90178    0.01428     2.91557
      C   16   -0.29895      0.99964     2.29399    0.00531     3.29895
      H   17    0.09919      0.00000     0.39989    0.00093     0.40081
      H   18    0.10149      0.00000     0.39656    0.00194     0.39851
      H   19    0.09771      0.00000     0.40110    0.00119     0.40229
      H   20    0.08632      0.00000     0.41241    0.00128     0.41368
      H   21    0.07497      0.00000     0.42366    0.00137     0.42503
      H   22    0.07326      0.00000     0.42521    0.00153     0.42674
      H   23    0.08363      0.00000     0.41463    0.00174     0.41637
      H   24    0.10685      0.00000     0.39068    0.00247     0.39315
      H   25    0.08790      0.00000     0.41118    0.00092     0.41210
      H   26    0.10835      0.00000     0.39052    0.00113     0.39165
      H   27    0.10602      0.00000     0.39294    0.00104     0.39398
      H   28    0.17292      0.00000     0.32485    0.00223     0.32708
      H   29    0.09218      0.00000     0.40583    0.00199     0.40782
      H   30    0.09851      0.00000     0.40077    0.00071     0.40149
      H   31    0.09503      0.00000     0.40387    0.00109     0.40497
      H   32    0.10578      0.00000     0.39317    0.00106     0.39422
      H   33    0.08246      0.00000     0.41629    0.00126     0.41754
      H   34    0.08092      0.00000     0.41757    0.00152     0.41908
      H   35    0.09711      0.00000     0.40159    0.00130     0.40289
      H   36    0.10770      0.00000     0.39110    0.00120     0.39230
      H   37    0.09421      0.00000     0.40430    0.00149     0.40579
 =======================================================================
   * Total *   -0.00000     15.99407    44.79902    0.20691    61.00000

 Normal termination of Gaussian 16 at Fri Dec 11 01:23:34 2020.
