 Gaussian 16, Revision A.03,

 -----------------------------------------------------------
 # opt freq B3LYP/6-31G(d) empiricaldispersion=gd3bj scf=xqc
 -----------------------------------------------------------

 ------------------------------
 CID_62214491_JID_4353_neutraal
 ------------------------------
 Symbolic Z-matrix:
 Charge =  0 Multiplicity = 1

 SCF Done:  E(RB3LYP) =  -653.326890969     A.U. after   15 cycles
 SCF Done:  E(RB3LYP) =  -653.330898322     A.U. after   12 cycles
 SCF Done:  E(RB3LYP) =  -653.330702337     A.U. after   13 cycles
 SCF Done:  E(RB3LYP) =  -653.331810071     A.U. after   12 cycles
 SCF Done:  E(RB3LYP) =  -653.332226732     A.U. after   11 cycles
 SCF Done:  E(RB3LYP) =  -653.332605875     A.U. after   13 cycles
 SCF Done:  E(RB3LYP) =  -653.332750105     A.U. after   12 cycles
 SCF Done:  E(RB3LYP) =  -653.332835618     A.U. after   12 cycles
 SCF Done:  E(RB3LYP) =  -653.332852064     A.U. after   10 cycles
 SCF Done:  E(RB3LYP) =  -653.332855711     A.U. after    9 cycles
 SCF Done:  E(RB3LYP) =  -653.332890785     A.U. after    9 cycles
 SCF Done:  E(RB3LYP) =  -653.332891116     A.U. after    9 cycles
 SCF Done:  E(RB3LYP) =  -653.332891204     A.U. after    8 cycles
 SCF Done:  E(RB3LYP) =  -653.332891212     A.U. after    6 cycles
 Optimization completed.
    -- Stationary point found.
 Normal termination of Gaussian 16 at Thu Dec 10 09:37:41 2020.

 --------------------------------------------------------------------
 #N Geom=AllCheck Guess=TCheck SCRF=Check GenChk RB3LYP/6-31G(d) Freq
 --------------------------------------------------------------------

 Structure from the checkpoint file:  "JID_4353.chk"
 ------------------------------
 CID_62214491_JID_4353_neutraal
 ------------------------------
 Charge =  0 Multiplicity = 1

 SCF Done:  E(RB3LYP) =  -653.332891212     A.U. after    1 cycles

  Exact polarizability: 141.508   2.674 138.782  10.589  -8.912  83.039
 Approx polarizability: 195.485  11.640 216.244  22.011 -21.428 127.737

                      1                      2                      3
                      A                      A                      A
 Frequencies --     16.0374                22.7518                26.3408
 Red. masses --      3.4647                 1.0787                 1.0277
 Frc consts  --      0.0005                 0.0003                 0.0004
 IR Inten    --      0.3363                 0.5282                 0.1456

                      4                      5                      6
                      A                      A                      A
 Frequencies --     56.1092                64.1695               125.5676
 Red. masses --      5.3025                 3.8763                 1.1915
 Frc consts  --      0.0098                 0.0094                 0.0111
 IR Inten    --      0.6185                 0.5508                 0.0839

                      7                      8                      9
                      A                      A                      A
 Frequencies --    149.9844               174.5034               197.6755
 Red. masses --      3.1215                 4.7734                 3.5178
 Frc consts  --      0.0414                 0.0856                 0.0810
 IR Inten    --      3.2826                 2.1612                 4.7613

                     10                     11                     12
                      A                      A                      A
 Frequencies --    216.3101               226.3662               251.5724
 Red. masses --      3.7480                 3.0399                 3.3197
 Frc consts  --      0.1033                 0.0918                 0.1238
 IR Inten    --      0.6028                 0.0212                 2.2975

                     13                     14                     15
                      A                      A                      A
 Frequencies --    281.1896               338.5165               366.3186
 Red. masses --      3.3425                 5.7578                 5.9000
 Frc consts  --      0.1557                 0.3887                 0.4665
 IR Inten    --      0.9003                11.3713                30.2347

                     16                     17                     18
                      A                      A                      A
 Frequencies --    423.5192               440.9553               478.3164
 Red. masses --      1.2389                 2.6631                 3.8828
 Frc consts  --      0.1309                 0.3051                 0.5234
 IR Inten    --     58.4265                 5.0717                18.2112

                     19                     20                     21
                      A                      A                      A
 Frequencies --    521.2007               529.0754               549.1473
 Red. masses --      4.3198                 3.4726                 4.7975
 Frc consts  --      0.6914                 0.5727                 0.8524
 IR Inten    --      0.3764                 1.6847                 5.7491

                     22                     23                     24
                      A                      A                      A
 Frequencies --    559.7488               640.8149               706.8693
 Red. masses --      4.3474                 6.2158                 2.7783
 Frc consts  --      0.8025                 1.5039                 0.8179
 IR Inten    --      5.2796                13.7063                 3.9615

                     25                     26                     27
                      A                      A                      A
 Frequencies --    718.5131               810.6359               871.0841
 Red. masses --      4.3774                 3.5557                 1.5929
 Frc consts  --      1.3315                 1.3767                 0.7121
 IR Inten    --     19.4895                11.8248                 8.3037

                     28                     29                     30
                      A                      A                      A
 Frequencies --    899.4473               906.3542               936.5968
 Red. masses --      1.3287                 1.7576                 2.4637
 Frc consts  --      0.6333                 0.8507                 1.2733
 IR Inten    --      0.7486                 1.3324                 6.4739

                     31                     32                     33
                      A                      A                      A
 Frequencies --    957.2657               975.6297              1018.8724
 Red. masses --      3.3261                 3.0163                 5.1061
 Frc consts  --      1.7958                 1.6916                 3.1231
 IR Inten    --      5.4060                 5.0855                26.3863

                     34                     35                     36
                      A                      A                      A
 Frequencies --   1020.5936              1046.4141              1049.2524
 Red. masses --      5.1243                 1.8476                 1.5710
 Frc consts  --      3.1448                 1.1919                 1.0190
 IR Inten    --      0.5959                 1.8540                 1.2382

                     37                     38                     39
                      A                      A                      A
 Frequencies --   1075.2384              1075.8557              1136.5001
 Red. masses --      1.5210                 1.5098                 3.5511
 Frc consts  --      1.0361                 1.0296                 2.7025
 IR Inten    --      6.6515                 2.1033               109.0954

                     40                     41                     42
                      A                      A                      A
 Frequencies --   1179.5134              1185.2390              1205.4615
 Red. masses --      1.5138                 1.2735                 1.4171
 Frc consts  --      1.2409                 1.0541                 1.2133
 IR Inten    --     35.6604                 1.8544                 0.1220

                     43                     44                     45
                      A                      A                      A
 Frequencies --   1218.4047              1248.3688              1298.2183
 Red. masses --      1.4830                 1.6813                 2.2372
 Frc consts  --      1.2971                 1.5438                 2.2216
 IR Inten    --     10.3084                81.3905                57.6425

                     46                     47                     48
                      A                      A                      A
 Frequencies --   1310.6528              1332.4848              1354.4968
 Red. masses --      2.4348                 2.0290                 1.5777
 Frc consts  --      2.4642                 2.1225                 1.7054
 IR Inten    --    277.3098                30.6660                 7.8771

                     49                     50                     51
                      A                      A                      A
 Frequencies --   1372.3656              1440.8928              1443.6007
 Red. masses --      4.0907                 1.2344                 1.2786
 Frc consts  --      4.5393                 1.5100                 1.5699
 IR Inten    --      1.1531                 0.0651                 0.1972

                     52                     53                     54
                      A                      A                      A
 Frequencies --   1457.5158              1479.9745              1493.6804
 Red. masses --      1.3372                 2.1423                 1.3853
 Frc consts  --      1.6737                 2.7647                 1.8210
 IR Inten    --     50.1373                 0.2514                10.4938

                     55                     56                     57
                      A                      A                      A
 Frequencies --   1501.0568              1513.6079              1515.2927
 Red. masses --      1.8606                 1.0477                 1.0497
 Frc consts  --      2.4700                 1.4142                 1.4201
 IR Inten    --     10.9780                 6.3920                 8.8225

                     58                     59                     60
                      A                      A                      A
 Frequencies --   1516.1186              1522.7785              1531.6176
 Red. masses --      1.0458                 1.0467                 1.2371
 Frc consts  --      1.4163                 1.4300                 1.7098
 IR Inten    --      2.2122                 7.8360                13.7831

                     61                     62                     63
                      A                      A                      A
 Frequencies --   1538.2589              1661.5676              1668.1176
 Red. masses --      1.3060                 5.4879                 5.7792
 Frc consts  --      1.8207                 8.9267                 9.4748
 IR Inten    --     18.5844                16.0936                20.3628

                     64                     65                     66
                      A                      A                      A
 Frequencies --   1809.2963              3043.1693              3044.5813
 Red. masses --     10.5708                 1.0378                 1.0375
 Frc consts  --     20.3882                 5.6624                 5.6660
 IR Inten    --    199.4315                37.1851                28.1398

                     67                     68                     69
                      A                      A                      A
 Frequencies --   3046.8222              3081.9168              3095.8071
 Red. masses --      1.0843                 1.0293                 1.1001
 Frc consts  --      5.9303                 5.7602                 6.2120
 IR Inten    --     20.5728                27.3874                19.5073

                     70                     71                     72
                      A                      A                      A
 Frequencies --   3097.8575              3125.2890              3125.4855
 Red. masses --      1.1003                 1.1013                 1.1014
 Frc consts  --      6.2212                 6.3377                 6.3394
 IR Inten    --     21.1653                 9.8524                24.7660

                     73                     74                     75
                      A                      A                      A
 Frequencies --   3159.9990              3168.2455              3185.3501
 Red. masses --      1.1081                 1.0898                 1.0899
 Frc consts  --      6.5192                 6.4450                 6.5153
 IR Inten    --     17.9051                23.3241                10.9795

                     76                     77                     78
                      A                      A                      A
 Frequencies --   3192.1797              3210.3223              3638.9588
 Red. masses --      1.1075                 1.0895                 1.0649
 Frc consts  --      6.6494                 6.6157                 8.3086
 IR Inten    --     12.5287                 3.6256                86.1561

 - Thermochemistry -
 -------------------
 Temperature   298.150 Kelvin.  Pressure   1.00000 Atm.
 Atom     1 has atomic number  6 and mass  12.00000

 Molecular mass:   194.09429 amu.
 Principal axes and moments of inertia in atomic units:
                           1         2         3
     Eigenvalues --  1902.718043871.570524946.49483
           X            0.99984  -0.01799   0.00132
           Y            0.01801   0.99970  -0.01667
           Z           -0.00102   0.01669   0.99986
 This molecule is an asymmetric top.
 Rotational symmetry number  1.
 Warning -- assumption of classical behavior for rotation
           may cause significant error
 Rotational temperatures (Kelvin)      0.04552     0.02237     0.01751
 Rotational constants (GHZ):           0.94851     0.46615     0.36485
 Zero-point vibrational energy     609353.1 (Joules/Mol)
                                  145.63888 (Kcal/Mol)
 Warning -- explicit consideration of  22 degrees of freedom as
           vibrations may cause significant error
 Vibrational temperatures:     23.07    32.73    37.90    80.73    92.33
          (Kelvin)            180.66   215.79   251.07   284.41   311.22
                              325.69   361.96   404.57   487.05   527.05
                              609.35   634.44   688.19   749.89   761.22
                              790.10   805.35   921.99  1017.03  1033.78
                             1166.32  1253.30  1294.10  1304.04  1347.55
                             1377.29  1403.71  1465.93  1468.41  1505.56
                             1509.64  1547.03  1547.92  1635.17  1697.06
                             1705.29  1734.39  1753.01  1796.12  1867.85
                             1885.74  1917.15  1948.82  1974.53  2073.12
                             2077.02  2097.04  2129.35  2149.07  2159.69
                             2177.74  2180.17  2181.36  2190.94  2203.66
                             2213.21  2390.63  2400.05  2603.17  4378.44
                             4380.47  4383.70  4434.19  4454.18  4457.13
                             4496.59  4496.88  4546.53  4558.40  4583.01
                             4592.83  4618.94  5235.65

 Zero-point correction=                           0.232090 (Hartree/Particle)
 Thermal correction to Energy=                    0.247153
 Thermal correction to Enthalpy=                  0.248097
 Thermal correction to Gibbs Free Energy=         0.186607
 Sum of electronic and zero-point Energies=           -653.100801
 Sum of electronic and thermal Energies=              -653.085739
 Sum of electronic and thermal Enthalpies=            -653.084794
 Sum of electronic and thermal Free Energies=         -653.146284

                     E (Thermal)             CV                S
                      KCal/Mol        Cal/Mol-Kelvin    Cal/Mol-Kelvin
 Total                  155.091             53.304            129.416
 Electronic               0.000              0.000              0.000
 Translational            0.889              2.981             41.695
 Rotational               0.889              2.981             31.966
 Vibrational            153.313             47.343             55.755
 Vibration     1          0.593              1.986              7.073
 Vibration     2          0.593              1.985              6.378
 Vibration     3          0.593              1.985              6.088
 Vibration     4          0.596              1.975              4.590
 Vibration     5          0.597              1.971              4.325
 Vibration     6          0.611              1.928              3.013
 Vibration     7          0.618              1.903              2.672
 Vibration     8          0.627              1.874              2.386
 Vibration     9          0.637              1.843              2.155
 Vibration    10          0.645              1.816              1.990
 Vibration    11          0.650              1.801              1.908
 Vibration    12          0.664              1.760              1.720
 Vibration    13          0.681              1.708              1.526
 Vibration    14          0.719              1.599              1.219
 Vibration    15          0.739              1.542              1.095
 Vibration    16          0.786              1.419              0.880
 Vibration    17          0.801              1.381              0.824
 Vibration    18          0.835              1.298              0.715
 Vibration    19          0.876              1.203              0.607
 Vibration    20          0.884              1.186              0.589
 Vibration    21          0.904              1.142              0.546
 Vibration    22          0.915              1.118              0.524

                           ! Non-Optimized Parameters !
 Normal termination of Gaussian 16 at Thu Dec 10 09:45:40 2020.

 ----------------------------------------------------------------------
 # B3LYP/6-311++G(d,p) empiricaldispersion=gd3bj scf=xqc pop=npa geom=c
 heck
 ----------------------------------------------------------------------

 --------------------------------------
 CID_62214491_JID_4353_Energie_neutraal
 --------------------------------------
 Structure from the checkpoint file:  "JID_4353.chk"
 Charge =  0 Multiplicity = 1

 SCF Done:  E(RB3LYP) =  -653.524347380     A.U. after   15 cycles
 Normal termination of Gaussian 16 at Thu Dec 10 09:49:27 2020.

 ----------------------------------------------------------------------
 # B3LYP/6-311++G(d,p) empiricaldispersion=gd3bj scf=xqc pop=npa geom=c
 heck
 ----------------------------------------------------------------------

 ------------------------------------
 CID_62214491_JID_4353_Energie_kation
 ------------------------------------
 Structure from the checkpoint file:  "JID_4353.chk"
 Charge =  1 Multiplicity = 2

 SCF Done:  E(UB3LYP) =  -653.212611353     A.U. after   33 cycles
 SCF Done:  E(UB3LYP) =  -653.213056900     a.u. after   13 cycles
 Normal termination of Gaussian 16 at Thu Dec 10 11:53:15 2020.
 Gaussian 16:  ES64L-G16RevA.03 25-Dec-2016

 ----------------------------------------------------------------------
 # B3LYP/6-311++G(d,p) empiricaldispersion=gd3bj scf=xqc pop=npa geom=c
 heck
 ----------------------------------------------------------------------

 -----------------------------------
 CID_62214491_JID_4353_Energie_anion
 -----------------------------------
 Structure from the checkpoint file:  "JID_4353.chk"
 Charge = -1 Multiplicity = 2

                         Standard orientation:
 ---------------------------------------------------------------------
 Center     Atomic      Atomic             Coordinates (Angstroms)
 Number     Number       Type             X           Y           Z
 ---------------------------------------------------------------------
      1          6           0       -2.426642   -2.778501    0.392053
      2          6           0       -1.906095   -1.367888    0.255448
      3          6           0       -2.705005   -0.368793   -0.319118
      4          6           0       -2.257924    0.947340   -0.439492
      5          6           0       -0.972720    1.265323    0.021017
      6          6           0       -0.162561    0.288840    0.591200
      7          6           0       -0.632298   -1.024219    0.706866
      8          6           0        1.249182    0.644213    1.053656
      9          6           0        2.247143    0.222646   -0.027279
     10          8           0        2.832710    1.031102   -0.721345
     11          8           0        2.379934   -1.102938   -0.127982
     12          6           0        3.243043   -1.562003   -1.185457
     13          8           0        1.420700    2.019196    1.301431
     14          6           0       -3.136139    2.017739   -1.041375
     15          1           0       -3.248189   -2.831351    1.117700
     16          1           0       -2.815757   -3.155039   -0.561347
     17          1           0       -1.641686   -3.462369    0.729428
     18          1           0       -3.700864   -0.626023   -0.675223
     19          1           0       -0.603345    2.283810   -0.042274
     20          1           0        0.005689   -1.786219    1.147229
     21          1           0        1.479650    0.080682    1.967284
     22          1           0        2.859403   -1.233512   -2.154321
     23          1           0        4.253919   -1.171677   -1.046364
     24          1           0        3.234377   -2.649221   -1.115397
     25          1           0        1.965859    2.351612    0.562769
     26          1           0       -4.052990    1.593260   -1.461976
     27          1           0       -3.426931    2.761059   -0.288481
     28          1           0       -2.615782    2.557935   -1.840973
 ---------------------------------------------------------------------

 SCF Done:  E(UB3LYP) =  -653.511375706     A.U. after   33 cycles
 SCF Done:  E(UB3LYP) =  -653.511375706     a.u. after    1 cycles

 The electronic state is 2-A.
 Alpha  occ. eigenvalues --  -19.08202 -19.03265 -19.02967 -10.21125 -10.14672
 Alpha  occ. eigenvalues --  -10.12739 -10.08427 -10.08418 -10.08344 -10.07558
 Alpha  occ. eigenvalues --  -10.06822 -10.06819 -10.06771 -10.06760  -1.02547
 Alpha  occ. eigenvalues --   -0.95196  -0.92688  -0.76525  -0.69281  -0.68485
 Alpha  occ. eigenvalues --   -0.64909  -0.60267  -0.58584  -0.58387  -0.49751
 Alpha  occ. eigenvalues --   -0.47846  -0.47576  -0.45351  -0.41072  -0.40654
 Alpha  occ. eigenvalues --   -0.39233  -0.38161  -0.36250  -0.34908  -0.33996
 Alpha  occ. eigenvalues --   -0.33050  -0.32166  -0.31889  -0.30774  -0.30265
 Alpha  occ. eigenvalues --   -0.29913  -0.27861  -0.27763  -0.26294  -0.25077
 Alpha  occ. eigenvalues --   -0.24614  -0.24175  -0.22399  -0.20732  -0.19253
 Alpha  occ. eigenvalues --   -0.14490  -0.14270   0.04371
 Alpha virt. eigenvalues --    0.06268   0.06742   0.07204   0.08051   0.08532
 Alpha virt. eigenvalues --    0.09065   0.09208   0.09578   0.10203   0.10743
 Alpha virt. eigenvalues --    0.10913   0.11487   0.11794   0.12253   0.13046

  Beta  occ. eigenvalues --  -19.08193 -19.03261 -19.02924 -10.21072 -10.14673
  Beta  occ. eigenvalues --  -10.12682 -10.08414 -10.08398 -10.08351 -10.07540
  Beta  occ. eigenvalues --  -10.06814 -10.06791 -10.06739 -10.06734  -1.02490
  Beta  occ. eigenvalues --   -0.95171  -0.92645  -0.76490  -0.69223  -0.68453
  Beta  occ. eigenvalues --   -0.64833  -0.60216  -0.58531  -0.58330  -0.49661
  Beta  occ. eigenvalues --   -0.47801  -0.47522  -0.45319  -0.41004  -0.40584
  Beta  occ. eigenvalues --   -0.39147  -0.38120  -0.36198  -0.34863  -0.33947
  Beta  occ. eigenvalues --   -0.33010  -0.32122  -0.31860  -0.30744  -0.30201
  Beta  occ. eigenvalues --   -0.29807  -0.27814  -0.27726  -0.26235  -0.25038
  Beta  occ. eigenvalues --   -0.24566  -0.24145  -0.22289  -0.20686  -0.19229
  Beta  occ. eigenvalues --   -0.14370  -0.14194
  Beta virt. eigenvalues --    0.06441   0.07055   0.07363   0.07692   0.08308
  Beta virt. eigenvalues --    0.08795   0.09449   0.09618   0.09899   0.10588
  Beta virt. eigenvalues --    0.11223   0.11322   0.11758   0.12149   0.12593

 Mulliken charges and spin densities:
               1          2
     1  C    1.751600  -2.278289
     2  C   -0.441612   0.579558
     3  C   -0.408289   0.065624
     4  C   -0.864661   1.083261
     5  C   -0.576372   0.300184
     6  C    1.078165  -0.133229
     7  C   -0.396249  -0.224847
     8  C    0.084323  -0.610093
     9  C   -0.288167   0.239970
    10  O   -0.287419   0.026873
    11  O   -0.134529   0.099570
    12  C    1.240758  -1.470855
    13  O   -0.198436  -0.000957
    14  C    0.542932  -1.166634
    15  H   -0.013713   0.167089
    16  H   -0.262138   0.413380
    17  H   -0.363621   0.514854
    18  H   -0.148510   0.273800
    19  H    0.176691  -0.004770
    20  H    0.002741   0.182678
    21  H   -0.207456   0.451369
    22  H   -0.314227   0.500496
    23  H   -0.297561   0.466692
    24  H   -0.620448   0.783248
    25  H    0.192325   0.041667
    26  H   -0.282473   0.434352
    27  H    0.060795   0.090996
    28  H   -0.024450   0.174013
 Sum of Mulliken charges =  -1.00000   1.00000

 Dipole moment (field-independent basis, Debye):
    X=             -1.6365    Y=              4.8402    Z=              1.7532  Tot=              5.4018
 Quadrupole moment (field-independent basis, Debye-Ang):
   XX=           -148.6952   YY=           -135.4998   ZZ=           -118.7444
   XY=              5.7030   XZ=              1.1571   YZ=             -4.4195

 Summary of Natural Population Analysis:

                                       Natural Population
                Natural  -----------------------------------------------
    Atom  No    Charge         Core      Valence    Rydberg      Total
 -----------------------------------------------------------------------
      C    1   -0.29039      0.99964     2.28565    0.00511     3.29039
      C    2   -0.01137      0.99952     2.00137    0.01048     3.01137
      C    3   -0.09971      0.99947     2.09085    0.00939     3.09971
      C    4   -0.01157      0.99952     2.00167    0.01038     3.01157
      C    5   -0.10346      0.99945     2.09539    0.00862     3.10346
      C    6   -0.01872      0.99948     2.00738    0.01186     3.01872
      C    7   -0.09978      0.99946     2.09057    0.00975     3.09978
      C    8    0.02245      0.99949     1.96235    0.01570     2.97755
      C    9    0.41223      0.99968     1.56248    0.02562     2.58777
      O   10   -0.31453      0.99987     3.30868    0.00598     4.31453
      O   11   -0.27013      0.99986     3.26050    0.00977     4.27013
      C   12   -0.10324      0.99959     2.09462    0.00903     3.10324
      O   13   -0.36926      0.99990     3.36298    0.00639     4.36926
      C   14   -0.29023      0.99964     2.28580    0.00480     3.29023
      H   15    0.10175      0.00000     0.39708    0.00117     0.39825
      H   16    0.10480      0.00000     0.39376    0.00144     0.39520
      H   17    0.10436      0.00000     0.39432    0.00133     0.39564
      H   18    0.09694      0.00000     0.40202    0.00104     0.40306
      H   19    0.10521      0.00000     0.39354    0.00125     0.39479
      H   20    0.10462      0.00000     0.39365    0.00174     0.39538
      H   21    0.10098      0.00000     0.39647    0.00255     0.39902
      H   22    0.09390      0.00000     0.40456    0.00153     0.40610
      H   23    0.09147      0.00000     0.40716    0.00137     0.40853
      H   24    0.09799      0.00000     0.39916    0.00285     0.40201
      H   25    0.23893      0.00000     0.25779    0.00327     0.26107
      H   26    0.10181      0.00000     0.39717    0.00102     0.39819
      H   27    0.10172      0.00000     0.39723    0.00104     0.39828
      H   28    0.10324      0.00000     0.39566    0.00110     0.39676
 =======================================================================
   * Total *   -0.00000     13.99455    37.83986    0.16559    52.00000

 Normal termination of Gaussian 16 at Thu Dec 10 12:04:19 2020.
