 Gaussian 16, Revision A.03,

 -----------------------------------------------------------
 # opt freq B3LYP/6-31G(d) empiricaldispersion=gd3bj scf=xqc
 -----------------------------------------------------------

 -------------------------------
 CID_144486851_JID_3676_neutraal
 -------------------------------
 Symbolic Z-matrix:
 Charge =  0 Multiplicity = 1

 SCF Done:  E(RB3LYP) =  -506.184143974     A.U. after   14 cycles
 SCF Done:  E(RB3LYP) =  -506.189578493     A.U. after   12 cycles
 SCF Done:  E(RB3LYP) =  -506.190294326     A.U. after   12 cycles
 SCF Done:  E(RB3LYP) =  -506.190476345     A.U. after   11 cycles
 SCF Done:  E(RB3LYP) =  -506.191130394     A.U. after   12 cycles
 SCF Done:  E(RB3LYP) =  -506.191522095     A.U. after   12 cycles
 SCF Done:  E(RB3LYP) =  -506.192278033     A.U. after   12 cycles
 SCF Done:  E(RB3LYP) =  -506.192617412     A.U. after   11 cycles
 SCF Done:  E(RB3LYP) =  -506.192763848     A.U. after   11 cycles
 SCF Done:  E(RB3LYP) =  -506.192857270     A.U. after   11 cycles
 SCF Done:  E(RB3LYP) =  -506.192992980     A.U. after    9 cycles
 SCF Done:  E(RB3LYP) =  -506.192993288     A.U. after    9 cycles
 SCF Done:  E(RB3LYP) =  -506.192993945     A.U. after    8 cycles
 SCF Done:  E(RB3LYP) =  -506.192993891     A.U. after    8 cycles
 SCF Done:  E(RB3LYP) =  -506.192994012     A.U. after    7 cycles
 Optimization completed.
    -- Stationary point found.
 Normal termination of Gaussian 16 at Sun Dec 13 20:05:04 2020.

 --------------------------------------------------------------------
 #N Geom=AllCheck Guess=TCheck SCRF=Check GenChk RB3LYP/6-31G(d) Freq
 --------------------------------------------------------------------

 Structure from the checkpoint file:  "JID_3676.chk"
 -------------------------------
 CID_144486851_JID_3676_neutraal
 -------------------------------
 Charge =  0 Multiplicity = 1

 SCF Done:  E(RB3LYP) =  -506.192994012     A.U. after    1 cycles

  Exact polarizability: 205.004  -3.263 144.316  13.922  11.121  99.880
 Approx polarizability: 279.038  -2.827 232.466  32.726  26.219 154.230

                      1                      2                      3
                      A                      A                      A
 Frequencies --     29.3082                37.6011                63.4851
 Red. masses --      3.7005                 3.8116                 3.1412
 Frc consts  --      0.0019                 0.0032                 0.0075
 IR Inten    --      0.0020                 0.0680                 0.0403

                      4                      5                      6
                      A                      A                      A
 Frequencies --    101.5700               133.7019               149.7040
 Red. masses --      2.5085                 1.8457                 1.3438
 Frc consts  --      0.0152                 0.0194                 0.0177
 IR Inten    --      0.1897                 0.2541                 0.7304

                      7                      8                      9
                      A                      A                      A
 Frequencies --    158.6865               179.3733               187.7641
 Red. masses --      2.1488                 1.1536                 1.8568
 Frc consts  --      0.0319                 0.0219                 0.0386
 IR Inten    --      0.5428                 2.0197                 0.1926

                     10                     11                     12
                      A                      A                      A
 Frequencies --    196.0590               217.5590               231.9634
 Red. masses --      1.9204                 2.0719                 2.3074
 Frc consts  --      0.0435                 0.0578                 0.0731
 IR Inten    --      0.2437                 1.6718                 0.0791

                     13                     14                     15
                      A                      A                      A
 Frequencies --    253.1858               262.3372               313.6268
 Red. masses --      2.5871                 2.4275                 2.9556
 Frc consts  --      0.0977                 0.0984                 0.1713
 IR Inten    --      0.4164                 0.0058                 1.6443

                     16                     17                     18
                      A                      A                      A
 Frequencies --    364.9313               403.8048               412.3015
 Red. masses --      2.8874                 3.1699                 3.6882
 Frc consts  --      0.2266                 0.3045                 0.3694
 IR Inten    --      2.3047                 1.6841                 0.0919

                     19                     20                     21
                      A                      A                      A
 Frequencies --    455.1951               464.4597               529.0138
 Red. masses --      3.1074                 2.8881                 2.6812
 Frc consts  --      0.3794                 0.3671                 0.4421
 IR Inten    --      0.3643                 1.3848                 2.4421

                     22                     23                     24
                      A                      A                      A
 Frequencies --    588.3547               635.9297               707.3810
 Red. masses --      2.2851                 1.8106                 2.0907
 Frc consts  --      0.4660                 0.4314                 0.6164
 IR Inten    --     12.7003                 2.0947                11.9396

                     25                     26                     27
                      A                      A                      A
 Frequencies --    750.0865               782.8168               821.7925
 Red. masses --      2.1737                 2.1319                 1.8613
 Frc consts  --      0.7206                 0.7697                 0.7406
 IR Inten    --     13.1953                22.9937                 4.7422

                     28                     29                     30
                      A                      A                      A
 Frequencies --    832.1105               851.4979               892.1089
 Red. masses --      1.9093                 1.2797                 1.4702
 Frc consts  --      0.7789                 0.5467                 0.6894
 IR Inten    --      4.2212                25.1029                 0.0369

                     31                     32                     33
                      A                      A                      A
 Frequencies --    914.3757               925.7924               946.1946
 Red. masses --      2.8018                 1.3703                 1.7734
 Frc consts  --      1.3802                 0.6920                 0.9354
 IR Inten    --     20.8737                38.1118                 0.8692

                     34                     35                     36
                      A                      A                      A
 Frequencies --    956.2287               994.6609              1004.7025
 Red. masses --      2.2595                 1.3325                 1.2522
 Frc consts  --      1.2173                 0.7767                 0.7447
 IR Inten    --     22.7582                 3.3287                 2.7810

                     37                     38                     39
                      A                      A                      A
 Frequencies --   1019.5333              1036.8105              1058.4051
 Red. masses --      1.4489                 1.5298                 1.1134
 Frc consts  --      0.8874                 0.9689                 0.7348
 IR Inten    --      7.9286                 0.4148                11.6356

                     40                     41                     42
                      A                      A                      A
 Frequencies --   1073.2390              1075.4886              1078.8715
 Red. masses --      1.5043                 1.5080                 1.5013
 Frc consts  --      1.0209                 1.0277                 1.0295
 IR Inten    --      6.5590                 0.0718                 0.6480

                     43                     44                     45
                      A                      A                      A
 Frequencies --   1119.9539              1128.5818              1160.6218
 Red. masses --      2.2412                 2.4197                 2.3226
 Frc consts  --      1.6562                 1.8158                 1.8433
 IR Inten    --      1.6110                 1.5605                 5.3125

                     46                     47                     48
                      A                      A                      A
 Frequencies --   1169.6088              1266.2703              1276.7097
 Red. masses --      1.7124                 2.6570                 1.1754
 Frc consts  --      1.3802                 2.5101                 1.1288
 IR Inten    --      1.3366                 0.1446                 2.4200

                     49                     50                     51
                      A                      A                      A
 Frequencies --   1280.0356              1329.0996              1371.6183
 Red. masses --      1.2458                 1.3114                 1.2356
 Frc consts  --      1.2026                 1.3649                 1.3696
 IR Inten    --      0.9218                 2.0628                16.1274

                     52                     53                     54
                      A                      A                      A
 Frequencies --   1386.0230              1421.3228              1430.2341
 Red. masses --      1.3213                 1.3616                 1.2779
 Frc consts  --      1.4955                 1.6206                 1.5401
 IR Inten    --      0.0936                 0.8173                 0.8123

                     55                     56                     57
                      A                      A                      A
 Frequencies --   1437.3867              1443.8935              1465.3696
 Red. masses --      1.2511                 1.3142                 1.5944
 Frc consts  --      1.5230                 1.6143                 2.0172
 IR Inten    --      3.4617                 0.6123                 5.8396

                     58                     59                     60
                      A                      A                      A
 Frequencies --   1495.3396              1509.3776              1511.6161
 Red. masses --      1.4342                 1.0585                 1.0665
 Frc consts  --      1.8894                 1.4208                 1.4358
 IR Inten    --      2.3210                12.9526                 3.9226

                     61                     62                     63
                      A                      A                      A
 Frequencies --   1513.0902              1514.8485              1518.9756
 Red. masses --      1.0779                 1.0520                 1.0523
 Frc consts  --      1.4539                 1.4223                 1.4305
 IR Inten    --      6.1826                 7.6427                 8.8071

                     64                     65                     66
                      A                      A                      A
 Frequencies --   1523.3509              1671.0503              1688.0012
 Red. masses --      1.0585                 5.1041                 5.8483
 Frc consts  --      1.4473                 8.3975                 9.8181
 IR Inten    --      1.1676                 2.8837                 4.8398

                     67                     68                     69
                      A                      A                      A
 Frequencies --   1696.7868              1722.9156              1732.2566
 Red. masses --      6.4952                 4.9794                 6.5260
 Frc consts  --     11.0179                 8.7087                11.5377
 IR Inten    --      0.1322                 1.6706                 4.0055

                     70                     71                     72
                      A                      A                      A
 Frequencies --   3027.0665              3029.6492              3034.2058
 Red. masses --      1.0444                 1.0439                 1.0410
 Frc consts  --      5.6383                 5.6455                 5.6467
 IR Inten    --     41.6576                34.9848                36.6431

                     73                     74                     75
                      A                      A                      A
 Frequencies --   3072.9657              3073.7786              3080.3793
 Red. masses --      1.0950                 1.0962                 1.0980
 Frc consts  --      6.0922                 6.1024                 6.1383
 IR Inten    --     25.6900                28.8798                21.6570

                     76                     77                     78
                      A                      A                      A
 Frequencies --   3129.6661              3139.4946              3140.6073
 Red. masses --      1.0850                 1.0843                 1.0942
 Frc consts  --      6.2613                 6.2968                 6.3591
 IR Inten    --      3.0084                 1.5182                10.2995

                     79                     80                     81
                      A                      A                      A
 Frequencies --   3142.2938              3148.0330              3158.6358
 Red. masses --      1.0954                 1.0952                 1.0934
 Frc consts  --      6.3724                 6.3945                 6.4271
 IR Inten    --      5.2863                 4.6975                36.3487

                     82                     83                     84
                      A                      A                      A
 Frequencies --   3159.2128              3162.7084              3173.3768
 Red. masses --      1.0745                 1.0787                 1.0879
 Frc consts  --      6.3187                 6.3573                 6.4550
 IR Inten    --     15.8494                24.7094                26.1159

                     85                     86                     87
                      A                      A                      A
 Frequencies --   3176.3799              3183.9282              3245.1867
 Red. masses --      1.0878                 1.0909                 1.1152
 Frc consts  --      6.4665                 6.5155                 6.9197
 IR Inten    --     26.2495                 6.0473                16.2846

 - Thermochemistry -
 -------------------
 Temperature   298.150 Kelvin.  Pressure   1.00000 Atm.
 Atom     1 has atomic number  6 and mass  12.00000

 Molecular mass:   174.14085 amu.
 Principal axes and moments of inertia in atomic units:
                           1         2         3
     Eigenvalues --  1356.102334256.154395047.34750
           X            0.99994   0.01013   0.00435
           Y           -0.01017   0.99991   0.00831
           Z           -0.00426  -0.00836   0.99996
 This molecule is an asymmetric top.
 Rotational symmetry number  1.
 Warning -- assumption of classical behavior for rotation
           may cause significant error
 Rotational temperatures (Kelvin)      0.06387     0.02035     0.01716
 Rotational constants (GHZ):           1.33083     0.42403     0.35756
 Zero-point vibrational energy     712698.7 (Joules/Mol)
                                  170.33908 (Kcal/Mol)
 Warning -- explicit consideration of  22 degrees of freedom as
           vibrations may cause significant error
 Vibrational temperatures:     42.17    54.10    91.34   146.14   192.37
          (Kelvin)            215.39   228.31   258.08   270.15   282.09
                              313.02   333.74   364.28   377.44   451.24
                              525.05   580.99   593.21   654.92   668.25
                              761.13   846.51   914.96  1017.76  1079.21
                             1126.30  1182.38  1197.22  1225.12  1283.55
                             1315.58  1332.01  1361.36  1375.80  1431.10
                             1445.54  1466.88  1491.74  1522.81  1544.15
                             1547.39  1552.26  1611.36  1623.78  1669.88
                             1682.81  1821.88  1836.90  1841.69  1912.28
                             1973.45  1994.18  2044.97  2057.79  2068.08
                             2077.44  2108.34  2151.46  2171.66  2174.88
                             2177.00  2179.53  2185.47  2191.76  2404.27
                             2428.66  2441.30  2478.89  2492.33  4355.27
                             4358.99  4365.55  4421.31  4422.48  4431.98
                             4502.89  4517.03  4518.63  4521.06  4529.32
                             4544.57  4545.40  4550.43  4565.78  4570.10
                             4580.96  4669.10

 Zero-point correction=                           0.271453 (Hartree/Particle)
 Thermal correction to Energy=                    0.286833
 Thermal correction to Enthalpy=                  0.287777
 Thermal correction to Gibbs Free Energy=         0.228555
 Sum of electronic and zero-point Energies=           -505.921541
 Sum of electronic and thermal Energies=              -505.906161
 Sum of electronic and thermal Enthalpies=            -505.905217
 Sum of electronic and thermal Free Energies=         -505.964439

                     E (Thermal)             CV                S
                      KCal/Mol        Cal/Mol-Kelvin    Cal/Mol-Kelvin
 Total                  179.990             56.196            124.644
 Electronic               0.000              0.000              0.000
 Translational            0.889              2.981             41.371
 Rotational               0.889              2.981             31.744
 Vibrational            178.213             50.235             51.529
 Vibration     1          0.593              1.984              5.876
 Vibration     2          0.594              1.982              5.382
 Vibration     3          0.597              1.972              4.346
 Vibration     4          0.604              1.948              3.424
 Vibration     5          0.613              1.920              2.892
 Vibration     6          0.618              1.903              2.676
 Vibration     7          0.621              1.893              2.565
 Vibration     8          0.629              1.868              2.335
 Vibration     9          0.632              1.857              2.250
 Vibration    10          0.636              1.845              2.170
 Vibration    11          0.646              1.814              1.979
 Vibration    12          0.653              1.792              1.864
 Vibration    13          0.664              1.757              1.708
 Vibration    14          0.670              1.742              1.646
 Vibration    15          0.701              1.648              1.343
 Vibration    16          0.738              1.544              1.101
 Vibration    17          0.769              1.462              0.949
 Vibration    18          0.776              1.444              0.919
 Vibration    19          0.814              1.349              0.780
 Vibration    20          0.822              1.329              0.753
 Vibration    21          0.884              1.186              0.589
 Vibration    22          0.946              1.057              0.470

                           ! Non-Optimized Parameters !
 Normal termination of Gaussian 16 at Sun Dec 13 20:12:44 2020.

 ----------------------------------------------------------------------
 # B3LYP/6-311++G(d,p) empiricaldispersion=gd3bj scf=xqc pop=npa geom=c
 heck
 ----------------------------------------------------------------------

 ---------------------------------------
 CID_144486851_JID_3676_Energie_neutraal
 ---------------------------------------
 Structure from the checkpoint file:  "JID_3676.chk"
 Charge =  0 Multiplicity = 1

 SCF Done:  E(RB3LYP) =  -506.332489500     A.U. after   15 cycles
 Normal termination of Gaussian 16 at Sun Dec 13 20:16:33 2020.

 ----------------------------------------------------------------------
 # B3LYP/6-311++G(d,p) empiricaldispersion=gd3bj scf=xqc pop=npa geom=c
 heck
 ----------------------------------------------------------------------

 -------------------------------------
 CID_144486851_JID_3676_Energie_kation
 -------------------------------------
 Structure from the checkpoint file:  "JID_3676.chk"
 Charge =  1 Multiplicity = 2

 SCF Done:  E(UB3LYP) =  -506.057630027     A.U. after   22 cycles
 Normal termination of Gaussian 16 at Sun Dec 13 20:24:41 2020.
 Gaussian 16:  ES64L-G16RevA.03 25-Dec-2016

 ----------------------------------------------------------------------
 # B3LYP/6-311++G(d,p) empiricaldispersion=gd3bj scf=xqc pop=npa geom=c
 heck
 ----------------------------------------------------------------------

 ------------------------------------
 CID_144486851_JID_3676_Energie_anion
 ------------------------------------
 Structure from the checkpoint file:  "JID_3676.chk"
 Charge = -1 Multiplicity = 2

                         Standard orientation:
 ---------------------------------------------------------------------
 Center     Atomic      Atomic             Coordinates (Angstroms)
 Number     Number       Type             X           Y           Z
 ---------------------------------------------------------------------
      1          6           0       -3.830442    0.650952   -0.668671
      2          6           0       -3.128661    0.984106    0.614708
      3          6           0       -1.889887    0.611047    0.961365
      4          6           0       -0.970334   -0.237863    0.163074
      5          6           0       -1.263870   -1.525112   -0.124769
      6          6           0       -2.501336   -2.275784    0.261653
      7          6           0        0.326173    0.359674   -0.253642
      8          6           0        0.626409    1.644401    0.042713
      9          6           0        1.857993    2.403149   -0.347775
     10          6           0        1.233849   -0.483174   -1.067574
     11          6           0        2.490011   -0.846035   -0.744033
     12          6           0        3.169806   -0.522916    0.500777
     13          6           0        4.444891   -0.847212    0.759678
     14          1           0       -3.154822    0.171584   -1.381661
     15          1           0       -4.243861    1.556113   -1.131398
     16          1           0       -4.676009   -0.028574   -0.493655
     17          1           0       -3.688775    1.600516    1.318226
     18          1           0       -1.495447    0.969078    1.912917
     19          1           0       -0.522236   -2.104126   -0.671168
     20          1           0       -3.134774   -2.475743   -0.614710
     21          1           0       -2.240634   -3.253578    0.686725
     22          1           0       -3.102738   -1.726406    0.989649
     23          1           0       -0.112146    2.216646    0.599905
     24          1           0        1.587192    3.386123   -0.754279
     25          1           0        2.502357    2.591700    0.522800
     26          1           0        2.455649    1.868261   -1.088800
     27          1           0        0.824870   -0.847179   -2.009918
     28          1           0        3.053965   -1.449519   -1.455117
     29          1           0        2.584468    0.005577    1.249988
     30          1           0        4.917383   -0.599686    1.705304
     31          1           0        5.057956   -1.372183    0.030164
 ---------------------------------------------------------------------

 SCF Done:  E(UB3LYP) =  -506.322668466     A.U. after   33 cycles
 SCF Done:  E(UB3LYP) =  -506.322668466     a.u. after    1 cycles

 The electronic state is 2-A.
 Alpha  occ. eigenvalues --  -10.05807 -10.05524 -10.05516 -10.05316 -10.05255
 Alpha  occ. eigenvalues --  -10.04796 -10.04430 -10.04392 -10.03975 -10.03528
 Alpha  occ. eigenvalues --  -10.03522 -10.03304 -10.02935  -0.71984  -0.68440
 Alpha  occ. eigenvalues --   -0.65806  -0.64921  -0.61043  -0.60030  -0.56588
 Alpha  occ. eigenvalues --   -0.53616  -0.48631  -0.45646  -0.43628  -0.40006
 Alpha  occ. eigenvalues --   -0.37734  -0.36641  -0.35318  -0.33769  -0.32631
 Alpha  occ. eigenvalues --   -0.31058  -0.30168  -0.29909  -0.29241  -0.28954
 Alpha  occ. eigenvalues --   -0.26978  -0.26678  -0.26443  -0.25684  -0.24141
 Alpha  occ. eigenvalues --   -0.23522  -0.22296  -0.19686  -0.19430  -0.17599
 Alpha  occ. eigenvalues --   -0.13620  -0.11072  -0.09313   0.05036
 Alpha virt. eigenvalues --    0.06790   0.08201   0.08400   0.08790   0.09433
 Alpha virt. eigenvalues --    0.09514   0.09935   0.10551   0.11094   0.11771
 Alpha virt. eigenvalues --    0.11824   0.12337   0.12494   0.12902   0.13465

  Beta  occ. eigenvalues --  -10.05778 -10.05505 -10.05496 -10.05314 -10.05244
  Beta  occ. eigenvalues --  -10.04826 -10.04403 -10.04341 -10.03929 -10.03426
  Beta  occ. eigenvalues --  -10.03316 -10.03119 -10.02723  -0.71833  -0.68219
  Beta  occ. eigenvalues --   -0.65605  -0.64718  -0.60835  -0.59852  -0.56491
  Beta  occ. eigenvalues --   -0.53527  -0.48214  -0.45431  -0.43353  -0.39852
  Beta  occ. eigenvalues --   -0.37659  -0.36508  -0.35211  -0.33649  -0.32496
  Beta  occ. eigenvalues --   -0.30976  -0.30105  -0.29816  -0.29073  -0.28873
  Beta  occ. eigenvalues --   -0.26885  -0.26559  -0.26370  -0.25626  -0.24055
  Beta  occ. eigenvalues --   -0.23393  -0.22209  -0.19327  -0.18964  -0.17185
  Beta  occ. eigenvalues --   -0.13465  -0.10106  -0.08380
  Beta virt. eigenvalues --    0.07272   0.08328   0.08470   0.08971   0.09258
  Beta virt. eigenvalues --    0.09548   0.09960   0.10333   0.10739   0.11233
  Beta virt. eigenvalues --    0.11843   0.12017   0.12372   0.12508   0.12973

 Mulliken charges and spin densities:
               1          2
     1  C    0.443417  -1.176325
     2  C    0.485636  -0.652540
     3  C   -1.057825   0.745863
     4  C    0.978378  -0.134991
     5  C   -0.695514   0.300233
     6  C   -0.161791  -0.657481
     7  C    0.770010   0.116668
     8  C   -0.412302   0.199827
     9  C   -0.561836  -0.233969
    10  C   -0.312907   0.034119
    11  C   -0.572414   0.225699
    12  C    0.296308  -0.035227
    13  C   -0.661511   0.147759
    14  H    0.075063   0.069571
    15  H   -0.160656   0.301246
    16  H   -0.105641   0.246316
    17  H   -0.577572   0.733980
    18  H   -0.114523   0.329775
    19  H    0.195907  -0.014007
    20  H   -0.011019   0.154154
    21  H    0.123104   0.006800
    22  H    0.101946   0.048136
    23  H    0.070074   0.102450
    24  H    0.021083   0.100350
    25  H    0.110460   0.033659
    26  H    0.131612   0.025747
    27  H    0.172984  -0.011816
    28  H    0.114033  -0.002645
    29  H    0.141276   0.009478
    30  H    0.089222  -0.001860
    31  H    0.084998  -0.010967
 Sum of Mulliken charges =  -1.00000   1.00000

 Dipole moment (field-independent basis, Debye):
    X=              1.4887    Y=             -1.4717    Z=             -1.7493  Tot=              2.7281
 Quadrupole moment (field-independent basis, Debye-Ang):
   XX=           -153.6823   YY=           -107.8049   ZZ=           -101.1396
   XY=              7.3091   XZ=              1.4774   YZ=              0.4991

 Summary of Natural Population Analysis:

                                       Natural Population
                Natural  -----------------------------------------------
    Atom  No    Charge         Core      Valence    Rydberg      Total
 -----------------------------------------------------------------------
      C    1   -0.30793      0.99965     2.30097    0.00731     3.30793
      C    2   -0.08467      0.99953     2.07527    0.00987     3.08467
      C    3   -0.10554      0.99950     2.09322    0.01282     3.10554
      C    4   -0.03771      0.99943     2.02655    0.01173     3.03771
      C    5   -0.07116      0.99949     2.06351    0.00816     3.07116
      C    6   -0.30548      0.99965     2.29993    0.00590     3.30548
      C    7   -0.05337      0.99944     2.04250    0.01143     3.05337
      C    8   -0.03830      0.99950     2.03073    0.00807     3.03830
      C    9   -0.30453      0.99965     2.30000    0.00488     3.30453
      C   10   -0.06536      0.99952     2.05346    0.01238     3.06536
      C   11   -0.09764      0.99951     2.08918    0.00895     3.09764
      C   12   -0.10532      0.99956     2.09410    0.01166     3.10532
      C   13   -0.15749      0.99960     2.15099    0.00690     3.15749
      H   14    0.10589      0.00000     0.39323    0.00089     0.39411
      H   15    0.10070      0.00000     0.39832    0.00098     0.39930
      H   16    0.10124      0.00000     0.39762    0.00114     0.39876
      H   17    0.09121      0.00000     0.40725    0.00154     0.40879
      H   18    0.10177      0.00000     0.39675    0.00148     0.39823
      H   19    0.09605      0.00000     0.40293    0.00102     0.40395
      H   20    0.09963      0.00000     0.39937    0.00100     0.40037
      H   21    0.09730      0.00000     0.40192    0.00078     0.40270
      H   22    0.10625      0.00000     0.39289    0.00086     0.39375
      H   23    0.09141      0.00000     0.40740    0.00119     0.40859
      H   24    0.09599      0.00000     0.40295    0.00106     0.40401
      H   25    0.10129      0.00000     0.39742    0.00128     0.39871
      H   26    0.10810      0.00000     0.39092    0.00098     0.39190
      H   27    0.09191      0.00000     0.40700    0.00109     0.40809
      H   28    0.08612      0.00000     0.41234    0.00155     0.41388
      H   29    0.09519      0.00000     0.40305    0.00177     0.40481
      H   30    0.08436      0.00000     0.41477    0.00087     0.41564
      H   31    0.08011      0.00000     0.41879    0.00110     0.41989
 =======================================================================
   * Total *    0.00000     12.99402    34.86533    0.14064    48.00000

 Normal termination of Gaussian 16 at Sun Dec 13 20:36:54 2020.
