 Gaussian 16, Revision A.03,

 -----------------------------------------------------------
 # opt freq B3LYP/6-31G(d) empiricaldispersion=gd3bj scf=xqc
 -----------------------------------------------------------

 -----------------------------
 CID_91070808_JID_729_neutraal
 -----------------------------
 Symbolic Z-matrix:
 Charge =  0 Multiplicity = 1

 SCF Done:  E(RB3LYP) =  -463.758765204     A.U. after   15 cycles
 SCF Done:  E(RB3LYP) =  -463.761385076     A.U. after   12 cycles
 SCF Done:  E(RB3LYP) =  -463.761408179     A.U. after   12 cycles
 SCF Done:  E(RB3LYP) =  -463.761659526     A.U. after   12 cycles
 SCF Done:  E(RB3LYP) =  -463.762005417     A.U. after   11 cycles
 SCF Done:  E(RB3LYP) =  -463.762127708     A.U. after   11 cycles
 SCF Done:  E(RB3LYP) =  -463.762293118     A.U. after   12 cycles
 SCF Done:  E(RB3LYP) =  -463.762327477     A.U. after   12 cycles
 SCF Done:  E(RB3LYP) =  -463.762441303     A.U. after   10 cycles
 SCF Done:  E(RB3LYP) =  -463.762550125     A.U. after   11 cycles
 SCF Done:  E(RB3LYP) =  -463.762637248     A.U. after    9 cycles
 SCF Done:  E(RB3LYP) =  -463.762639869     A.U. after   10 cycles
 SCF Done:  E(RB3LYP) =  -463.762638552     A.U. after    9 cycles
 SCF Done:  E(RB3LYP) =  -463.762636326     A.U. after    9 cycles
 SCF Done:  E(RB3LYP) =  -463.762638332     A.U. after    9 cycles
 Optimization completed on the basis of negligible forces.
    -- Stationary point found.

 1\1\GINC-NODE202\FOpt\RB3LYP\6-31G(d)\C8H14O2\VSC10255\08-Dec-2020\0\\
 # opt freq B3LYP/6-31G(d) empiricaldispersion=gd3bj scf=xqc\\CID_91070
 808_JID_729_neutraal\\0,1\C,0.8510402427,-0.0018705786,0.2791667248\C,
 0.4181573567,1.3901844813,0.6379875437\C,-0.3092619626,2.236039236,-0.
 1006550083\C,-0.8429657859,1.9757262635,-1.476357586\O,-2.2955263027,1
 .8940122685,-1.4565541156\C,-2.8234391055,0.6719528641,-1.2167693851\O
 ,-2.1664229023,-0.3422029927,-1.1074401663\C,-4.3365840659,0.743402101
 9,-1.0933505934\C,-4.7210767124,1.5248289348,0.1746476329\C,-4.9766247

 Normal termination of Gaussian 16 at Tue Dec  8 13:09:38 2020.

 --------------------------------------------------------------------
 #N Geom=AllCheck Guess=TCheck SCRF=Check GenChk RB3LYP/6-31G(d) Freq
 --------------------------------------------------------------------

 Structure from the checkpoint file:  "JID_729.chk"
 -----------------------------
 CID_91070808_JID_729_neutraal
 -----------------------------
 Charge =  0 Multiplicity = 1

 SCF Done:  E(RB3LYP) =  -463.762638332     A.U. after    1 cycles

  Exact polarizability: 106.187   8.981  84.724  -3.069   0.454  75.954
 Approx polarizability: 130.913  20.842 134.806  -4.073   2.028 104.356

                      1                      2                      3
                      A                      A                      A
 Frequencies --     21.5491                49.9225                68.0282
 Red. masses --      3.0021                 3.6259                 3.6250
 Frc consts  --      0.0008                 0.0053                 0.0099
 IR Inten    --      0.1187                 1.1917                 0.0571

                      4                      5                      6
                      A                      A                      A
 Frequencies --     82.2172               126.3220               176.7348
 Red. masses --      3.0917                 1.1955                 3.0812
 Frc consts  --      0.0123                 0.0112                 0.0567
 IR Inten    --      1.3344                 1.4872                 1.2743

                      7                      8                      9
                      A                      A                      A
 Frequencies --    214.9499               236.7321               255.1852
 Red. masses --      1.5979                 1.4943                 1.1194
 Frc consts  --      0.0435                 0.0493                 0.0429
 IR Inten    --      0.5153                 0.1700                 0.3131

                     10                     11                     12
                      A                      A                      A
 Frequencies --    283.7566               314.7853               328.9139
 Red. masses --      3.1466                 3.5036                 2.4607
 Frc consts  --      0.1493                 0.2045                 0.1568
 IR Inten    --      1.9451                 3.5092                 1.1292

                     13                     14                     15
                      A                      A                      A
 Frequencies --    365.8565               499.8401               528.5711
 Red. masses --      2.8191                 2.6968                 3.9826
 Frc consts  --      0.2223                 0.3970                 0.6556
 IR Inten    --      9.2888                 8.2823                 5.6372

                     16                     17                     18
                      A                      A                      A
 Frequencies --    562.6928               634.6564               742.7499
 Red. masses --      2.2656                 2.3600                 1.5193
 Frc consts  --      0.4226                 0.5601                 0.4938
 IR Inten    --      7.8171                 3.1299                25.9684

                     19                     20                     21
                      A                      A                      A
 Frequencies --    773.2594               823.6228               909.9443
 Red. masses --      5.6884                 4.0035                 2.4530
 Frc consts  --      2.0040                 1.6001                 1.1967
 IR Inten    --      6.7808                 8.1145                 7.5102

                     22                     23                     24
                      A                      A                      A
 Frequencies --    919.5932               951.8267               980.5617
 Red. masses --      2.7443                 1.1609                 3.4552
 Frc consts  --      1.3674                 0.6197                 1.9574
 IR Inten    --     17.2278                 2.3047                37.1887

                     25                     26                     27
                      A                      A                      A
 Frequencies --    984.2989              1005.1814              1014.5079
 Red. masses --      1.5404                 1.2528                 1.8914
 Frc consts  --      0.8793                 0.7458                 1.1469
 IR Inten    --      0.7088                 0.8434                 3.3738

                     28                     29                     30
                      A                      A                      A
 Frequencies --   1046.2664              1082.3305              1094.0426
 Red. masses --      1.5904                 1.5355                 2.0044
 Frc consts  --      1.0257                 1.0598                 1.4135
 IR Inten    --      1.1519                 3.4524               225.4673

                     31                     32                     33
                      A                      A                      A
 Frequencies --   1131.3889              1174.5709              1206.5337
 Red. masses --      2.3950                 2.2439                 1.8945
 Frc consts  --      1.8063                 1.8239                 1.6249
 IR Inten    --      0.0894                 4.0163                 4.1047

                     34                     35                     36
                      A                      A                      A
 Frequencies --   1282.7788              1294.5671              1318.7411
 Red. masses --      1.8529                 1.4572                 1.1978
 Frc consts  --      1.7964                 1.4389                 1.2273
 IR Inten    --    126.8367                76.1249                28.4415

                     37                     38                     39
                      A                      A                      A
 Frequencies --   1358.7765              1367.9279              1397.4484
 Red. masses --      1.4577                 1.3418                 1.3205
 Frc consts  --      1.5857                 1.4794                 1.5194
 IR Inten    --      6.1276                 2.4956                12.7625

                     40                     41                     42
                      A                      A                      A
 Frequencies --   1423.6080              1433.9624              1448.1549
 Red. masses --      1.2241                 1.2166                 1.2415
 Frc consts  --      1.4617                 1.4739                 1.5340
 IR Inten    --      2.5901                 2.0824                 4.6741

                     43                     44                     45
                      A                      A                      A
 Frequencies --   1461.6135              1508.6710              1513.1204
 Red. masses --      1.4122                 1.0595                 1.1039
 Frc consts  --      1.7775                 1.4209                 1.4891
 IR Inten    --      7.3498                 4.8611                18.1977

                     46                     47                     48
                      A                      A                      A
 Frequencies --   1518.6605              1522.1927              1532.2261
 Red. masses --      1.0433                 1.0470                 1.0458
 Frc consts  --      1.4177                 1.4294                 1.4466
 IR Inten    --      1.8506                 0.4325                 8.1792

                     49                     50                     51
                      A                      A                      A
 Frequencies --   1537.5240              1543.9366              1748.4088
 Red. masses --      1.0736                 1.0598                 6.0616
 Frc consts  --      1.4953                 1.4885                10.9176
 IR Inten    --      6.1804                17.3997                 5.8949

                     52                     53                     54
                      A                      A                      A
 Frequencies --   1816.6058              3038.5167              3053.8412
 Red. masses --     10.9291                 1.0449                 1.0344
 Frc consts  --     21.2499                 5.6841                 5.6840
 IR Inten    --    188.5777                29.9957                28.1128

                     55                     56                     57
                      A                      A                      A
 Frequencies --   3056.7808              3085.6204              3088.6329
 Red. masses --      1.0354                 1.0858                 1.0958
 Frc consts  --      5.7002                 6.0912                 6.1592
 IR Inten    --     18.0691                 5.9615                20.3611

                     58                     59                     60
                      A                      A                      A
 Frequencies --   3096.1235              3120.1239              3123.0502
 Red. masses --      1.0642                 1.1031                 1.1029
 Frc consts  --      6.0105                 6.3273                 6.3378
 IR Inten    --     33.1172                19.5800                36.1588

                     61                     62                     63
                      A                      A                      A
 Frequencies --   3133.9405              3137.8879              3140.7802
 Red. masses --      1.1031                 1.0854                 1.1013
 Frc consts  --      6.3833                 6.2966                 6.4009
 IR Inten    --      5.9700                 8.8495                43.5083

                     64                     65                     66
                      A                      A                      A
 Frequencies --   3162.2789              3165.6455              3177.5567
 Red. masses --      1.0981                 1.0951                 1.0976
 Frc consts  --      6.4696                 6.4660                 6.5295
 IR Inten    --      8.8201                 5.5788                32.7923

 - Thermochemistry -
 -------------------
 Temperature   298.150 Kelvin.  Pressure   1.00000 Atm.
 Atom     1 has atomic number  6 and mass  12.00000

 Molecular mass:   142.09938 amu.
 Principal axes and moments of inertia in atomic units:
                           1         2         3
     Eigenvalues --   721.745112587.539382660.04098
           X            0.99991   0.01249   0.00488
           Y           -0.01212   0.99747  -0.07009
           Z           -0.00574   0.07002   0.99753
 This molecule is an asymmetric top.
 Rotational symmetry number  1.
 Warning -- assumption of classical behavior for rotation
           may cause significant error
 Rotational temperatures (Kelvin)      0.12001     0.03347     0.03256
 Rotational constants (GHZ):           2.50052     0.69747     0.67846
 Zero-point vibrational energy     551485.0 (Joules/Mol)
                                  131.80809 (Kcal/Mol)
 Warning -- explicit consideration of  16 degrees of freedom as
           vibrations may cause significant error
 Vibrational temperatures:     31.00    71.83    97.88   118.29   181.75
          (Kelvin)            254.28   309.26   340.60   367.15   408.26
                              452.91   473.23   526.39   719.16   760.50
                              809.59   913.13  1068.65  1112.55  1185.01
                             1309.21  1323.09  1369.47  1410.81  1416.19
                             1446.23  1459.65  1505.34  1557.23  1574.08
                             1627.82  1689.95  1735.93  1845.63  1862.59
                             1897.37  1954.98  1968.14  2010.62  2048.25
                             2063.15  2083.57  2102.94  2170.64  2177.04
                             2185.01  2190.10  2204.53  2212.15  2221.38
                             2515.57  2613.69  4371.75  4393.80  4398.03
                             4439.52  4443.85  4454.63  4489.16  4493.37
                             4509.04  4514.72  4518.88  4549.81  4554.66
                             4571.80

 Zero-point correction=                           0.210050 (Hartree/Particle)
 Thermal correction to Energy=                    0.222119
 Thermal correction to Enthalpy=                  0.223063
 Thermal correction to Gibbs Free Energy=         0.170592
 Sum of electronic and zero-point Energies=           -463.552589
 Sum of electronic and thermal Energies=              -463.540520
 Sum of electronic and thermal Enthalpies=            -463.539576
 Sum of electronic and thermal Free Energies=         -463.592046

                     E (Thermal)             CV                S
                      KCal/Mol        Cal/Mol-Kelvin    Cal/Mol-Kelvin
 Total                  139.381             42.290            110.433
 Electronic               0.000              0.000              0.000
 Translational            0.889              2.981             40.765
 Rotational               0.889              2.981             29.986
 Vibrational            137.604             36.328             39.682
 Vibration     1          0.593              1.985              6.486
 Vibration     2          0.595              1.978              4.820
 Vibration     3          0.598              1.969              4.210
 Vibration     4          0.600              1.961              3.837
 Vibration     5          0.611              1.927              3.001
 Vibration     6          0.628              1.871              2.363
 Vibration     7          0.645              1.818              2.001
 Vibration     8          0.656              1.784              1.827
 Vibration     9          0.666              1.754              1.694
 Vibration    10          0.682              1.704              1.511
 Vibration    11          0.702              1.645              1.337
 Vibration    12          0.712              1.618              1.265
 Vibration    13          0.739              1.543              1.097
 Vibration    14          0.855              1.250              0.659
 Vibration    15          0.884              1.187              0.590
 Vibration    16          0.918              1.112              0.518

 Optimization completed on the basis of negligible forces.
    -- Stationary point found.

 1\1\GINC-NODE202\Freq\RB3LYP\6-31G(d)\C8H14O2\VSC10255\08-Dec-2020\0\\
 #N Geom=AllCheck Guess=TCheck SCRF=Check GenChk RB3LYP/6-31G(d) Freq\\
 CID_91070808_JID_729_neutraal\\0,1\C,0.8510402427,-0.0018705786,0.2791
 667248\C,0.4181573567,1.3901844813,0.6379875437\C,-0.3092619626,2.2360
 39236,-0.1006550083\C,-0.8429657859,1.9757262635,-1.476357586\O,-2.295
 5263027,1.8940122685,-1.4565541156\C,-2.8234391055,0.6719528641,-1.216
 7693851\O,-2.1664229023,-0.3422029927,-1.1074401663\C,-4.3365840659,0.
 7434021019,-1.0933505934\C,-4.7210767124,1.5248289348,0.1746476329\C,-

 Normal termination of Gaussian 16 at Tue Dec  8 13:23:30 2020.

 ----------------------------------------------------------------------
 # B3LYP/6-311++G(d,p) empiricaldispersion=gd3bj scf=xqc pop=npa geom=c
 heck
 ----------------------------------------------------------------------

 -------------------------------------
 CID_91070808_JID_729_Energie_neutraal
 -------------------------------------
 Structure from the checkpoint file:  "JID_729.chk"
 Charge =  0 Multiplicity = 1

 SCF Done:  E(RB3LYP) =  -463.900175757     A.U. after   13 cycles
 Normal termination of Gaussian 16 at Tue Dec  8 13:29:13 2020.

 ----------------------------------------------------------------------
 # B3LYP/6-311++G(d,p) empiricaldispersion=gd3bj scf=xqc pop=npa geom=c
 heck
 ----------------------------------------------------------------------

 -----------------------------------
 CID_91070808_JID_729_Energie_kation
 -----------------------------------
 Structure from the checkpoint file:  "JID_729.chk"
 Charge =  1 Multiplicity = 2

 SCF Done:  E(UB3LYP) =  -463.565588861     A.U. after   20 cycles
 Normal termination of Gaussian 16 at Tue Dec  8 13:34:11 2020.
 Gaussian 16:  ES64L-G16RevA.03 25-Dec-2016

 ----------------------------------
 CID_91070808_JID_729_Energie_anion
 ----------------------------------
 Structure from the checkpoint file:  "JID_729.chk"
 Charge = -1 Multiplicity = 2

                         Standard orientation:
 ---------------------------------------------------------------------
 Center     Atomic      Atomic             Coordinates (Angstroms)
 Number     Number       Type             X           Y           Z
 ---------------------------------------------------------------------
      1          6           0        3.230607    1.026050    0.073665
      2          6           0        2.857082   -0.193043   -0.718957
      3          6           0        1.921178   -1.103331   -0.426276
      4          6           0        1.041050   -1.109439    0.786364
      5          8           0       -0.345649   -0.871723    0.415475
      6          6           0       -0.737558    0.421710    0.360195
      7          8           0       -0.035372    1.358402    0.679066
      8          6           0       -2.160182    0.541337   -0.161127
      9          6           0       -2.212785    0.115950   -1.638476
     10          6           0       -3.144534   -0.270174    0.694300
     11          1           0        2.475386    1.286322    0.816989
     12          1           0        3.345520    1.886625   -0.596387
     13          1           0        4.198029    0.887331    0.575860
     14          1           0        3.425601   -0.344814   -1.637270
     15          1           0        1.755172   -1.926623   -1.119470
     16          1           0        1.020819   -2.098802    1.251118
     17          1           0        1.340668   -0.368507    1.526841
     18          1           0       -2.402686    1.606091   -0.085004
     19          1           0       -1.952737   -0.941888   -1.743609
     20          1           0       -3.222027    0.265411   -2.037324
     21          1           0       -1.515453    0.702588   -2.246121
     22          1           0       -3.109568    0.038257    1.744822
     23          1           0       -4.167489   -0.121758    0.331358
     24          1           0       -2.912214   -1.338038    0.643741
 ---------------------------------------------------------------------

 SCF Done:  E(UB3LYP) =  -463.882419062     A.U. after   33 cycles
 SCF Done:  E(UB3LYP) =  -463.882419062     a.u. after    1 cycles

 The electronic state is 2-A.
 Alpha  occ. eigenvalues --  -19.06314 -19.00983 -10.19666 -10.12594 -10.08739
 Alpha  occ. eigenvalues --  -10.07752 -10.06827 -10.06302 -10.06258 -10.06247
 Alpha  occ. eigenvalues --   -1.00237  -0.91754  -0.71545  -0.69699  -0.63290
 Alpha  occ. eigenvalues --   -0.58952  -0.57492  -0.52391  -0.46778  -0.43763
 Alpha  occ. eigenvalues --   -0.40231  -0.38284  -0.37140  -0.36099  -0.34180
 Alpha  occ. eigenvalues --   -0.33005  -0.32381  -0.31097  -0.29383  -0.28477
 Alpha  occ. eigenvalues --   -0.28213  -0.27130  -0.25179  -0.24979  -0.24228
 Alpha  occ. eigenvalues --   -0.24014  -0.20410  -0.17597  -0.15742   0.04708
 Alpha virt. eigenvalues --    0.06471   0.07613   0.08139   0.08892   0.09300
 Alpha virt. eigenvalues --    0.09817   0.10155   0.10394   0.10738   0.11046
 Alpha virt. eigenvalues --    0.12005   0.12803   0.12852   0.14151   0.15148

  Beta  occ. eigenvalues --  -19.06305 -19.00978 -10.19666 -10.12574 -10.08730
  Beta  occ. eigenvalues --  -10.07732 -10.06813 -10.06270 -10.06235 -10.06209
  Beta  occ. eigenvalues --   -1.00226  -0.91745  -0.71514  -0.69657  -0.63248
  Beta  occ. eigenvalues --   -0.58884  -0.57443  -0.52326  -0.46742  -0.43719
  Beta  occ. eigenvalues --   -0.40193  -0.38256  -0.37095  -0.36060  -0.34139
  Beta  occ. eigenvalues --   -0.32965  -0.32339  -0.31062  -0.29349  -0.28438
  Beta  occ. eigenvalues --   -0.28176  -0.27093  -0.25145  -0.24946  -0.24191
  Beta  occ. eigenvalues --   -0.23977  -0.20392  -0.17577  -0.15702
  Beta virt. eigenvalues --    0.06971   0.07528   0.08460   0.08760   0.09339
  Beta virt. eigenvalues --    0.09662   0.10207   0.10531   0.10692   0.11300
  Beta virt. eigenvalues --    0.11508   0.12365   0.13226   0.13323   0.14344

 Mulliken charges and spin densities:
               1          2
     1  C    0.627338  -1.363150
     2  C    0.040541   0.013560
     3  C   -0.179682   0.338176
     4  C    0.741369  -1.104688
     5  O    0.004938   0.044730
     6  C    1.021511  -1.233312
     7  O   -0.255571   0.001274
     8  C   -2.581670   2.764026
     9  C    1.155412  -1.697446
    10  C    1.200580  -1.753382
    11  H    0.109191   0.056228
    12  H   -0.040624   0.173711
    13  H   -0.228542   0.370251
    14  H   -0.654391   0.824887
    15  H   -0.198285   0.365062
    16  H   -0.596936   0.789309
    17  H    0.098802   0.048916
    18  H   -0.042000   0.224098
    19  H   -0.029642   0.183751
    20  H   -0.326337   0.482563
    21  H   -0.143395   0.285171
    22  H   -0.215715   0.355596
    23  H   -0.443798   0.598534
    24  H   -0.063094   0.232135
 Sum of Mulliken charges =  -1.00000   1.00000

 Dipole moment (field-independent basis, Debye):
    X=              0.4908    Y=              1.3321    Z=              1.6190  Tot=              2.1533
 Quadrupole moment (field-independent basis, Debye-Ang):
   XX=           -138.5262   YY=            -97.8703   ZZ=            -97.3282
   XY=              1.2330   XZ=              3.3205   YZ=              1.2732

 Summary of Natural Population Analysis:

                                       Natural Population
                Natural  -----------------------------------------------
    Atom  No    Charge         Core      Valence    Rydberg      Total
 -----------------------------------------------------------------------
      C    1   -0.31146      0.99964     2.30456    0.00726     3.31146
      C    2   -0.06675      0.99954     2.05727    0.00994     3.06675
      C    3   -0.11799      0.99951     2.10800    0.01047     3.11799
      C    4   -0.03449      0.99952     2.02216    0.01281     3.03449
      O    5   -0.28305      0.99986     3.27354    0.00965     4.28305
      C    6    0.41880      0.99965     1.55607    0.02548     2.58120
      O    7   -0.31048      0.99987     3.30492    0.00569     4.31048
      C    8   -0.15307      0.99957     2.14310    0.01040     3.15307
      C    9   -0.28135      0.99965     2.27610    0.00560     3.28135
      C   10   -0.28211      0.99965     2.27667    0.00579     3.28211
      H   11    0.11148      0.00000     0.38728    0.00125     0.38852
      H   12    0.10430      0.00000     0.39461    0.00109     0.39570
      H   13    0.10227      0.00000     0.39663    0.00110     0.39773
      H   14    0.09460      0.00000     0.40342    0.00197     0.40540
      H   15    0.09843      0.00000     0.39995    0.00161     0.40157
      H   16    0.09736      0.00000     0.40078    0.00186     0.40264
      H   17    0.09737      0.00000     0.40111    0.00152     0.40263
      H   18    0.10376      0.00000     0.39456    0.00168     0.39624
      H   19    0.10362      0.00000     0.39491    0.00146     0.39638
      H   20    0.10099      0.00000     0.39767    0.00134     0.39901
      H   21    0.10206      0.00000     0.39678    0.00115     0.39794
      H   22    0.10004      0.00000     0.39864    0.00132     0.39996
      H   23    0.10132      0.00000     0.39705    0.00163     0.39868
      H   24    0.10434      0.00000     0.39403    0.00162     0.39566
 =======================================================================
   * Total *    0.00000      9.99646    28.87984    0.12370    39.00000

 Normal termination of Gaussian 16 at Tue Dec  8 13:45:16 2020.
