 Gaussian 16, Revision A.03,

 -----------------------------------------------------------
 # opt freq B3LYP/6-31G(d) empiricaldispersion=gd3bj scf=xqc
 -----------------------------------------------------------

 -------------------------------
 CID_131347745_JID_5812_neutraal
 -------------------------------
 Symbolic Z-matrix:
 Charge =  0 Multiplicity = 1

 SCF Done:  E(RB3LYP) =  -721.095513833     A.U. after   15 cycles
 SCF Done:  E(RB3LYP) =  -721.098414102     A.U. after   13 cycles
 SCF Done:  E(RB3LYP) =  -721.098759174     A.U. after   13 cycles
 SCF Done:  E(RB3LYP) =  -721.100049477     A.U. after   13 cycles
 SCF Done:  E(RB3LYP) =  -721.100563030     A.U. after   13 cycles
 SCF Done:  E(RB3LYP) =  -721.100680636     A.U. after   12 cycles
 SCF Done:  E(RB3LYP) =  -721.100806438     A.U. after   10 cycles
 SCF Done:  E(RB3LYP) =  -721.100873870     A.U. after   11 cycles
 SCF Done:  E(RB3LYP) =  -721.100898320     A.U. after   11 cycles
 SCF Done:  E(RB3LYP) =  -721.100914958     A.U. after   11 cycles
 SCF Done:  E(RB3LYP) =  -721.100925056     A.U. after   10 cycles
 SCF Done:  E(RB3LYP) =  -721.100929702     A.U. after    9 cycles
 SCF Done:  E(RB3LYP) =  -721.100930598     A.U. after    8 cycles
 SCF Done:  E(RB3LYP) =  -721.100930814     A.U. after    8 cycles
 SCF Done:  E(RB3LYP) =  -721.100930838     A.U. after    7 cycles
 Optimization completed.
    -- Stationary point found.
 Normal termination of Gaussian 16 at Thu Dec 10 16:29:39 2020.

 --------------------------------------------------------------------
 #N Geom=AllCheck Guess=TCheck SCRF=Check GenChk RB3LYP/6-31G(d) Freq
 --------------------------------------------------------------------

 Structure from the checkpoint file:  "JID_5812.chk"
 -------------------------------
 CID_131347745_JID_5812_neutraal
 -------------------------------
 Charge =  0 Multiplicity = 1

 SCF Done:  E(RB3LYP) =  -721.100930838     A.U. after    1 cycles

  Exact polarizability: 167.576   9.177 122.263   7.301  -8.219  72.357
 Approx polarizability: 261.659  10.493 205.218  16.983 -16.432 117.457

                      1                      2                      3
                      A                      A                      A
 Frequencies --     40.9918                71.1301                85.3187
 Red. masses --      6.1363                 7.9698                 4.6430
 Frc consts  --      0.0061                 0.0238                 0.0199
 IR Inten    --      0.2022                 0.9737                 0.9668

                      4                      5                      6
                      A                      A                      A
 Frequencies --    129.4940               148.9083               177.5705
 Red. masses --      2.7753                 2.4160                 3.5102
 Frc consts  --      0.0274                 0.0316                 0.0652
 IR Inten    --      0.9349                 1.8022                 2.1924

                      7                      8                      9
                      A                      A                      A
 Frequencies --    204.8200               224.5286               288.5337
 Red. masses --      3.2432                 3.5039                 5.2657
 Frc consts  --      0.0802                 0.1041                 0.2583
 IR Inten    --      1.3870                 1.5419                 0.6848

                     10                     11                     12
                      A                      A                      A
 Frequencies --    307.5377               336.2487               416.0277
 Red. masses --      4.1990                 5.2394                 5.5102
 Frc consts  --      0.2340                 0.3490                 0.5619
 IR Inten    --      0.5643                 2.3990                 4.2342

                     13                     14                     15
                      A                      A                      A
 Frequencies --    447.3946               485.9624               522.7713
 Red. masses --      3.3543                 4.2669                 6.1215
 Frc consts  --      0.3956                 0.5937                 0.9857
 IR Inten    --      1.5217                 9.7653                 6.0550

                     16                     17                     18
                      A                      A                      A
 Frequencies --    555.5537               596.6564               603.9362
 Red. masses --      5.5060                 7.3210                 1.4674
 Frc consts  --      1.0012                 1.5356                 0.3154
 IR Inten    --      2.5356                 2.1197                32.1349

                     19                     20                     21
                      A                      A                      A
 Frequencies --    676.0138               704.9091               719.2417
 Red. masses --      2.8185                 4.7074                 4.8990
 Frc consts  --      0.7589                 1.3781                 1.4932
 IR Inten    --     61.3752                86.7939                35.8588

                     22                     23                     24
                      A                      A                      A
 Frequencies --    732.4545               750.8867               802.2033
 Red. masses --      5.8644                 3.0984                 7.7251
 Frc consts  --      1.8537                 1.0293                 2.9290
 IR Inten    --      7.2593                 2.2708                22.8752

                     25                     26                     27
                      A                      A                      A
 Frequencies --    829.4708               835.8362               852.6739
 Red. masses --      1.9065                 2.9613                 1.3642
 Frc consts  --      0.7728                 1.2189                 0.5844
 IR Inten    --      1.2296                10.8844                14.4676

                     28                     29                     30
                      A                      A                      A
 Frequencies --    951.3071               957.0921               990.3316
 Red. masses --      1.7125                 4.4660                 1.4270
 Frc consts  --      0.9131                 2.4103                 0.8246
 IR Inten    --      2.1723                 1.1460                 0.2087

                     31                     32                     33
                      A                      A                      A
 Frequencies --   1008.2900              1024.9731              1073.9774
 Red. masses --      8.5730                 1.5840                 1.7589
 Frc consts  --      5.1351                 0.9805                 1.1953
 IR Inten    --     75.8992                 6.1485                 1.1431

                     34                     35                     36
                      A                      A                      A
 Frequencies --   1086.2469              1119.8707              1122.6961
 Red. masses --      3.3398                 3.1520                 2.7498
 Frc consts  --      2.3218                 2.3290                 2.0421
 IR Inten    --     63.3705                36.7937                21.3275

                     37                     38                     39
                      A                      A                      A
 Frequencies --   1190.7903              1214.5735              1244.1081
 Red. masses --      2.9445                 2.6777                 3.6788
 Frc consts  --      2.4600                 2.3273                 3.3548
 IR Inten    --    270.8312                28.1456                19.7773

                     40                     41                     42
                      A                      A                      A
 Frequencies --   1262.9133              1291.9065              1317.4931
 Red. masses --      1.9187                 2.6246                 3.2276
 Frc consts  --      1.8030                 2.5810                 3.3008
 IR Inten    --     22.4312                10.2279                 3.9138

                     43                     44                     45
                      A                      A                      A
 Frequencies --   1336.8779              1354.8318              1435.0799
 Red. masses --      1.7181                 2.5506                 1.9567
 Frc consts  --      1.8092                 2.7584                 2.3743
 IR Inten    --      2.7011                 1.1000                23.8378

                     46                     47                     48
                      A                      A                      A
 Frequencies --   1439.7863              1458.4687              1508.6441
 Red. masses --      1.3567                 3.0482                 1.0815
 Frc consts  --      1.6571                 3.8202                 1.4503
 IR Inten    --     15.9324                76.9846                15.3950

                     49                     50                     51
                      A                      A                      A
 Frequencies --   1523.0868              1541.5972              1576.0759
 Red. masses --      1.0859                 2.4363                 6.6162
 Frc consts  --      1.4842                 3.4114                 9.6830
 IR Inten    --     24.3051                21.9082                40.8410

                     52                     53                     54
                      A                      A                      A
 Frequencies --   1613.4872              1625.6217              1651.0784
 Red. masses --      5.8230                 9.3770                 6.2416
 Frc consts  --      8.9317                14.6000                10.0250
 IR Inten    --     18.2556                61.7395               113.3732

                     55                     56                     57
                      A                      A                      A
 Frequencies --   1808.5236              3065.1626              3134.5971
 Red. masses --      9.5508                 1.0352                 1.1009
 Frc consts  --     18.4050                 5.7302                 6.3732
 IR Inten    --    205.5011                13.2332                 7.0669

                     58                     59                     60
                      A                      A                      A
 Frequencies --   3138.8502              3177.0296              3181.9873
 Red. masses --      1.1029                 1.0878                 1.0912
 Frc consts  --      6.4019                 6.4692                 6.5094
 IR Inten    --     12.0260                21.2367                13.3254

                     61                     62                     63
                      A                      A                      A
 Frequencies --   3203.1667              3301.3947              3693.9418
 Red. masses --      1.0945                 1.0997                 1.0640
 Frc consts  --      6.6165                 7.0618                 8.5540
 IR Inten    --     22.4131                 0.0868                77.0254

 - Thermochemistry -
 -------------------
 Temperature   298.150 Kelvin.  Pressure   1.00000 Atm.
 Atom     1 has atomic number  6 and mass  12.00000

 Molecular mass:   204.05349 amu.
 Principal axes and moments of inertia in atomic units:
                           1         2         3
     Eigenvalues --  1730.076803783.205684794.62621
           X            0.99989   0.01400  -0.00397
           Y           -0.01412   0.99942  -0.03113
           Z            0.00353   0.03118   0.99951
 This molecule is an asymmetric top.
 Rotational symmetry number  1.
 Warning -- assumption of classical behavior for rotation
           may cause significant error
 Rotational temperatures (Kelvin)      0.05006     0.02289     0.01806
 Rotational constants (GHZ):           1.04316     0.47704     0.37641
 Zero-point vibrational energy     449634.0 (Joules/Mol)
                                  107.46510 (Kcal/Mol)
 Warning -- explicit consideration of  18 degrees of freedom as
           vibrations may cause significant error
 Vibrational temperatures:     58.98   102.34   122.75   186.31   214.25
          (Kelvin)            255.48   294.69   323.05   415.14   442.48
                              483.79   598.57   643.70   699.19   752.15
                              799.32   858.46   868.93   972.63  1014.21
                             1034.83  1053.84  1080.36  1154.19  1193.42
                             1202.58  1226.81  1368.72  1377.04  1424.87
                             1450.70  1474.71  1545.21  1562.87  1611.24
                             1615.31  1713.28  1747.50  1789.99  1817.05
                             1858.77  1895.58  1923.47  1949.30  2064.76
                             2071.53  2098.41  2170.60  2191.38  2218.01
                             2267.62  2321.45  2338.91  2375.53  2602.06
                             4410.09  4509.99  4516.11  4571.04  4578.17
                             4608.64  4749.97  5314.76

 Zero-point correction=                           0.171257 (Hartree/Particle)
 Thermal correction to Energy=                    0.183481
 Thermal correction to Enthalpy=                  0.184426
 Thermal correction to Gibbs Free Energy=         0.131889
 Sum of electronic and zero-point Energies=           -720.929674
 Sum of electronic and thermal Energies=              -720.917449
 Sum of electronic and thermal Enthalpies=            -720.916505
 Sum of electronic and thermal Free Energies=         -720.969042

                     E (Thermal)             CV                S
                      KCal/Mol        Cal/Mol-Kelvin    Cal/Mol-Kelvin
 Total                  115.136             46.125            110.572
 Electronic               0.000              0.000              0.000
 Translational            0.889              2.981             41.844
 Rotational               0.889              2.981             31.818
 Vibrational            113.359             40.164             36.911
 Vibration     1          0.594              1.981              5.211
 Vibration     2          0.598              1.968              4.122
 Vibration     3          0.601              1.959              3.765
 Vibration     4          0.612              1.924              2.954
 Vibration     5          0.618              1.904              2.686
 Vibration     6          0.628              1.870              2.354
 Vibration     7          0.640              1.833              2.089
 Vibration     8          0.649              1.804              1.922
 Vibration     9          0.685              1.695              1.483
 Vibration    10          0.697              1.659              1.376
 Vibration    11          0.717              1.603              1.230
 Vibration    12          0.779              1.435              0.906
 Vibration    13          0.807              1.367              0.804
 Vibration    14          0.842              1.281              0.694
 Vibration    15          0.878              1.200              0.604
 Vibration    16          0.911              1.128              0.533
 Vibration    17          0.954              1.039              0.455
 Vibration    18          0.962              1.023              0.443

                           ! Non-Optimized Parameters !
 Normal termination of Gaussian 16 at Thu Dec 10 16:37:03 2020.

 ----------------------------------------------------------------------
 # B3LYP/6-311++G(d,p) empiricaldispersion=gd3bj scf=xqc pop=npa geom=c
 heck
 ----------------------------------------------------------------------

 ---------------------------------------
 CID_131347745_JID_5812_Energie_neutraal
 ---------------------------------------
 Structure from the checkpoint file:  "JID_5812.chk"
 Charge =  0 Multiplicity = 1

 SCF Done:  E(RB3LYP) =  -721.302311154     A.U. after   15 cycles
 Normal termination of Gaussian 16 at Thu Dec 10 16:40:54 2020.

 ----------------------------------------------------------------------
 # B3LYP/6-311++G(d,p) empiricaldispersion=gd3bj scf=xqc pop=npa geom=c
 heck
 ----------------------------------------------------------------------

 -------------------------------------
 CID_131347745_JID_5812_Energie_kation
 -------------------------------------
 Structure from the checkpoint file:  "JID_5812.chk"
 Charge =  1 Multiplicity = 2

 SCF Done:  E(UB3LYP) =  -720.978462174     A.U. after   26 cycles
 Normal termination of Gaussian 16 at Thu Dec 10 16:48:42 2020.
 Gaussian 16:  ES64L-G16RevA.03 25-Dec-2016

 ----------------------------------------------------------------------
 # B3LYP/6-311++G(d,p) empiricaldispersion=gd3bj scf=xqc pop=npa geom=c
 heck
 ----------------------------------------------------------------------

 ------------------------------------
 CID_131347745_JID_5812_Energie_anion
 ------------------------------------
 Structure from the checkpoint file:  "JID_5812.chk"
 Charge = -1 Multiplicity = 2

                         Standard orientation:
 ---------------------------------------------------------------------
 Center     Atomic      Atomic             Coordinates (Angstroms)
 Number     Number       Type             X           Y           Z
 ---------------------------------------------------------------------
      1          6           0       -0.744280   -1.664071    1.532089
      2          6           0       -1.521016   -0.746972    0.630786
      3          6           0       -0.958214    0.382061    0.001921
      4          6           0       -1.791966    1.206944   -0.774961
      5          7           0       -3.086644    0.983537   -0.989258
      6          6           0       -3.609672   -0.105689   -0.408755
      7          6           0       -2.880467   -0.975003    0.395600
      8          6           0        0.442118    0.773177    0.144337
      9          6           0        1.677547    0.190960   -0.030648
     10          7           0        2.678268    1.128898    0.221859
     11          6           0        2.037069    2.207292    0.518432
     12          8           0        0.679268    2.081517    0.492738
     13          6           0        1.956660   -1.163654   -0.525020
     14          8           0        1.102667   -1.967707   -0.853252
     15          8           0        3.277359   -1.429978   -0.595899
     16          1           0       -0.255252   -2.443650    0.939932
     17          1           0        0.041423   -1.128266    2.073252
     18          1           0       -1.407320   -2.140456    2.260085
     19          1           0       -1.369761    2.090348   -1.249457
     20          1           0       -4.668336   -0.282186   -0.588929
     21          1           0       -3.371760   -1.827000    0.856612
     22          1           0        2.428211    3.178953    0.781417
     23          1           0        3.340406   -2.335716   -0.952495
 ---------------------------------------------------------------------

 SCF Done:  E(UB3LYP) =  -721.319086553     A.U. after   25 cycles

 The electronic state is 2-A.
 Alpha  occ. eigenvalues --  -19.05005 -19.02502 -18.95206 -14.18033 -14.16733
 Alpha  occ. eigenvalues --  -10.14179 -10.11983 -10.07910 -10.06245 -10.05505
 Alpha  occ. eigenvalues --  -10.05287 -10.05110 -10.04262 -10.03916 -10.03555
 Alpha  occ. eigenvalues --   -0.99173  -0.96325  -0.86750  -0.80189  -0.78764
 Alpha  occ. eigenvalues --   -0.69031  -0.65073  -0.60953  -0.57751  -0.53941
 Alpha  occ. eigenvalues --   -0.50162  -0.47683  -0.46641  -0.43238  -0.39367
 Alpha  occ. eigenvalues --   -0.36603  -0.36159  -0.34583  -0.33687  -0.33260
 Alpha  occ. eigenvalues --   -0.32578  -0.30763  -0.29322  -0.29030  -0.27052
 Alpha  occ. eigenvalues --   -0.26395  -0.25519  -0.25024  -0.24760  -0.22303
 Alpha  occ. eigenvalues --   -0.19197  -0.18412  -0.16727  -0.14944  -0.13774
 Alpha  occ. eigenvalues --   -0.13480  -0.12245  -0.10068   0.04285
 Alpha virt. eigenvalues --    0.08895   0.09337   0.09634   0.10344   0.10795
 Alpha virt. eigenvalues --    0.11725   0.12007   0.12386   0.13051   0.14339
 Alpha virt. eigenvalues --    0.14553   0.15227   0.16385   0.16507   0.17130

  Beta  occ. eigenvalues --  -19.04724 -19.02425 -18.94969 -14.18069 -14.16781
  Beta  occ. eigenvalues --  -10.13959 -10.11961 -10.07481 -10.06127 -10.05213
  Beta  occ. eigenvalues --  -10.05081 -10.05016 -10.04207 -10.03982 -10.03565
  Beta  occ. eigenvalues --   -0.98733  -0.96057  -0.86383  -0.80010  -0.78639
  Beta  occ. eigenvalues --   -0.68639  -0.64597  -0.60583  -0.57652  -0.53388
  Beta  occ. eigenvalues --   -0.49844  -0.47444  -0.46418  -0.42938  -0.39165
  Beta  occ. eigenvalues --   -0.36429  -0.35741  -0.34223  -0.33352  -0.32563
  Beta  occ. eigenvalues --   -0.32426  -0.29950  -0.29050  -0.28587  -0.26947
  Beta  occ. eigenvalues --   -0.26177  -0.25161  -0.24824  -0.24379  -0.22132
  Beta  occ. eigenvalues --   -0.18472  -0.17422  -0.16614  -0.13975  -0.13190
  Beta  occ. eigenvalues --   -0.12987  -0.12042  -0.08755
  Beta virt. eigenvalues --    0.08870   0.09310   0.09624   0.10024   0.10484
  Beta virt. eigenvalues --    0.11115   0.11949   0.12404   0.13107   0.14123
  Beta virt. eigenvalues --    0.14416   0.14614   0.15245   0.16394   0.16542

 Mulliken charges and spin densities:
               1          2
     1  C   -0.705469  -0.021893
     2  C    0.470552   0.085580
     3  C    0.243446   0.088091
     4  C   -0.610127   0.063475
     5  N   -0.069967  -0.035573
     6  C   -0.376665   0.223396
     7  C    0.193988  -0.069483
     8  C   -0.468561   0.275803
     9  C   -0.122273   0.116447
    10  N   -0.106660  -0.021394
    11  C    0.233294   0.034708
    12  O   -0.028326   0.045689
    13  C   -0.331919   0.123314
    14  O   -0.396151   0.076747
    15  O   -0.167014   0.014185
    16  H    0.198695   0.006882
    17  H    0.118036   0.016534
    18  H    0.110476  -0.001291
    19  H    0.167660  -0.004777
    20  H    0.121331  -0.017650
    21  H    0.114841   0.004223
    22  H    0.159002  -0.002589
    23  H    0.251811  -0.000426
 Sum of Mulliken charges =  -1.00000   1.00000

 Dipole moment (field-independent basis, Debye):
    X=              0.7636    Y=             -0.5845    Z=              2.1242  Tot=              2.3317
 Quadrupole moment (field-independent basis, Debye-Ang):
   XX=           -126.1397   YY=            -95.8518   ZZ=            -95.5854
   XY=              4.6214   XZ=             -5.7325   YZ=             -0.7214

 Summary of Natural Population Analysis:

                                       Natural Population
                Natural  -----------------------------------------------
    Atom  No    Charge         Core      Valence    Rydberg      Total
 -----------------------------------------------------------------------
      C    1   -0.30343      0.99964     2.29885    0.00494     3.30343
      C    2    0.06226      0.99949     1.93033    0.00792     2.93774
      C    3   -0.06113      0.99945     2.05364    0.00804     3.06113
      C    4    0.06534      0.99956     1.92084    0.01426     2.93466
      N    5   -0.25902      0.99972     2.74647    0.01283     3.75902
      C    6    0.07351      0.99960     1.91123    0.01566     2.92649
      C    7   -0.14662      0.99952     2.13880    0.00831     3.14662
      C    8    0.24200      0.99943     1.74504    0.01354     2.75800
      C    9   -0.01341      0.99941     2.00041    0.01359     3.01341
      N   10   -0.24449      0.99970     2.73472    0.01007     3.74449
      C   11    0.16177      0.99966     1.81875    0.01981     2.83823
      O   12   -0.21796      0.99987     3.20921    0.00888     4.21796
      C   13    0.41182      0.99966     1.56420    0.02432     2.58818
      O   14   -0.31172      0.99987     3.30278    0.00907     4.31172
      O   15   -0.34024      0.99988     3.33414    0.00622     4.34024
      H   16    0.12254      0.00000     0.37640    0.00106     0.37746
      H   17    0.10580      0.00000     0.39311    0.00109     0.39420
      H   18    0.09132      0.00000     0.40764    0.00104     0.40868
      H   19    0.08438      0.00000     0.41414    0.00148     0.41562
      H   20    0.07591      0.00000     0.42274    0.00136     0.42409
      H   21    0.09269      0.00000     0.40608    0.00123     0.40731
      H   22    0.08007      0.00000     0.41881    0.00112     0.41993
      H   23    0.22860      0.00000     0.26813    0.00327     0.27140
 =======================================================================
   * Total *    0.00000     14.99445    37.81646    0.18908    53.00000

 Normal termination of Gaussian 16 at Thu Dec 10 16:57:08 2020.
