 Gaussian 16, Revision A.03,

 -----------------------------------------------------------
 # opt freq B3LYP/6-31G(d) empiricaldispersion=gd3bj scf=xqc
 -----------------------------------------------------------

 -------------------------------
 CID_133496270_JID_9593_neutraal
 -------------------------------
 Symbolic Z-matrix:
 Charge =  0 Multiplicity = 1

 SCF Done:  E(RB3LYP) =  -896.710353274     A.U. after   16 cycles
 SCF Done:  E(RB3LYP) =  -896.718021398     A.U. after   15 cycles
 SCF Done:  E(RB3LYP) =  -896.719772503     A.U. after   15 cycles
 SCF Done:  E(RB3LYP) =  -896.719435667     A.U. after   14 cycles
 SCF Done:  E(RB3LYP) =  -896.720392972     A.U. after   15 cycles
 SCF Done:  E(RB3LYP) =  -896.722769770     A.U. after   14 cycles
 SCF Done:  E(RB3LYP) =  -896.722859613     A.U. after   13 cycles
 SCF Done:  E(RB3LYP) =  -896.723206581     A.U. after   14 cycles
 SCF Done:  E(RB3LYP) =  -896.723380739     A.U. after   13 cycles
 SCF Done:  E(RB3LYP) =  -896.723447982     A.U. after   13 cycles
 SCF Done:  E(RB3LYP) =  -896.723491859     A.U. after    8 cycles
 SCF Done:  E(RB3LYP) =  -896.723492714     A.U. after    9 cycles
 SCF Done:  E(RB3LYP) =  -896.723492785     A.U. after    8 cycles
 SCF Done:  E(RB3LYP) =  -896.723492825     A.U. after    8 cycles
 SCF Done:  E(RB3LYP) =  -896.723492857     A.U. after    8 cycles
 SCF Done:  E(RB3LYP) =  -896.723492863     A.U. after    7 cycles
 Optimization completed.
    -- Stationary point found.
 Normal termination of Gaussian 16 at Thu Dec 17 20:26:02 2020.

 --------------------------------------------------------------------
 #N Geom=AllCheck Guess=TCheck SCRF=Check GenChk RB3LYP/6-31G(d) Freq
 --------------------------------------------------------------------

 Structure from the checkpoint file:  "JID_9593.chk"
 -------------------------------
 CID_133496270_JID_9593_neutraal
 -------------------------------
 Charge =  0 Multiplicity = 1

 SCF Done:  E(RB3LYP) =  -896.723492863     A.U. after    1 cycles

  Exact polarizability: 242.661  10.074 146.432 -16.132  19.903 132.790
 Approx polarizability: 358.481   7.445 230.495 -39.079  57.509 220.148

                      1                      2                      3
                      A                      A                      A
 Frequencies --     25.1720                27.6190                45.5675
 Red. masses --      7.3064                 8.3144                 4.0840
 Frc consts  --      0.0027                 0.0037                 0.0050
 IR Inten    --      0.6452                 0.3167                 0.0649

                      4                      5                      6
                      A                      A                      A
 Frequencies --     54.3887                75.6986                87.5070
 Red. masses --      3.8239                 4.0092                 5.0997
 Frc consts  --      0.0067                 0.0135                 0.0230
 IR Inten    --      1.2116                 1.0460                 1.0762

                      7                      8                      9
                      A                      A                      A
 Frequencies --    118.3921               136.3091               178.1414
 Red. masses --      4.0341                 3.0096                 2.4707
 Frc consts  --      0.0333                 0.0329                 0.0462
 IR Inten    --      3.5678                 5.1787                 5.0512

                     10                     11                     12
                      A                      A                      A
 Frequencies --    201.1149               216.0831               240.7313
 Red. masses --      4.4776                 2.5650                 1.1841
 Frc consts  --      0.1067                 0.0706                 0.0404
 IR Inten    --      4.7222                 0.3623                 0.2583

                     13                     14                     15
                      A                      A                      A
 Frequencies --    250.5734               271.1262               287.7583
 Red. masses --      2.9237                 1.3201                 3.2696
 Frc consts  --      0.1082                 0.0572                 0.1595
 IR Inten    --      9.1201                90.7707                21.2289

                     16                     17                     18
                      A                      A                      A
 Frequencies --    293.1333               335.0816               348.7736
 Red. masses --      4.6436                 3.2363                 2.6609
 Frc consts  --      0.2351                 0.2141                 0.1907
 IR Inten    --      2.9544                 8.3352                 1.1092

                     19                     20                     21
                      A                      A                      A
 Frequencies --    373.6872               392.0593               449.4672
 Red. masses --      4.9819                 4.4793                 2.6876
 Frc consts  --      0.4099                 0.4057                 0.3199
 IR Inten    --      1.8348                 3.4421                 9.3625

                     22                     23                     24
                      A                      A                      A
 Frequencies --    470.7618               495.0085               517.6796
 Red. masses --      3.0638                 2.8724                 2.8516
 Frc consts  --      0.4000                 0.4147                 0.4503
 IR Inten    --      0.8728                17.2462                20.9612

                     25                     26                     27
                      A                      A                      A
 Frequencies --    534.3461               559.6974               572.9103
 Red. masses --      1.5576                 2.4767                 3.3508
 Frc consts  --      0.2620                 0.4571                 0.6480
 IR Inten    --     45.8314                 0.9977                 4.5273

                     28                     29                     30
                      A                      A                      A
 Frequencies --    597.9281               603.1047               630.9538
 Red. masses --      2.7192                 4.0399                 4.6762
 Frc consts  --      0.5728                 0.8658                 1.0968
 IR Inten    --      4.9225                 9.0241                 6.1748

                     31                     32                     33
                      A                      A                      A
 Frequencies --    720.3236               725.1036               747.1380
 Red. masses --      3.3063                 3.5997                 6.2942
 Frc consts  --      1.0108                 1.1151                 2.0701
 IR Inten    --     12.5050                 5.3098                 1.9697

                     34                     35                     36
                      A                      A                      A
 Frequencies --    772.2790               783.9098               846.4840
 Red. masses --      6.3603                 3.7403                 2.4873
 Frc consts  --      2.2350                 1.3542                 1.0501
 IR Inten    --     21.4883                 3.5329                13.3071

                     37                     38                     39
                      A                      A                      A
 Frequencies --    853.1231               861.9537               864.4083
 Red. masses --      2.6933                 1.8432                 1.6096
 Frc consts  --      1.1549                 0.8069                 0.7086
 IR Inten    --     11.2922                13.2947                 7.0368

                     40                     41                     42
                      A                      A                      A
 Frequencies --    897.4206               926.3994               931.1392
 Red. masses --      2.3101                 1.9187                 2.1643
 Frc consts  --      1.0962                 0.9702                 1.1056
 IR Inten    --     16.6856                 5.3507                 0.3702

                     43                     44                     45
                      A                      A                      A
 Frequencies --    956.9509               974.6195               985.7975
 Red. masses --      2.0036                 2.9934                 1.4076
 Frc consts  --      1.0811                 1.6753                 0.8060
 IR Inten    --      3.5154                 4.7674                 3.5440

                     46                     47                     48
                      A                      A                      A
 Frequencies --   1030.8868              1035.2793              1050.2516
 Red. masses --      1.8348                 1.8514                 1.5452
 Frc consts  --      1.1488                 1.1691                 1.0042
 IR Inten    --      2.9879                 7.7763                 6.3069

                     49                     50                     51
                      A                      A                      A
 Frequencies --   1055.1950              1073.1149              1085.1801
 Red. masses --      1.6238                 1.5421                 3.2958
 Frc consts  --      1.0652                 1.0463                 2.2867
 IR Inten    --     16.1670                 4.0539                97.7641

                     52                     53                     54
                      A                      A                      A
 Frequencies --   1095.6841              1128.0253              1145.5142
 Red. masses --      2.5336                 3.7409                 2.8514
 Frc consts  --      1.7921                 2.8045                 2.2045
 IR Inten    --     30.1694                21.2450                 1.8607

                     55                     56                     57
                      A                      A                      A
 Frequencies --   1158.2519              1180.6151              1208.3528
 Red. masses --      3.1123                 1.5268                 1.4025
 Frc consts  --      2.4600                 1.2539                 1.2065
 IR Inten    --     81.3377                 0.4192                 0.7137

                     58                     59                     60
                      A                      A                      A
 Frequencies --   1222.9371              1227.7041              1253.4132
 Red. masses --      1.4131                 1.9456                 1.3531
 Frc consts  --      1.2452                 1.7278                 1.2525
 IR Inten    --      0.8047                 7.3187                10.4915

                     61                     62                     63
                      A                      A                      A
 Frequencies --   1267.2309              1290.2800              1317.1243
 Red. masses --      1.4546                 2.9462                 1.3615
 Frc consts  --      1.3762                 2.8898                 1.3916
 IR Inten    --      9.0727                34.1853               134.4913

                     64                     65                     66
                      A                      A                      A
 Frequencies --   1319.2420              1335.3055              1350.7352
 Red. masses --      1.2547                 1.3017                 1.2980
 Frc consts  --      1.2866                 1.3675                 1.3952
 IR Inten    --      7.1399                 1.0051                 0.3403

                     67                     68                     69
                      A                      A                      A
 Frequencies --   1364.0567              1371.4341              1373.1218
 Red. masses --      1.3099                 3.3821                 1.7156
 Frc consts  --      1.4360                 3.7479                 1.9059
 IR Inten    --      0.0785               437.6015                93.5361

                     70                     71                     72
                      A                      A                      A
 Frequencies --   1378.6473              1391.2199              1406.7920
 Red. masses --      1.3535                 3.0206                 1.2836
 Frc consts  --      1.5157                 3.4446                 1.4967
 IR Inten    --     24.8978               311.7226                 8.3783

                     73                     74                     75
                      A                      A                      A
 Frequencies --   1412.6420              1423.1609              1432.0546
 Red. masses --      1.5830                 1.6244                 1.2593
 Frc consts  --      1.8612                 1.9384                 1.5216
 IR Inten    --      9.5760                 9.1218                28.6906

                     76                     77                     78
                      A                      A                      A
 Frequencies --   1443.2630              1472.4175              1494.0556
 Red. masses --      1.2272                 2.0478                 1.7084
 Frc consts  --      1.5061                 2.6158                 2.2469
 IR Inten    --      8.2674                18.0214                16.5614

                     79                     80                     81
                      A                      A                      A
 Frequencies --   1502.3552              1509.2053              1517.9931
 Red. masses --      1.0461                 1.0933                 1.4599
 Frc consts  --      1.3911                 1.4671                 1.9821
 IR Inten    --      4.8545                 2.1142                59.9014

                     82                     83                     84
                      A                      A                      A
 Frequencies --   1524.0545              1527.1395              1535.7003
 Red. masses --      1.1161                 1.0909                 1.0937
 Frc consts  --      1.5274                 1.4990                 1.5197
 IR Inten    --      0.8473                 3.1999                 6.9385

                     85                     86                     87
                      A                      A                      A
 Frequencies --   1543.8129              1582.0525              1596.8173
 Red. masses --      1.1085                 5.3469                 2.7056
 Frc consts  --      1.5566                 7.8848                 4.0647
 IR Inten    --      7.4689                52.6460               140.5534

                     88                     89                     90
                      A                      A                      A
 Frequencies --   1628.8692              1666.0331              3012.3312
 Red. masses --      7.8082                 6.7138                 1.0831
 Frc consts  --     12.2060                10.9795                 5.7907
 IR Inten    --    341.2227               436.7855                20.5371

                     91                     92                     93
                      A                      A                      A
 Frequencies --   3028.5697              3045.2347              3051.1463
 Red. masses --      1.0689                 1.0701                 1.0633
 Frc consts  --      5.7764                 5.8465                 5.8323
 IR Inten    --     39.9157                 6.2751                38.3518

                     94                     95                     96
                      A                      A                      A
 Frequencies --   3054.5537              3070.7606              3081.9722
 Red. masses --      1.0632                 1.0365                 1.0682
 Frc consts  --      5.8445                 5.7583                 5.9780
 IR Inten    --     39.4704                12.3179                20.4508

                     97                     98                     99
                      A                      A                      A
 Frequencies --   3084.4323              3100.7067              3104.3501
 Red. masses --      1.0814                 1.0981                 1.0956
 Frc consts  --      6.0614                 6.2206                 6.2205
 IR Inten    --     28.2076                 3.8551                72.2500

                    100                    101                    102
                      A                      A                      A
 Frequencies --   3107.8821              3108.2057              3126.1805
 Red. masses --      1.0976                 1.1001                 1.1048
 Frc consts  --      6.2465                 6.2617                 6.3615
 IR Inten    --     13.2800                63.3310                51.3963

                    103                    104                    105
                      A                      A                      A
 Frequencies --   3145.0465              3145.8462              3229.9369
 Red. masses --      1.1017                 1.1015                 1.0911
 Frc consts  --      6.4204                 6.4225                 6.7067
 IR Inten    --     10.6369                 9.7127                 0.3155

                    106                    107                    108
                      A                      A                      A
 Frequencies --   3261.9913              3605.6758              3759.8438
 Red. masses --      1.0888                 1.0762                 1.0662
 Frc consts  --      6.8261                 8.2437                 8.8806
 IR Inten    --      2.8500                53.5566                 6.5027

 - Thermochemistry -
 -------------------
 Temperature   298.150 Kelvin.  Pressure   1.00000 Atm.
 Atom     1 has atomic number  6 and mass  12.00000

 Molecular mass:   265.14264 amu.
 Principal axes and moments of inertia in atomic units:
                           1         2         3
     Eigenvalues --  2770.226089114.827059965.98473
           X            0.99999   0.00208  -0.00254
           Y           -0.00205   0.99993   0.01128
           Z            0.00257  -0.01128   0.99993
 This molecule is an asymmetric top.
 Rotational symmetry number  1.
 Warning -- assumption of classical behavior for rotation
           may cause significant error
 Rotational temperatures (Kelvin)      0.03127     0.00950     0.00869
 Rotational constants (GHZ):           0.65148     0.19800     0.18109
 Zero-point vibrational energy     845100.2 (Joules/Mol)
                                  201.98379 (Kcal/Mol)
 Warning -- explicit consideration of  29 degrees of freedom as
           vibrations may cause significant error
 Vibrational temperatures:     36.22    39.74    65.56    78.25   108.91
          (Kelvin)            125.90   170.34   196.12   256.31   289.36
                              310.90   346.36   360.52   390.09   414.02
                              421.75   482.11   501.81   537.65   564.09
                              646.68   677.32   712.21   744.83   768.80
                              805.28   824.29   860.29   867.73   907.80
                             1036.39  1043.26  1074.97  1111.14  1127.87
                             1217.90  1227.45  1240.16  1243.69  1291.19
                             1332.88  1339.70  1376.84  1402.26  1418.34
                             1483.22  1489.54  1511.08  1518.19  1543.97
                             1561.33  1576.45  1622.98  1648.14  1666.47
                             1698.64  1738.55  1759.53  1766.39  1803.38
                             1823.26  1856.43  1895.05  1898.09  1921.21
                             1943.41  1962.57  1973.19  1975.62  1983.57
                             2001.66  2024.06  2032.48  2047.61  2060.41
                             2076.53  2118.48  2149.61  2161.55  2171.41
                             2184.05  2192.77  2197.21  2209.53  2221.20
                             2276.22  2297.46  2343.58  2397.05  4334.07
                             4357.44  4381.41  4389.92  4394.82  4418.14
                             4434.27  4437.81  4461.23  4466.47  4471.55
                             4472.01  4497.88  4525.02  4526.17  4647.16
                             4693.28  5187.76  5409.58

 Zero-point correction=                           0.321882 (Hartree/Particle)
 Thermal correction to Energy=                    0.339967
 Thermal correction to Enthalpy=                  0.340911
 Thermal correction to Gibbs Free Energy=         0.274063
 Sum of electronic and zero-point Energies=           -896.401611
 Sum of electronic and thermal Energies=              -896.383526
 Sum of electronic and thermal Enthalpies=            -896.382582
 Sum of electronic and thermal Free Energies=         -896.449430

                     E (Thermal)             CV                S
                      KCal/Mol        Cal/Mol-Kelvin    Cal/Mol-Kelvin
 Total                  213.333             68.854            140.693
 Electronic               0.000              0.000              0.000
 Translational            0.889              2.981             42.625
 Rotational               0.889              2.981             33.886
 Vibrational            211.555             62.892             64.182
 Vibration     1          0.593              1.985              6.178
 Vibration     2          0.593              1.984              5.993
 Vibration     3          0.595              1.979              5.001
 Vibration     4          0.596              1.976              4.651
 Vibration     5          0.599              1.965              3.999
 Vibration     6          0.601              1.958              3.715
 Vibration     7          0.609              1.934              3.126
 Vibration     8          0.614              1.917              2.855
 Vibration     9          0.629              1.869              2.348
 Vibration    10          0.638              1.838              2.123
 Vibration    11          0.645              1.817              1.992
 Vibration    12          0.658              1.778              1.797
 Vibration    13          0.663              1.762              1.727
 Vibration    14          0.675              1.726              1.589
 Vibration    15          0.685              1.696              1.487
 Vibration    16          0.688              1.687              1.456
 Vibration    17          0.716              1.605              1.235
 Vibration    18          0.726              1.578              1.172
 Vibration    19          0.745              1.526              1.065
 Vibration    20          0.759              1.487              0.992
 Vibration    21          0.808              1.362              0.797
 Vibration    22          0.828              1.315              0.735
 Vibration    23          0.851              1.261              0.671
 Vibration    24          0.873              1.211              0.615
 Vibration    25          0.889              1.174              0.578
 Vibration    26          0.915              1.119              0.524
 Vibration    27          0.929              1.090              0.499
 Vibration    28          0.956              1.036              0.453
 Vibration    29          0.961              1.025              0.444

                           ! Non-Optimized Parameters !
 Normal termination of Gaussian 16 at Thu Dec 17 20:45:42 2020.

 ----------------------------------------------------------------------
 # B3LYP/6-311++G(d,p) empiricaldispersion=gd3bj scf=xqc pop=npa geom=c
 heck
 ----------------------------------------------------------------------

 ---------------------------------------
 CID_133496270_JID_9593_Energie_neutraal
 ---------------------------------------
 Structure from the checkpoint file:  "JID_9593.chk"
 Charge =  0 Multiplicity = 1

 SCF Done:  E(RB3LYP) =  -896.984066200     A.U. after   15 cycles
 Normal termination of Gaussian 16 at Thu Dec 17 20:54:39 2020.

 ----------------------------------------------------------------------
 # B3LYP/6-311++G(d,p) empiricaldispersion=gd3bj scf=xqc pop=npa geom=c
 heck
 ----------------------------------------------------------------------

 -------------------------------------
 CID_133496270_JID_9593_Energie_kation
 -------------------------------------
 Structure from the checkpoint file:  "JID_9593.chk"
 Charge =  1 Multiplicity = 2

 SCF Done:  E(UB3LYP) =  -896.684136628     A.U. after   27 cycles
 Normal termination of Gaussian 16 at Thu Dec 17 21:16:39 2020.
 Gaussian 16:  ES64L-G16RevA.03 25-Dec-2016

 ----------------------------------------------------------------------
 # B3LYP/6-311++G(d,p) empiricaldispersion=gd3bj scf=xqc pop=npa geom=c
 heck
 ----------------------------------------------------------------------

 ------------------------------------
 CID_133496270_JID_9593_Energie_anion
 ------------------------------------
 Structure from the checkpoint file:  "JID_9593.chk"
 Charge = -1 Multiplicity = 2

                         Standard orientation:
 ---------------------------------------------------------------------
 Center     Atomic      Atomic             Coordinates (Angstroms)
 Number     Number       Type             X           Y           Z
 ---------------------------------------------------------------------
      1          6           0       -2.282565    1.742208    1.487290
      2          6           0       -1.923687    0.691771    0.470688
      3          6           0       -0.600428    0.586926    0.061207
      4          6           0       -0.208778   -0.382197   -0.887243
      5          7           0       -1.097298   -1.249847   -1.430722
      6          6           0       -2.358686   -1.160012   -1.042398
      7          6           0       -2.829965   -0.222968   -0.113167
      8          7           0       -4.245254   -0.251055    0.198903
      9          8           0       -4.942682   -1.106611   -0.355377
     10          8           0       -4.690881    0.577957    1.000290
     11          7           0        1.066864   -0.557519   -1.327603
     12          6           0        2.258462    0.263970   -1.130537
     13          6           0        2.072659    1.760849   -1.510576
     14          6           0        2.934451    2.545923   -0.508572
     15          6           0        2.825766    1.727707    0.786072
     16          6           0        2.902113    0.264347    0.310059
     17          6           0        2.374048   -0.767041    1.309675
     18          6           0        2.726676   -2.218083    0.969593
     19          8           0        4.131469   -2.464105    0.967310
     20          1           0       -2.735583    1.295370    2.375802
     21          1           0       -1.385794    2.296346    1.779749
     22          1           0       -3.023470    2.440390    1.089585
     23          1           0        0.130620    1.255011    0.492519
     24          1           0       -3.062401   -1.859509   -1.480675
     25          1           0        1.121492   -1.292086   -2.020548
     26          1           0        2.984509   -0.182016   -1.814967
     27          1           0        2.341173    1.947482   -2.554556
     28          1           0        1.020515    2.039427   -1.400820
     29          1           0        2.606891    3.584084   -0.394663
     30          1           0        3.979917    2.568901   -0.842330
     31          1           0        1.867133    1.924326    1.284123
     32          1           0        3.610912    1.961873    1.512191
     33          1           0        3.970482    0.051891    0.162718
     34          1           0        2.804740   -0.538931    2.292948
     35          1           0        1.286330   -0.681610    1.411749
     36          1           0        2.316100   -2.880755    1.737486
     37          1           0        2.271903   -2.509231    0.011902
     38          1           0        4.500686   -2.070350    0.163402
 ---------------------------------------------------------------------

 SCF Done:  E(UB3LYP) =  -897.012525203     A.U. after   32 cycles

 The electronic state is 2-A.
 Alpha  occ. eigenvalues --  -19.04054 -18.94981 -18.94943 -14.33037 -14.21888
 Alpha  occ. eigenvalues --  -14.18222 -10.12722 -10.12584 -10.11747 -10.09181
 Alpha  occ. eigenvalues --  -10.09088 -10.08805 -10.08300 -10.07883 -10.07603
 Alpha  occ. eigenvalues --  -10.07416 -10.07013 -10.05456 -10.05191  -1.03048
 Alpha  occ. eigenvalues --   -0.94006  -0.86038  -0.85713  -0.79908  -0.75048
 Alpha  occ. eigenvalues --   -0.70464  -0.68401  -0.65560  -0.62462  -0.61433
 Alpha  occ. eigenvalues --   -0.59629  -0.55126  -0.52861  -0.50787  -0.49436
 Alpha  occ. eigenvalues --   -0.47952  -0.45215  -0.42716  -0.42430  -0.40704
 Alpha  occ. eigenvalues --   -0.39661  -0.37791  -0.36843  -0.36323  -0.35799
 Alpha  occ. eigenvalues --   -0.35240  -0.34785  -0.32393  -0.32280  -0.31896
 Alpha  occ. eigenvalues --   -0.31071  -0.30485  -0.29552  -0.29095  -0.27645
 Alpha  occ. eigenvalues --   -0.26908  -0.26551  -0.26328  -0.26073  -0.25224
 Alpha  occ. eigenvalues --   -0.24568  -0.24077  -0.23451  -0.19775  -0.18611
 Alpha  occ. eigenvalues --   -0.15909  -0.15379  -0.14066  -0.12521  -0.10693
 Alpha  occ. eigenvalues --   -0.09970   0.02730
 Alpha virt. eigenvalues --    0.04262   0.06364   0.07419   0.07902   0.08787
 Alpha virt. eigenvalues --    0.09274   0.09478   0.09749   0.10262   0.10981
 Alpha virt. eigenvalues --    0.11935   0.12192   0.12425   0.13054   0.13090

  Beta  occ. eigenvalues --  -19.04038 -18.94532 -18.94495 -14.32406 -14.21816
  Beta  occ. eigenvalues --  -14.18333 -10.12715 -10.12579 -10.11487 -10.09163
  Beta  occ. eigenvalues --  -10.09085 -10.08804 -10.08293 -10.07884 -10.07428
  Beta  occ. eigenvalues --  -10.07251 -10.07027 -10.05542 -10.05202  -1.02035
  Beta  occ. eigenvalues --   -0.93969  -0.85836  -0.84868  -0.79829  -0.74992
  Beta  occ. eigenvalues --   -0.70264  -0.68388  -0.65250  -0.62311  -0.61326
  Beta  occ. eigenvalues --   -0.59569  -0.54813  -0.52624  -0.50677  -0.49293
  Beta  occ. eigenvalues --   -0.47641  -0.45011  -0.42671  -0.42334  -0.40653
  Beta  occ. eigenvalues --   -0.39589  -0.37378  -0.36663  -0.36225  -0.35118
  Beta  occ. eigenvalues --   -0.34754  -0.33322  -0.32296  -0.32037  -0.31329
  Beta  occ. eigenvalues --   -0.31028  -0.29888  -0.29377  -0.28884  -0.27522
  Beta  occ. eigenvalues --   -0.26891  -0.26412  -0.26238  -0.25997  -0.25177
  Beta  occ. eigenvalues --   -0.24519  -0.24044  -0.23420  -0.19624  -0.18034
  Beta  occ. eigenvalues --   -0.15610  -0.15373  -0.12186  -0.10993  -0.10248
  Beta  occ. eigenvalues --   -0.09332
  Beta virt. eigenvalues --    0.04670   0.06380   0.07350   0.07887   0.08828
  Beta virt. eigenvalues --    0.09154   0.09379   0.09730   0.09815   0.10266
  Beta virt. eigenvalues --    0.11032   0.11962   0.12106   0.12427   0.13040

 Mulliken charges and spin densities:
               1          2
     1  C   -0.582878  -0.014073
     2  C    1.298814   0.127315
     3  C    0.577379  -0.091034
     4  C   -1.180890   0.126134
     5  N   -0.014344  -0.057349
     6  C    0.264089   0.151128
     7  C   -1.331188  -0.045184
     8  N   -0.284702   0.200261
     9  O   -0.173260   0.161718
    10  O   -0.185516   0.183368
    11  N   -0.278195   0.046891
    12  C    0.058963  -0.015947
    13  C   -0.251905  -0.007734
    14  C   -0.413786  -0.150555
    15  C   -0.393864   0.088721
    16  C    0.205422  -0.342032
    17  C   -0.080122   0.146729
    18  C   -0.490983  -0.130191
    19  O   -0.229754  -0.012359
    20  H    0.198114   0.006993
    21  H    0.076838  -0.000329
    22  H    0.191376   0.006531
    23  H   -0.082367   0.000654
    24  H    0.265049  -0.009603
    25  H    0.307897   0.003622
    26  H   -0.134114   0.314996
    27  H    0.161147  -0.004995
    28  H    0.160089   0.006175
    29  H    0.159879  -0.005406
    30  H    0.032937   0.086347
    31  H    0.147155   0.008392
    32  H    0.162409   0.002524
    33  H    0.088645   0.055064
    34  H    0.159044   0.003668
    35  H    0.154528  -0.005305
    36  H    0.169932   0.005668
    37  H    0.129673   0.048156
    38  H    0.138489   0.111041
 Sum of Mulliken charges =  -1.00000   1.00000

 Dipole moment (field-independent basis, Debye):
    X=             12.1045    Y=              3.9673    Z=             -0.3374  Tot=             12.7425
 Quadrupole moment (field-independent basis, Debye-Ang):
   XX=           -225.6705   YY=           -133.7516   ZZ=           -127.6695
   XY=              2.6483   XZ=             -1.1316   YZ=             -0.5550

 Summary of Natural Population Analysis:

                                       Natural Population
                Natural  -----------------------------------------------
    Atom  No    Charge         Core      Valence    Rydberg      Total
 -----------------------------------------------------------------------
      C    1   -0.29441      0.99963     2.28976    0.00502     3.29441
      C    2    0.05069      0.99950     1.94169    0.00812     2.94931
      C    3   -0.18786      0.99948     2.18190    0.00648     3.18786
      C    4    0.24406      0.99953     1.74021    0.01620     2.75594
      N    5   -0.28630      0.99968     2.77739    0.00922     3.78630
      C    6    0.07971      0.99957     1.90729    0.01343     2.92029
      C    7   -0.00950      0.99937     1.99592    0.01421     3.00950
      N    8    0.30675      0.99971     2.16755    0.02599     3.19325
      O    9   -0.20472      0.99990     3.19726    0.00756     4.20472
      O   10   -0.19622      0.99990     3.18844    0.00788     4.19622
      N   11   -0.30821      0.99965     2.79644    0.01213     3.80821
      C   12   -0.00437      0.99958     1.99028    0.01451     3.00437
      C   13   -0.19827      0.99962     2.18957    0.00907     3.19827
      C   14   -0.19348      0.99964     2.18597    0.00787     3.19348
      C   15   -0.18907      0.99962     2.18033    0.00912     3.18907
      C   16   -0.11566      0.99958     2.10333    0.01275     3.11566
      C   17   -0.20657      0.99960     2.19746    0.00951     3.20657
      C   18   -0.01116      0.99960     1.99868    0.01288     3.01116
      O   19   -0.37222      0.99990     3.36620    0.00612     4.37222
      H   20    0.11548      0.00000     0.38338    0.00114     0.38452
      H   21    0.08602      0.00000     0.41292    0.00106     0.41398
      H   22    0.11546      0.00000     0.38341    0.00113     0.38454
      H   23    0.09647      0.00000     0.40191    0.00162     0.40353
      H   24    0.10371      0.00000     0.39504    0.00125     0.39629
      H   25    0.19289      0.00000     0.30420    0.00291     0.30711
      H   26    0.09733      0.00000     0.40158    0.00109     0.40267
      H   27    0.09889      0.00000     0.40035    0.00076     0.40111
      H   28    0.10747      0.00000     0.39150    0.00103     0.39253
      H   29    0.09893      0.00000     0.40031    0.00075     0.40107
      H   30    0.09243      0.00000     0.40658    0.00099     0.40757
      H   31    0.09596      0.00000     0.40308    0.00096     0.40404
      H   32    0.09859      0.00000     0.40064    0.00077     0.40141
      H   33    0.09330      0.00000     0.40511    0.00159     0.40670
      H   34    0.09724      0.00000     0.40176    0.00100     0.40276
      H   35    0.11194      0.00000     0.38705    0.00101     0.38806
      H   36    0.08491      0.00000     0.41413    0.00096     0.41509
      H   37    0.08345      0.00000     0.41518    0.00136     0.41655
      H   38    0.22633      0.00000     0.27088    0.00280     0.27367
 =======================================================================
   * Total *   -0.00000     18.99306    51.77467    0.23227    71.00000

 Normal termination of Gaussian 16 at Thu Dec 17 21:41:23 2020.
