 Gaussian 16, Revision A.03,

 -----------------------------------------------------------
 # opt freq B3LYP/6-31G(d) empiricaldispersion=gd3bj scf=xqc
 -----------------------------------------------------------

 ------------------------------
 CID_70522920_JID_7016_neutraal
 ------------------------------
 Symbolic Z-matrix:
 Charge =  0 Multiplicity = 1

 SCF Done:  E(RB3LYP) =  -745.078192044     A.U. after   15 cycles
 SCF Done:  E(RB3LYP) =  -745.055300273     A.U. after   14 cycles
 SCF Done:  E(RB3LYP) =  -745.084938887     A.U. after   13 cycles
 SCF Done:  E(RB3LYP) =  -745.087604944     A.U. after   14 cycles
 SCF Done:  E(RB3LYP) =  -745.088515414     A.U. after   12 cycles
 SCF Done:  E(RB3LYP) =  -745.088749216     A.U. after   12 cycles
 SCF Done:  E(RB3LYP) =  -745.089142411     A.U. after   12 cycles
 SCF Done:  E(RB3LYP) =  -745.089419868     A.U. after   12 cycles
 SCF Done:  E(RB3LYP) =  -745.089506306     A.U. after   11 cycles
 SCF Done:  E(RB3LYP) =  -745.089558917     A.U. after   10 cycles
 SCF Done:  E(RB3LYP) =  -745.089606269     A.U. after    8 cycles
 SCF Done:  E(RB3LYP) =  -745.089606373     A.U. after    8 cycles
 SCF Done:  E(RB3LYP) =  -745.089606436     A.U. after    8 cycles
 SCF Done:  E(RB3LYP) =  -745.089606457     A.U. after    7 cycles
 SCF Done:  E(RB3LYP) =  -745.089606467     A.U. after    7 cycles
 Optimization completed.
    -- Stationary point found.
 Normal termination of Gaussian 16 at Fri Dec 11 11:57:04 2020.

 --------------------------------------------------------------------
 #N Geom=AllCheck Guess=TCheck SCRF=Check GenChk RB3LYP/6-31G(d) Freq
 --------------------------------------------------------------------

 Structure from the checkpoint file:  "JID_7016.chk"
 ------------------------------
 CID_70522920_JID_7016_neutraal
 ------------------------------
 Charge =  0 Multiplicity = 1

 SCF Done:  E(RB3LYP) =  -745.089606467     A.U. after    1 cycles

  Exact polarizability: 208.438 -31.069 126.275  -7.625 -12.406 127.409
 Approx polarizability: 288.054 -64.192 200.108 -20.932 -22.391 211.958

                      1                      2                      3
                      A                      A                      A
 Frequencies --     20.3283                37.1434                50.7659
 Red. masses --      4.4715                 2.8111                 4.0971
 Frc consts  --      0.0011                 0.0023                 0.0062
 IR Inten    --      0.2160                 0.1778                 0.5698

                      4                      5                      6
                      A                      A                      A
 Frequencies --     62.9496                89.7791                93.9955
 Red. masses --      3.9291                 4.0714                 2.8982
 Frc consts  --      0.0092                 0.0193                 0.0151
 IR Inten    --      0.1011                 0.3448                 0.3194

                      7                      8                      9
                      A                      A                      A
 Frequencies --    106.9315               127.7908               159.5114
 Red. masses --      7.6772                 3.1000                 2.6767
 Frc consts  --      0.0517                 0.0298                 0.0401
 IR Inten    --      0.9328                 0.8319                 1.4429

                     10                     11                     12
                      A                      A                      A
 Frequencies --    193.8206               238.5745               258.3462
 Red. masses --      3.8280                 4.6355                 2.8398
 Frc consts  --      0.0847                 0.1555                 0.1117
 IR Inten    --      1.0520                15.8397                 9.2844

                     13                     14                     15
                      A                      A                      A
 Frequencies --    282.0628               303.9960               332.5191
 Red. masses --      3.0254                 2.5625                 2.9682
 Frc consts  --      0.1418                 0.1395                 0.1934
 IR Inten    --      3.3672                 4.1287                 3.0147

                     16                     17                     18
                      A                      A                      A
 Frequencies --    337.5423               378.4048               420.5041
 Red. masses --      1.6978                 4.5784                 2.8870
 Frc consts  --      0.1140                 0.3863                 0.3008
 IR Inten    --    122.8797                 6.2542                 2.5977

                     19                     20                     21
                      A                      A                      A
 Frequencies --    422.7371               427.4817               446.5265
 Red. masses --      3.1021                 2.5643                 1.8469
 Frc consts  --      0.3266                 0.2761                 0.2170
 IR Inten    --      1.6045                14.0215                 3.7300

                     22                     23                     24
                      A                      A                      A
 Frequencies --    525.7140               562.0543               570.3181
 Red. masses --      3.0174                 1.9486                 2.9278
 Frc consts  --      0.4913                 0.3627                 0.5611
 IR Inten    --      8.6026                14.8613                12.4516

                     25                     26                     27
                      A                      A                      A
 Frequencies --    602.7663               634.4315               668.5267
 Red. masses --      2.9838                 6.3371                 2.6977
 Frc consts  --      0.6387                 1.5028                 0.7104
 IR Inten    --     18.3071                 1.5214                46.5749

                     28                     29                     30
                      A                      A                      A
 Frequencies --    703.7790               710.0120               763.6383
 Red. masses --      2.5407                 2.2402                 4.1364
 Frc consts  --      0.7414                 0.6654                 1.4212
 IR Inten    --     24.1506                10.2257                17.4184

                     31                     32                     33
                      A                      A                      A
 Frequencies --    765.3550               819.2796               836.6731
 Red. masses --      2.0527                 3.6874                 1.4823
 Frc consts  --      0.7085                 1.4583                 0.6113
 IR Inten    --     44.9120                31.9598                61.6252

                     34                     35                     36
                      A                      A                      A
 Frequencies --    842.2720               862.2983               896.6168
 Red. masses --      1.4214                 3.8610                 1.4443
 Frc consts  --      0.5941                 1.6915                 0.6841
 IR Inten    --     37.9639                11.1882                14.5175

                     37                     38                     39
                      A                      A                      A
 Frequencies --    917.6334               939.4535               950.4827
 Red. masses --      1.5120                 1.6619                 1.7967
 Frc consts  --      0.7501                 0.8642                 0.9563
 IR Inten    --      9.2071                 9.7599                13.5480

                     40                     41                     42
                      A                      A                      A
 Frequencies --    955.2061               958.0279               961.6083
 Red. masses --      1.6996                 1.3146                 1.3823
 Frc consts  --      0.9137                 0.7109                 0.7531
 IR Inten    --     12.7648                 0.7117                31.4395

                     43                     44                     45
                      A                      A                      A
 Frequencies --    974.1319               982.3725              1014.4874
 Red. masses --      2.0136                 1.2227                 5.7616
 Frc consts  --      1.1258                 0.6952                 3.4937
 IR Inten    --     36.7868                 1.9801                 0.5281

                     46                     47                     48
                      A                      A                      A
 Frequencies --   1025.2878              1026.4198              1056.8467
 Red. masses --      1.1041                 1.0844                 2.1478
 Frc consts  --      0.6838                 0.6731                 1.4134
 IR Inten    --     14.8725                26.4125                 3.5513

                     49                     50                     51
                      A                      A                      A
 Frequencies --   1074.7770              1112.8971              1141.8018
 Red. masses --      2.1142                 1.5434                 1.9806
 Frc consts  --      1.4389                 1.1263                 1.5214
 IR Inten    --     21.5623                 3.1835                13.7184

                     52                     53                     54
                      A                      A                      A
 Frequencies --   1190.6639              1191.8144              1202.9316
 Red. masses --      1.2656                 1.8631                 2.9561
 Frc consts  --      1.0571                 1.5592                 2.5203
 IR Inten    --      0.8287                 2.2585                 2.4382

                     55                     56                     57
                      A                      A                      A
 Frequencies --   1206.9552              1229.6065              1292.9640
 Red. masses --      1.2565                 2.8249                 1.4849
 Frc consts  --      1.0784                 2.5164                 1.4626
 IR Inten    --      6.8196                35.1325                72.7783

                     58                     59                     60
                      A                      A                      A
 Frequencies --   1308.4972              1331.5368              1339.1072
 Red. masses --      2.3223                 1.3373                 1.5662
 Frc consts  --      2.3427                 1.3970                 1.6547
 IR Inten    --     44.5571                36.9824                85.6253

                     61                     62                     63
                      A                      A                      A
 Frequencies --   1342.1078              1355.9937              1376.1488
 Red. masses --      1.2750                 1.6494                 3.8105
 Frc consts  --      1.3531                 1.7868                 4.2518
 IR Inten    --      3.0256                 8.3200                12.7005

                     64                     65                     66
                      A                      A                      A
 Frequencies --   1387.9999              1401.6494              1461.6140
 Red. masses --      1.3040                 1.2851                 1.8139
 Frc consts  --      1.4801                 1.4875                 2.2832
 IR Inten    --     36.2247                 9.0050               184.4751

                     67                     68                     69
                      A                      A                      A
 Frequencies --   1472.9484              1481.1296              1482.2935
 Red. masses --      1.1684                 1.2407                 1.7189
 Frc consts  --      1.4935                 1.6036                 2.2252
 IR Inten    --      4.8002                29.2648                10.3784

                     70                     71                     72
                      A                      A                      A
 Frequencies --   1487.8574              1506.4272              1532.3911
 Red. masses --      1.4891                 1.1259                 1.1928
 Frc consts  --      1.9422                 1.5054                 1.6502
 IR Inten    --     35.8960                32.8277                72.5336

                     73                     74                     75
                      A                      A                      A
 Frequencies --   1545.1450              1553.3777              1649.6340
 Red. masses --      1.6382                 2.3046                 5.0663
 Frc consts  --      2.3043                 3.2764                 8.1230
 IR Inten    --      3.8378                50.6844                 3.0197

                     76                     77                     78
                      A                      A                      A
 Frequencies --   1669.9772              1730.3791              1733.0847
 Red. masses --      5.6274                 4.4726                 4.4505
 Frc consts  --      9.2465                 7.8903                 7.8758
 IR Inten    --     81.5236                 1.2824                 2.8465

                     79                     80                     81
                      A                      A                      A
 Frequencies --   1772.4135              3030.5968              3060.0788
 Red. masses --      6.9760                 1.0726                 1.0700
 Frc consts  --     12.9118                 5.8041                 5.9036
 IR Inten    --    343.6147                23.8137                33.9343

                     82                     83                     84
                      A                      A                      A
 Frequencies --   3139.7620              3146.4207              3154.9671
 Red. masses --      1.0885                 1.0827                 1.0821
 Frc consts  --      6.3222                 6.3150                 6.3460
 IR Inten    --      3.6091                 8.0162                13.3256

                     85                     86                     87
                      A                      A                      A
 Frequencies --   3162.3069              3170.1094              3172.4843
 Red. masses --      1.0866                 1.0751                 1.0693
 Frc consts  --      6.4022                 6.3659                 6.3408
 IR Inten    --     11.8115                12.4504                 5.7943

                     88                     89                     90
                      A                      A                      A
 Frequencies --   3179.8080              3187.8878              3196.7320
 Red. masses --      1.0854                 1.0877                 1.0928
 Frc consts  --      6.4663                 6.5128                 6.5797
 IR Inten    --      8.4789                 2.7210                29.3697

                     91                     92                     93
                      A                      A                      A
 Frequencies --   3212.2900              3227.0950              3251.2540
 Red. masses --      1.0961                 1.0921                 1.1162
 Frc consts  --      6.6639                 6.7007                 6.9516
 IR Inten    --     27.1572                 2.7633                12.4419

                     94                     95                     96
                      A                      A                      A
 Frequencies --   3251.5447              3534.9180              3561.2628
 Red. masses --      1.1163                 1.0763                 1.0757
 Frc consts  --      6.9537                 7.9240                 8.0383
 IR Inten    --     11.5766                16.5139                22.5111

 - Thermochemistry -
 -------------------
 Temperature   298.150 Kelvin.  Pressure   1.00000 Atm.
 Atom     1 has atomic number  6 and mass  12.00000

 Molecular mass:   231.13716 amu.
 Principal axes and moments of inertia in atomic units:
                           1         2         3
     Eigenvalues --  1922.080806636.922117281.41861
           X            0.99999  -0.00083   0.00428
           Y            0.00100   0.99923  -0.03931
           Z           -0.00425   0.03931   0.99922
 This molecule is an asymmetric top.
 Rotational symmetry number  1.
 Warning -- assumption of classical behavior for rotation
           may cause significant error
 Rotational temperatures (Kelvin)      0.04506     0.01305     0.01190
 Rotational constants (GHZ):           0.93895     0.27192     0.24786
 Zero-point vibrational energy     750794.6 (Joules/Mol)
                                  179.44420 (Kcal/Mol)
 Warning -- explicit consideration of  25 degrees of freedom as
           vibrations may cause significant error
 Vibrational temperatures:     29.25    53.44    73.04    90.57   129.17
          (Kelvin)            135.24   153.85   183.86   229.50   278.86
                              343.26   371.70   405.83   437.38   478.42
                              485.65   544.44   605.01   608.22   615.05
                              642.45   756.39   808.67   820.56   867.25
                              912.81   961.86  1012.58  1021.55  1098.71
                             1101.18  1178.76  1203.79  1211.84  1240.65
                             1290.03  1320.27  1351.66  1367.53  1374.33
                             1378.39  1383.54  1401.56  1413.41  1459.62
                             1475.16  1476.79  1520.57  1546.36  1601.21
                             1642.80  1713.10  1714.76  1730.75  1736.54
                             1769.13  1860.29  1882.64  1915.78  1926.68
                             1930.99  1950.97  1979.97  1997.02  2016.66
                             2102.94  2119.24  2131.02  2132.69  2140.69
                             2167.41  2204.77  2223.12  2234.96  2373.46
                             2402.72  2489.63  2493.52  2550.11  4360.35
                             4402.77  4517.42  4527.00  4539.29  4549.85
                             4561.08  4564.50  4575.03  4586.66  4599.38
                             4621.77  4643.07  4677.83  4678.25  5085.96
                             5123.86

 Zero-point correction=                           0.285963 (Hartree/Particle)
 Thermal correction to Energy=                    0.302841
 Thermal correction to Enthalpy=                  0.303785
 Thermal correction to Gibbs Free Energy=         0.239832
 Sum of electronic and zero-point Energies=           -744.803644
 Sum of electronic and thermal Energies=              -744.786765
 Sum of electronic and thermal Enthalpies=            -744.785821
 Sum of electronic and thermal Free Energies=         -744.849774

                     E (Thermal)             CV                S
                      KCal/Mol        Cal/Mol-Kelvin    Cal/Mol-Kelvin
 Total                  190.036             63.479            134.600
 Electronic               0.000              0.000              0.000
 Translational            0.889              2.981             42.215
 Rotational               0.889              2.981             32.896
 Vibrational            188.258             57.517             59.489
 Vibration     1          0.593              1.986              6.602
 Vibration     2          0.594              1.982              5.406
 Vibration     3          0.595              1.977              4.787
 Vibration     4          0.597              1.972              4.363
 Vibration     5          0.602              1.956              3.665
 Vibration     6          0.603              1.953              3.575
 Vibration     7          0.606              1.944              3.324
 Vibration     8          0.611              1.925              2.979
 Vibration     9          0.621              1.892              2.556
 Vibration    10          0.635              1.848              2.191
 Vibration    11          0.657              1.782              1.813
 Vibration    12          0.667              1.749              1.673
 Vibration    13          0.681              1.707              1.521
 Vibration    14          0.695              1.666              1.395
 Vibration    15          0.714              1.611              1.248
 Vibration    16          0.718              1.601              1.224
 Vibration    17          0.749              1.516              1.046
 Vibration    18          0.783              1.426              0.890
 Vibration    19          0.785              1.421              0.883
 Vibration    20          0.789              1.410              0.867
 Vibration    21          0.806              1.369              0.806
 Vibration    22          0.881              1.193              0.597
 Vibration    23          0.918              1.113              0.520
 Vibration    24          0.926              1.095              0.504
 Vibration    25          0.961              1.026              0.445

 Optimization completed.
    -- Stationary point found.
 Normal termination of Gaussian 16 at Fri Dec 11 12:10:28 2020.

 ----------------------------------------------------------------------
 # B3LYP/6-311++G(d,p) empiricaldispersion=gd3bj scf=xqc pop=npa geom=c
 heck
 ----------------------------------------------------------------------

 --------------------------------------
 CID_70522920_JID_7016_Energie_neutraal
 --------------------------------------
 Structure from the checkpoint file:  "JID_7016.chk"
 Charge =  0 Multiplicity = 1

 SCF Done:  E(RB3LYP) =  -745.303948452     A.U. after   15 cycles
 Normal termination of Gaussian 16 at Fri Dec 11 12:15:51 2020.

 ----------------------------------------------------------------------
 # B3LYP/6-311++G(d,p) empiricaldispersion=gd3bj scf=xqc pop=npa geom=c
 heck
 ----------------------------------------------------------------------

 ------------------------------------
 CID_70522920_JID_7016_Energie_kation
 ------------------------------------
 Structure from the checkpoint file:  "JID_7016.chk"
 Charge =  1 Multiplicity = 2

 SCF Done:  E(UB3LYP) =  -745.023062482     A.U. after   27 cycles
 Normal termination of Gaussian 16 at Fri Dec 11 12:28:20 2020.
 Gaussian 16:  ES64L-G16RevA.03 25-Dec-2016

 ----------------------------------------------------------------------
 # B3LYP/6-311++G(d,p) empiricaldispersion=gd3bj scf=xqc pop=npa geom=c
 heck
 ----------------------------------------------------------------------

 -----------------------------------
 CID_70522920_JID_7016_Energie_anion
 -----------------------------------
 Structure from the checkpoint file:  "JID_7016.chk"
 Charge = -1 Multiplicity = 2

                         Standard orientation:
 ---------------------------------------------------------------------
 Center     Atomic      Atomic             Coordinates (Angstroms)
 Number     Number       Type             X           Y           Z
 ---------------------------------------------------------------------
      1          6           0        4.729754   -0.324335    1.213820
      2          6           0        3.850377    0.650669    0.988392
      3          6           0        3.123127    0.824355   -0.323940
      4          7           0        1.747304    0.300346   -0.302994
      5          6           0        0.765310    1.098808    0.438097
      6          6           0        0.143844    2.184240   -0.404131
      7          6           0       -1.102550    2.630741   -0.252361
      8          6           0        1.620707   -1.039955   -0.574868
      9          8           0        2.576885   -1.775612   -0.800785
     10          7           0        0.324925   -1.592166   -0.616341
     11          7           0       -0.757160   -0.914901   -1.187134
     12          6           0       -1.894309   -0.659601   -0.414084
     13          6           0       -2.939063    0.086299   -0.984871
     14          6           0       -4.094742    0.342768   -0.255879
     15          6           0       -4.236956   -0.140062    1.048431
     16          6           0       -3.204129   -0.892098    1.607043
     17          6           0       -2.037875   -1.157187    0.888017
     18          1           0        4.963624   -1.057405    0.447190
     19          1           0        5.229082   -0.432154    2.173319
     20          1           0        3.615217    1.360200    1.781583
     21          1           0        3.059403    1.886277   -0.589799
     22          1           0        3.656459    0.303919   -1.119238
     23          1           0       -0.001544    0.452114    0.867371
     24          1           0        1.291295    1.549062    1.291441
     25          1           0        0.795047    2.630026   -1.156092
     26          1           0       -1.495255    3.439105   -0.863012
     27          1           0       -1.778102    2.206360    0.484357
     28          1           0        0.412155   -2.535125   -0.984121
     29          1           0       -0.508097   -0.204693   -1.866202
     30          1           0       -2.832796    0.464510   -1.998103
     31          1           0       -4.890911    0.925621   -0.711067
     32          1           0       -5.141352    0.061239    1.614157
     33          1           0       -3.299738   -1.280441    2.617491
     34          1           0       -1.236032   -1.744534    1.320286
 ---------------------------------------------------------------------

 SCF Done:  E(UB3LYP) =  -745.290904480     A.U. after   33 cycles
 SCF Done:  E(UB3LYP) =  -745.290904480     a.u. after    1 cycles

 The electronic state is 2-A.
 Alpha  occ. eigenvalues --  -18.99967 -14.27543 -14.27150 -14.25663 -10.21072
 Alpha  occ. eigenvalues --  -10.12817 -10.12135 -10.11893 -10.08772 -10.08723
 Alpha  occ. eigenvalues --  -10.08465 -10.08111 -10.08089 -10.08081 -10.07939
 Alpha  occ. eigenvalues --  -10.07757 -10.06891  -0.97379  -0.91203  -0.85304
 Alpha  occ. eigenvalues --   -0.78052  -0.73264  -0.70645  -0.68782  -0.65918
 Alpha  occ. eigenvalues --   -0.63740  -0.61252  -0.60306  -0.53321  -0.51900
 Alpha  occ. eigenvalues --   -0.50335  -0.48169  -0.46487  -0.45720  -0.45078
 Alpha  occ. eigenvalues --   -0.42825  -0.39893  -0.39322  -0.38322  -0.36470
 Alpha  occ. eigenvalues --   -0.35848  -0.35553  -0.34983  -0.34367  -0.33395
 Alpha  occ. eigenvalues --   -0.33140  -0.32193  -0.31192  -0.29502  -0.28363
 Alpha  occ. eigenvalues --   -0.27461  -0.27129  -0.26037  -0.25768  -0.23693
 Alpha  occ. eigenvalues --   -0.19890  -0.19022  -0.17851  -0.17400  -0.16294
 Alpha  occ. eigenvalues --   -0.15966  -0.12314   0.04211
 Alpha virt. eigenvalues --    0.06005   0.06450   0.07215   0.07336   0.07671
 Alpha virt. eigenvalues --    0.07702   0.08163   0.08529   0.08968   0.09025
 Alpha virt. eigenvalues --    0.09296   0.09967   0.10684   0.11043   0.11592

  Beta  occ. eigenvalues --  -18.99965 -14.27540 -14.27131 -14.25661 -10.21072
  Beta  occ. eigenvalues --  -10.12819 -10.12121 -10.11881 -10.08745 -10.08715
  Beta  occ. eigenvalues --  -10.08451 -10.08098 -10.08075 -10.08062 -10.07916
  Beta  occ. eigenvalues --  -10.07747 -10.06857  -0.97374  -0.91188  -0.85293
  Beta  occ. eigenvalues --   -0.78037  -0.73240  -0.70594  -0.68729  -0.65893
  Beta  occ. eigenvalues --   -0.63712  -0.61209  -0.60271  -0.53288  -0.51874
  Beta  occ. eigenvalues --   -0.50296  -0.48093  -0.46429  -0.45678  -0.45043
  Beta  occ. eigenvalues --   -0.42799  -0.39854  -0.39289  -0.38276  -0.36426
  Beta  occ. eigenvalues --   -0.35802  -0.35529  -0.34950  -0.34338  -0.33368
  Beta  occ. eigenvalues --   -0.33114  -0.32164  -0.31166  -0.29477  -0.28341
  Beta  occ. eigenvalues --   -0.27428  -0.27090  -0.25992  -0.25740  -0.23676
  Beta  occ. eigenvalues --   -0.19868  -0.18959  -0.17783  -0.17357  -0.16266
  Beta  occ. eigenvalues --   -0.15930  -0.12299
  Beta virt. eigenvalues --    0.06323   0.06759   0.07250   0.07295   0.07632
  Beta virt. eigenvalues --    0.07902   0.08192   0.08555   0.08674   0.09221
  Beta virt. eigenvalues --    0.09411   0.09783   0.10316   0.10914   0.11230

 Mulliken charges and spin densities:
               1          2
     1  C    0.523382  -0.990452
     2  C   -0.074823   0.358611
     3  C   -0.146250  -0.229955
     4  N    0.241531  -0.063348
     5  C   -0.722561  -0.131927
     6  C   -1.004330   1.509953
     7  C    2.166582  -2.936115
     8  C    0.469098  -0.405232
     9  O   -0.340934  -0.002221
    10  N   -0.401387   0.034003
    11  N    0.137246  -0.024890
    12  C    0.455082  -0.762730
    13  C   -0.768068   0.708519
    14  C    0.155174  -0.389384
    15  C    1.074202  -1.485946
    16  C   -1.039090   0.810517
    17  C    0.543981  -0.351175
    18  H    0.178189  -0.029225
    19  H   -0.046848   0.157345
    20  H   -0.442806   0.599028
    21  H   -0.088521   0.230994
    22  H   -0.161801   0.367396
    23  H   -0.044322   0.227337
    24  H   -0.162809   0.337430
    25  H   -0.592293   0.802102
    26  H   -0.514799   0.672672
    27  H    0.205676  -0.059203
    28  H    0.302740   0.018679
    29  H    0.019954   0.236798
    30  H   -0.310455   0.468813
    31  H   -0.527544   0.718558
    32  H   -0.105085   0.252749
    33  H   -0.225280   0.399291
    34  H    0.247169  -0.048993
 Sum of Mulliken charges =  -1.00000   1.00000

 Dipole moment (field-independent basis, Debye):
    X=              2.0221    Y=             -4.9704    Z=              1.3604  Tot=              5.5358
 Quadrupole moment (field-independent basis, Debye-Ang):
   XX=           -189.1526   YY=           -151.1263   ZZ=           -141.8804
   XY=              5.6403   XZ=             -2.9502   YZ=              4.5812

 Summary of Natural Population Analysis:

                                       Natural Population
                Natural  -----------------------------------------------
    Atom  No    Charge         Core      Valence    Rydberg      Total
 -----------------------------------------------------------------------
      C    1   -0.17297      0.99956     2.16679    0.00662     3.17297
      C    2   -0.09830      0.99956     2.08852    0.01023     3.09830
      C    3   -0.10314      0.99958     2.09052    0.01304     3.10314
      N    4   -0.25902      0.99964     2.74784    0.01154     3.75902
      C    5   -0.10877      0.99956     2.09691    0.01230     3.10877
      C    6   -0.10169      0.99955     2.09084    0.01131     3.10169
      C    7   -0.17788      0.99956     2.16962    0.00870     3.17788
      C    8    0.40814      0.99965     1.56991    0.02229     2.59186
      O    9   -0.33682      0.99988     3.33178    0.00516     4.33682
      N   10   -0.24496      0.99967     2.73352    0.01177     3.74496
      N   11   -0.22639      0.99967     2.71453    0.01219     3.72639
      C   12    0.08109      0.99948     1.90640    0.01303     2.91891
      C   13   -0.11771      0.99952     2.10712    0.01107     3.11771
      C   14   -0.09240      0.99956     2.08223    0.01061     3.09240
      C   15   -0.12279      0.99956     2.11281    0.01042     3.12279
      C   16   -0.09385      0.99957     2.08368    0.01060     3.09385
      C   17   -0.13522      0.99951     2.12781    0.00790     3.13522
      H   18    0.09786      0.00000     0.40099    0.00115     0.40214
      H   19    0.09093      0.00000     0.40809    0.00098     0.40907
      H   20    0.09342      0.00000     0.40516    0.00142     0.40658
      H   21    0.10086      0.00000     0.39741    0.00172     0.39914
      H   22    0.11210      0.00000     0.38669    0.00121     0.38790
      H   23    0.11156      0.00000     0.38586    0.00258     0.38844
      H   24    0.10317      0.00000     0.39512    0.00171     0.39683
      H   25    0.09713      0.00000     0.40039    0.00248     0.40287
      H   26    0.09862      0.00000     0.39971    0.00166     0.40138
      H   27    0.09611      0.00000     0.40203    0.00185     0.40389
      H   28    0.18974      0.00000     0.30814    0.00212     0.31026
      H   29    0.18895      0.00000     0.30725    0.00380     0.31105
      H   30    0.10652      0.00000     0.39180    0.00169     0.39348
      H   31    0.10354      0.00000     0.39494    0.00151     0.39646
      H   32    0.10187      0.00000     0.39711    0.00102     0.39813
      H   33    0.09995      0.00000     0.39924    0.00081     0.40005
      H   34    0.11033      0.00000     0.38850    0.00117     0.38967
 =======================================================================
   * Total *    0.00000     16.99306    44.78927    0.21766    62.00000

 Normal termination of Gaussian 16 at Fri Dec 11 12:48:25 2020.
