 Gaussian 16, Revision A.03,

 -----------------------------------------------------------
 # opt freq B3LYP/6-31G(d) empiricaldispersion=gd3bj scf=xqc
 -----------------------------------------------------------

 -------------------------------
 CID_106222252_JID_3731_neutraal
 -------------------------------
 Symbolic Z-matrix:
 Charge =  0 Multiplicity = 1

 SCF Done:  E(RB3LYP) =  -574.187772442     A.U. after   15 cycles
 SCF Done:  E(RB3LYP) =  -574.191534877     A.U. after   13 cycles
 SCF Done:  E(RB3LYP) =  -574.192244075     A.U. after   13 cycles
 SCF Done:  E(RB3LYP) =  -574.191133459     A.U. after   12 cycles
 SCF Done:  E(RB3LYP) =  -574.192260568     A.U. after   13 cycles
 SCF Done:  E(RB3LYP) =  -574.193704765     A.U. after   12 cycles
 SCF Done:  E(RB3LYP) =  -574.193803141     A.U. after   12 cycles
 SCF Done:  E(RB3LYP) =  -574.193438585     A.U. after   12 cycles
 SCF Done:  E(RB3LYP) =  -574.194027841     A.U. after   12 cycles
 SCF Done:  E(RB3LYP) =  -574.194046072     A.U. after   11 cycles
 SCF Done:  E(RB3LYP) =  -574.194108892     A.U. after   11 cycles
 SCF Done:  E(RB3LYP) =  -574.194113433     A.U. after   10 cycles
 SCF Done:  E(RB3LYP) =  -574.194114058     A.U. after    9 cycles
 SCF Done:  E(RB3LYP) =  -574.194114130     A.U. after    8 cycles
 Optimization completed.
    -- Stationary point found.
 Normal termination of Gaussian 16 at Mon Dec 14 16:32:28 2020.

 --------------------------------------------------------------------
 #N Geom=AllCheck Guess=TCheck SCRF=Check GenChk RB3LYP/6-31G(d) Freq
 --------------------------------------------------------------------

 Structure from the checkpoint file:  "JID_3731.chk"
 -------------------------------
 CID_106222252_JID_3731_neutraal
 -------------------------------
 Charge =  0 Multiplicity = 1

 SCF Done:  E(RB3LYP) =  -574.194114130     A.U. after    1 cycles

  Exact polarizability: 128.027   9.357  99.989  -7.125  -0.683 104.072
 Approx polarizability: 158.140  15.519 152.435 -14.282   3.343 175.448

                      1                      2                      3
                      A                      A                      A
 Frequencies --     28.2492                46.1680                54.6858
 Red. masses --      4.6092                 4.3868                 6.0536
 Frc consts  --      0.0022                 0.0055                 0.0107
 IR Inten    --      0.2636                 1.4105                 2.4822

                      4                      5                      6
                      A                      A                      A
 Frequencies --     60.8219                89.5514               110.1071
 Red. masses --      3.9099                 2.3770                 5.1715
 Frc consts  --      0.0085                 0.0112                 0.0369
 IR Inten    --      1.4245                 0.7037                 0.3873

                      7                      8                      9
                      A                      A                      A
 Frequencies --    142.3033               167.5250               189.0153
 Red. masses --      4.7355                 3.3351                 2.7497
 Frc consts  --      0.0565                 0.0551                 0.0579
 IR Inten    --      7.3004                 1.5439                 1.2323

                     10                     11                     12
                      A                      A                      A
 Frequencies --    192.4637               245.2128               278.4023
 Red. masses --      2.8115                 1.8354                 2.2269
 Frc consts  --      0.0614                 0.0650                 0.1017
 IR Inten    --      3.1705                 1.2942                 4.0843

                     13                     14                     15
                      A                      A                      A
 Frequencies --    314.3643               353.5343               358.6890
 Red. masses --      2.7454                 2.8712                 3.0364
 Frc consts  --      0.1599                 0.2114                 0.2302
 IR Inten    --      0.7816                 2.8917                 1.9080

                     16                     17                     18
                      A                      A                      A
 Frequencies --    435.0105               450.2480               481.4140
 Red. masses --      3.7636                 4.8995                 5.5745
 Frc consts  --      0.4196                 0.5852                 0.7612
 IR Inten    --      9.0687                 2.6873                 5.0722

                     19                     20                     21
                      A                      A                      A
 Frequencies --    559.3315               574.1355               617.9656
 Red. masses --      4.1912                 3.5529                 1.2135
 Frc consts  --      0.7726                 0.6900                 0.2730
 IR Inten    --      2.5135                 0.3156                46.9319

                     22                     23                     24
                      A                      A                      A
 Frequencies --    628.3060               642.1925               658.6487
 Red. masses --      1.2309                 4.1497                 1.4460
 Frc consts  --      0.2863                 1.0083                 0.3696
 IR Inten    --     34.2750                19.5394                59.7922

                     25                     26                     27
                      A                      A                      A
 Frequencies --    739.1188               751.5637               781.2870
 Red. masses --      2.1430                 2.1919                 1.4466
 Frc consts  --      0.6898                 0.7294                 0.5203
 IR Inten    --     42.9795                22.8192                 5.0690

                     28                     29                     30
                      A                      A                      A
 Frequencies --    842.8305               853.4734               917.6557
 Red. masses --      2.2491                 2.7761                 2.1140
 Frc consts  --      0.9413                 1.1914                 1.0489
 IR Inten    --      7.2859                 1.2667                 5.4214

                     31                     32                     33
                      A                      A                      A
 Frequencies --    941.8037               973.9704               994.2817
 Red. masses --      2.5722                 2.0719                 2.0273
 Frc consts  --      1.3442                 1.1580                 1.1808
 IR Inten    --      1.2986                 2.7270                10.5550

                     34                     35                     36
                      A                      A                      A
 Frequencies --   1059.4004              1069.9454              1087.9139
 Red. masses --      2.6830                 2.0753                 2.3616
 Frc consts  --      1.7742                 1.3998                 1.6468
 IR Inten    --      1.2891                 2.2956                 7.3895

                     37                     38                     39
                      A                      A                      A
 Frequencies --   1120.1826              1137.9572              1152.6532
 Red. masses --      2.1368                 1.9566                 2.5360
 Frc consts  --      1.5798                 1.4928                 1.9851
 IR Inten    --     11.0013                 7.7995                 6.6081

                     40                     41                     42
                      A                      A                      A
 Frequencies --   1228.5509              1250.6573              1277.1857
 Red. masses --      1.1577                 1.3549                 1.3316
 Frc consts  --      1.0295                 1.2487                 1.2798
 IR Inten    --      3.0415                20.1955                15.0472

                     43                     44                     45
                      A                      A                      A
 Frequencies --   1299.8819              1324.2368              1365.1710
 Red. masses --      1.2428                 1.1909                 1.5258
 Frc consts  --      1.2373                 1.2304                 1.6754
 IR Inten    --      4.3634                18.5700                68.4065

                     46                     47                     48
                      A                      A                      A
 Frequencies --   1371.7408              1380.7995              1388.7245
 Red. masses --      1.2958                 1.4067                 1.4142
 Frc consts  --      1.4365                 1.5802                 1.6069
 IR Inten    --      2.1457                11.4473                34.3849

                     49                     50                     51
                      A                      A                      A
 Frequencies --   1403.4385              1436.4875              1446.1995
 Red. masses --      1.5516                 1.4228                 1.2351
 Frc consts  --      1.8006                 1.7298                 1.5220
 IR Inten    --     18.3403                28.8674                 2.7183

                     52                     53                     54
                      A                      A                      A
 Frequencies --   1504.7478              1512.7137              1514.3720
 Red. masses --      1.0906                 1.2665                 1.3743
 Frc consts  --      1.4550                 1.7075                 1.8570
 IR Inten    --      3.9122                15.7671                63.9043

                     55                     56                     57
                      A                      A                      A
 Frequencies --   1519.9809              1528.4716              1528.8116
 Red. masses --      1.0950                 1.1308                 1.0416
 Frc consts  --      1.4905                 1.5565                 1.4344
 IR Inten    --      1.6152                10.6513                 6.5945

                     58                     59                     60
                      A                      A                      A
 Frequencies --   1536.3582              1788.9350              2238.8922
 Red. masses --      1.0628                 7.9832                 5.9666
 Frc consts  --      1.4780                15.0527                17.6215
 IR Inten    --      2.9530               415.1817                 0.6080

                     61                     62                     63
                      A                      A                      A
 Frequencies --   2357.3520              3047.1603              3055.5336
 Red. masses --     12.6507                 1.0604                 1.0359
 Frc consts  --     41.4203                 5.8011                 5.6980
 IR Inten    --      9.1883                11.6192                20.6631

                     64                     65                     66
                      A                      A                      A
 Frequencies --   3059.7667              3071.0212              3080.8442
 Red. masses --      1.0622                 1.0614                 1.0976
 Frc consts  --      5.8592                 5.8977                 6.1380
 IR Inten    --     24.5748                15.3361                14.5427

                     67                     68                     69
                      A                      A                      A
 Frequencies --   3087.0826              3088.1036              3108.1662
 Red. masses --      1.0838                 1.0767                 1.0999
 Frc consts  --      6.0858                 6.0497                 6.2607
 IR Inten    --      0.4967                 4.1819                43.3164

                     70                     71                     72
                      A                      A                      A
 Frequencies --   3111.5413              3129.2813              3133.6576
 Red. masses --      1.1004                 1.1018                 1.1039
 Frc consts  --      6.2771                 6.3566                 6.3870
 IR Inten    --      9.1139                29.2808                28.1078

                     73                     74                     75
                      A                      A                      A
 Frequencies --   3171.8159              3494.0960              3574.3307
 Red. masses --      1.0956                 1.1602                 1.0753
 Frc consts  --      6.4940                 8.3454                 8.0945
 IR Inten    --      5.2358                61.2946                33.5567

 - Thermochemistry -
 -------------------
 Temperature   298.150 Kelvin.  Pressure   1.00000 Atm.
 Atom     1 has atomic number  6 and mass  12.00000

 Molecular mass:   178.11061 amu.
 Principal axes and moments of inertia in atomic units:
                           1         2         3
     Eigenvalues --  1440.557704312.278804403.66162
           X            0.99974   0.01123  -0.02009
           Y           -0.01582   0.96925  -0.24557
           Z            0.01671   0.24582   0.96917
 This molecule is an asymmetric top.
 Rotational symmetry number  1.
 Warning -- assumption of classical behavior for rotation
           may cause significant error
 Rotational temperatures (Kelvin)      0.06013     0.02009     0.01967
 Rotational constants (GHZ):           1.25281     0.41851     0.40983
 Zero-point vibrational energy     595252.8 (Joules/Mol)
                                  142.26883 (Kcal/Mol)
 Warning -- explicit consideration of  21 degrees of freedom as
           vibrations may cause significant error
 Vibrational temperatures:     40.64    66.43    78.68    87.51   128.84
          (Kelvin)            158.42   204.74   241.03   271.95   276.91
                              352.81   400.56   452.30   508.66   516.07
                              625.88   647.81   692.65   804.75   826.05
                              889.11   903.99   923.97   947.65  1063.43
                             1081.33  1124.10  1212.65  1227.96  1320.30
                             1355.05  1401.33  1430.55  1524.24  1539.41
                             1565.27  1611.69  1637.27  1658.41  1767.61
                             1799.42  1837.59  1870.24  1905.28  1964.18
                             1973.63  1986.66  1998.06  2019.23  2066.79
                             2080.76  2165.00  2176.46  2178.84  2186.91
                             2199.13  2199.62  2210.48  2573.88  3221.27
                             3391.70  4384.18  4396.23  4402.32  4418.51
                             4432.65  4441.62  4443.09  4471.96  4476.81
                             4502.34  4508.63  4563.54  5027.22  5142.66

 Zero-point correction=                           0.226720 (Hartree/Particle)
 Thermal correction to Energy=                    0.241437
 Thermal correction to Enthalpy=                  0.242381
 Thermal correction to Gibbs Free Energy=         0.183540
 Sum of electronic and zero-point Energies=           -573.967394
 Sum of electronic and thermal Energies=              -573.952677
 Sum of electronic and thermal Enthalpies=            -573.951733
 Sum of electronic and thermal Free Energies=         -574.010574

                     E (Thermal)             CV                S
                      KCal/Mol        Cal/Mol-Kelvin    Cal/Mol-Kelvin
 Total                  151.504             52.371            123.842
 Electronic               0.000              0.000              0.000
 Translational            0.889              2.981             41.439
 Rotational               0.889              2.981             31.681
 Vibrational            149.727             46.409             50.722
 Vibration     1          0.593              1.984              5.949
 Vibration     2          0.595              1.979              4.975
 Vibration     3          0.596              1.976              4.640
 Vibration     4          0.597              1.973              4.430
 Vibration     5          0.602              1.957              3.670
 Vibration     6          0.606              1.941              3.267
 Vibration     7          0.616              1.911              2.773
 Vibration     8          0.624              1.882              2.463
 Vibration     9          0.633              1.855              2.237
 Vibration    10          0.634              1.850              2.204
 Vibration    11          0.660              1.771              1.765
 Vibration    12          0.679              1.713              1.543
 Vibration    13          0.702              1.646              1.339
 Vibration    14          0.730              1.568              1.150
 Vibration    15          0.734              1.557              1.128
 Vibration    16          0.796              1.394              0.842
 Vibration    17          0.809              1.360              0.795
 Vibration    18          0.838              1.291              0.706
 Vibration    19          0.915              1.119              0.525
 Vibration    20          0.930              1.087              0.496
 Vibration    21          0.978              0.994              0.420

 Optimization completed.
    -- Stationary point found.
 Normal termination of Gaussian 16 at Mon Dec 14 16:38:58 2020.

 ----------------------------------------------------------------------
 # B3LYP/6-311++G(d,p) empiricaldispersion=gd3bj scf=xqc pop=npa geom=c
 heck
 ----------------------------------------------------------------------

 ---------------------------------------
 CID_106222252_JID_3731_Energie_neutraal
 ---------------------------------------
 Structure from the checkpoint file:  "JID_3731.chk"
 Charge =  0 Multiplicity = 1

 SCF Done:  E(RB3LYP) =  -574.365056873     A.U. after   15 cycles
 Normal termination of Gaussian 16 at Mon Dec 14 16:41:57 2020.

 ----------------------------------------------------------------------
 # B3LYP/6-311++G(d,p) empiricaldispersion=gd3bj scf=xqc pop=npa geom=c
 heck
 ----------------------------------------------------------------------

 -------------------------------------
 CID_106222252_JID_3731_Energie_kation
 -------------------------------------
 Structure from the checkpoint file:  "JID_3731.chk"
 Charge =  1 Multiplicity = 2

 SCF Done:  E(UB3LYP) =  -574.022286555     A.U. after   33 cycles
 SCF Done:  E(UB3LYP) =  -574.022286555     a.u. after    2 cycles
 Normal termination of Gaussian 16 at Mon Dec 14 17:00:06 2020.
 Gaussian 16:  ES64L-G16RevA.03 25-Dec-2016

 ----------------------------------------------------------------------
 # B3LYP/6-311++G(d,p) empiricaldispersion=gd3bj scf=xqc pop=npa geom=c
 heck
 ----------------------------------------------------------------------

 ------------------------------------
 CID_106222252_JID_3731_Energie_anion
 ------------------------------------
 Structure from the checkpoint file:  "JID_3731.chk"
 Charge = -1 Multiplicity = 2

                         Standard orientation:
 ---------------------------------------------------------------------
 Center     Atomic      Atomic             Coordinates (Angstroms)
 Number     Number       Type             X           Y           Z
 ---------------------------------------------------------------------
      1          6           0        3.494874    1.429592   -0.633052
      2          6           0        2.082649    0.874583   -0.818969
      3          6           0        1.910261   -0.536777   -0.200179
      4          6           0        2.131025   -0.522487    1.248367
      5          7           0        2.315787   -0.491523    2.394587
      6          6           0        0.581817   -1.200938   -0.634857
      7          8           0        0.610191   -2.034558   -1.529854
      8          7           0       -0.583359   -0.829161   -0.035896
      9          6           0       -0.889850    0.236348    0.911924
     10          6           0       -1.532768    1.468630    0.258008
     11          6           0       -2.704394    1.125796   -0.688156
     12          6           0       -3.675405    0.209844   -0.089569
     13          6           0       -4.429881   -0.579802    0.426456
     14          1           0        3.744299    1.527993    0.428751
     15          1           0        3.584174    2.417944   -1.095233
     16          1           0        4.239597    0.772342   -1.096069
     17          1           0        1.350512    1.558592   -0.378576
     18          1           0        1.842805    0.784737   -1.884319
     19          1           0        2.670090   -1.193052   -0.636980
     20          1           0       -1.381193   -1.339178   -0.399882
     21          1           0       -1.581112   -0.177908    1.652285
     22          1           0        0.012850    0.521747    1.450872
     23          1           0       -1.885011    2.129156    1.058905
     24          1           0       -0.787692    2.026129   -0.320912
     25          1           0       -3.203351    2.052252   -0.997732
     26          1           0       -2.304806    0.672293   -1.604373
     27          1           0       -5.119655   -1.260524    0.871422
 ---------------------------------------------------------------------

 SCF Done:  E(UB3LYP) =  -574.356345536     A.U. after   33 cycles
 SCF Done:  E(UB3LYP) =  -574.356345536     a.u. after    1 cycles

 The electronic state is 2-A.
 Alpha  occ. eigenvalues --  -19.00993 -14.25829 -14.23255 -10.20169 -10.14202
 Alpha  occ. eigenvalues --  -10.13264 -10.12579 -10.10598 -10.10062 -10.09164
 Alpha  occ. eigenvalues --  -10.08969 -10.07803 -10.07627  -0.96310  -0.84721
 Alpha  occ. eigenvalues --   -0.82987  -0.73973  -0.72386  -0.66491  -0.64660
 Alpha  occ. eigenvalues --   -0.61821  -0.54334  -0.53645  -0.51144  -0.46121
 Alpha  occ. eigenvalues --   -0.44851  -0.41969  -0.39292  -0.38442  -0.37850
 Alpha  occ. eigenvalues --   -0.36747  -0.35057  -0.34635  -0.33697  -0.32449
 Alpha  occ. eigenvalues --   -0.29506  -0.29215  -0.28794  -0.28718  -0.27783
 Alpha  occ. eigenvalues --   -0.27030  -0.26374  -0.25463  -0.24216  -0.19239
 Alpha  occ. eigenvalues --   -0.19024  -0.18092  -0.17489   0.04044
 Alpha virt. eigenvalues --    0.05931   0.06863   0.07810   0.08205   0.08314
 Alpha virt. eigenvalues --    0.08934   0.09494   0.09923   0.10494   0.10770
 Alpha virt. eigenvalues --    0.11337   0.11613   0.11982   0.12338   0.12744

  Beta  occ. eigenvalues --  -19.00990 -14.25820 -14.23236 -10.20161 -10.14195
  Beta  occ. eigenvalues --  -10.13264 -10.12571 -10.10560 -10.10029 -10.09164
  Beta  occ. eigenvalues --  -10.08931 -10.07772 -10.07587  -0.96301  -0.84705
  Beta  occ. eigenvalues --   -0.82961  -0.73937  -0.72333  -0.66452  -0.64606
  Beta  occ. eigenvalues --   -0.61770  -0.54263  -0.53541  -0.51099  -0.46098
  Beta  occ. eigenvalues --   -0.44790  -0.41938  -0.39252  -0.38387  -0.37814
  Beta  occ. eigenvalues --   -0.36703  -0.35015  -0.34605  -0.33674  -0.32404
  Beta  occ. eigenvalues --   -0.29455  -0.29166  -0.28742  -0.28662  -0.27744
  Beta  occ. eigenvalues --   -0.26987  -0.26334  -0.25436  -0.24167  -0.19184
  Beta  occ. eigenvalues --   -0.18985  -0.18082  -0.17471
  Beta virt. eigenvalues --    0.06329   0.06820   0.07688   0.08057   0.08565
  Beta virt. eigenvalues --    0.08705   0.09208   0.09912   0.10146   0.10714
  Beta virt. eigenvalues --    0.11036   0.11629   0.11886   0.12297   0.12561

 Mulliken charges and spin densities:
               1          2
     1  C    0.772105  -1.383994
     2  C   -0.417667   0.184519
     3  C   -0.008490   0.661413
     4  C    0.304993  -0.706202
     5  N   -0.357937   0.069144
     6  C    0.325401  -0.456184
     7  O   -0.327634   0.019036
     8  N   -0.158905  -0.057624
     9  C    0.000246  -0.286602
    10  C    0.243862  -0.435749
    11  C   -0.110010   0.099575
    12  C    4.240613  -3.162074
    13  C   -3.074714   1.352717
    14  H   -0.052241   0.221457
    15  H   -0.643507   0.809878
    16  H   -0.107794   0.240907
    17  H    0.709248  -0.594104
    18  H   -0.491393   0.701148
    19  H    0.171191   0.093759
    20  H    0.372588  -0.030815
    21  H    0.262337  -0.066144
    22  H   -0.200992   0.363374
    23  H   -0.294058   0.466581
    24  H   -0.926310   1.096011
    25  H   -0.602337   0.813160
    26  H    0.084711   0.119016
    27  H   -0.713305   0.867797
 Sum of Mulliken charges =  -1.00000   1.00000

 Dipole moment (field-independent basis, Debye):
    X=              1.1553    Y=             -4.6795    Z=              2.2332  Tot=              5.3123
 Quadrupole moment (field-independent basis, Debye-Ang):
   XX=           -153.7985   YY=           -131.2847   ZZ=           -121.6944
   XY=             -0.2474   XZ=             -0.2197   YZ=              4.4519

 Summary of Natural Population Analysis:

                                       Natural Population
                Natural  -----------------------------------------------
    Atom  No    Charge         Core      Valence    Rydberg      Total
 -----------------------------------------------------------------------
      C    1   -0.28732      0.99966     2.28176    0.00590     3.28732
      C    2   -0.18135      0.99962     2.17256    0.00916     3.18135
      C    3   -0.20196      0.99946     2.19257    0.00992     3.20196
      C    4    0.15858      0.99964     1.82361    0.01817     2.84142
      N    5   -0.17862      0.99979     2.66774    0.01110     3.67862
      C    6    0.35241      0.99965     1.62435    0.02359     2.64759
      O    7   -0.31819      0.99988     3.31246    0.00585     4.31819
      N    8   -0.31453      0.99966     2.80589    0.00898     3.81453
      C    9   -0.09451      0.99960     2.08437    0.01054     3.09451
      C   10   -0.18567      0.99962     2.17686    0.00918     3.18567
      C   11   -0.23764      0.99956     2.22681    0.01127     3.23764
      C   12   -0.00073      0.99937     1.99193    0.00942     3.00073
      C   13   -0.12613      0.99926     2.12336    0.00351     3.12613
      H   14    0.10076      0.00000     0.39826    0.00098     0.39924
      H   15    0.10910      0.00000     0.38903    0.00188     0.39090
      H   16    0.09666      0.00000     0.40216    0.00117     0.40334
      H   17    0.10174      0.00000     0.39536    0.00290     0.39826
      H   18    0.10741      0.00000     0.39076    0.00183     0.39259
      H   19    0.13271      0.00000     0.36575    0.00154     0.36729
      H   20    0.20057      0.00000     0.29733    0.00210     0.29943
      H   21    0.10216      0.00000     0.39652    0.00132     0.39784
      H   22    0.10768      0.00000     0.39026    0.00206     0.39232
      H   23    0.10312      0.00000     0.39519    0.00169     0.39688
      H   24    0.10436      0.00000     0.39255    0.00309     0.39564
      H   25    0.12287      0.00000     0.37376    0.00337     0.37713
      H   26    0.11446      0.00000     0.38371    0.00183     0.38554
      H   27    0.11209      0.00000     0.38640    0.00151     0.38791
 =======================================================================
   * Total *   -0.00000     12.99477    34.84134    0.16388    48.00000

 Normal termination of Gaussian 16 at Mon Dec 14 17:08:47 2020.
