 Gaussian 16, Revision A.03,

 -----------------------------------------------------------
 # opt freq B3LYP/6-31G(d) empiricaldispersion=gd3bj scf=xqc
 -----------------------------------------------------------

 -------------------------------
 CID_151968684_JID_3844_neutraal
 -------------------------------
 Symbolic Z-matrix:
 Charge =  0 Multiplicity = 1

 SCF Done:  E(RB3LYP) =  -601.211583507     A.U. after   16 cycles
 SCF Done:  E(RB3LYP) =  -601.218413612     A.U. after   16 cycles
 SCF Done:  E(RB3LYP) =  -601.220280102     A.U. after   15 cycles
 SCF Done:  E(RB3LYP) =  -601.221509843     A.U. after   15 cycles
 SCF Done:  E(RB3LYP) =  -601.221660105     A.U. after   13 cycles
 SCF Done:  E(RB3LYP) =  -601.221868450     A.U. after   13 cycles
 SCF Done:  E(RB3LYP) =  -601.221967036     A.U. after   13 cycles
 SCF Done:  E(RB3LYP) =  -601.222006070     A.U. after   12 cycles
 SCF Done:  E(RB3LYP) =  -601.222018240     A.U. after   10 cycles
 SCF Done:  E(RB3LYP) =  -601.222021803     A.U. after   10 cycles
 SCF Done:  E(RB3LYP) =  -601.222023106     A.U. after   10 cycles
 SCF Done:  E(RB3LYP) =  -601.222023314     A.U. after    8 cycles
 Optimization completed.
    -- Stationary point found.

 1\1\GINC-NODE217\FOpt\RB3LYP\6-31G(d)\C7H10N6\VSC10255\14-Dec-2020\0\\
 # opt freq B3LYP/6-31G(d) empiricaldispersion=gd3bj scf=xqc\\CID_15196
 8684_JID_3844_neutraal\\0,1\C,0.8008900984,-0.0800886326,0.1270350731\
 C,0.223336117,0.1633261668,-1.2685129111\C,1.0855671092,-0.4304189573,
 -2.4107931537\C,1.2287393032,-1.9539389904,-2.3138791521\C,0.514548689
 3,0.0330456315,-3.7300522331\C,-0.322175025,-0.7451470684,-4.547525115
 9\N,-0.8435341452,-0.2746316862,-5.6820371797\N,-0.5653868948,0.967519
 9536,-6.0610554449\C,0.238056143,1.6801669647,-5.2577610713\N,0.795058

 Normal termination of Gaussian 16 at Mon Dec 14 16:29:25 2020.

 --------------------------------------------------------------------
 #N Geom=AllCheck Guess=TCheck SCRF=Check GenChk RB3LYP/6-31G(d) Freq
 --------------------------------------------------------------------

 Structure from the checkpoint file:  "JID_3844.chk"
 -------------------------------
 CID_151968684_JID_3844_neutraal
 -------------------------------
 Charge =  0 Multiplicity = 1

 SCF Done:  E(RB3LYP) =  -601.222023314     A.U. after    1 cycles

  Exact polarizability: 136.002  12.929 133.803  -2.117   8.099  68.198
 Approx polarizability: 194.542  19.447 256.982  -6.726  30.827 105.841

                      1                      2                      3
                      A                      A                      A
 Frequencies --     18.0399                79.5785                84.0063
 Red. masses --      3.4497                 3.3734                 3.5978
 Frc consts  --      0.0007                 0.0126                 0.0150
 IR Inten    --      0.0385                 0.5595                 1.0171

                      4                      5                      6
                      A                      A                      A
 Frequencies --    100.0278               118.9148               192.8222
 Red. masses --      5.4321                 4.7489                 6.5028
 Frc consts  --      0.0320                 0.0396                 0.1425
 IR Inten    --      0.5066                 0.6797                 3.2545

                      7                      8                      9
                      A                      A                      A
 Frequencies --    211.5911               242.4260               256.2906
 Red. masses --      1.8418                 1.5980                 2.6088
 Frc consts  --      0.0486                 0.0553                 0.1010
 IR Inten    --      0.2168                 0.2033                 0.1257

                     10                     11                     12
                      A                      A                      A
 Frequencies --    282.1891               323.5875               328.9059
 Red. masses --      1.3707                 2.7707                 3.7474
 Frc consts  --      0.0643                 0.1709                 0.2389
 IR Inten    --      0.0171                 0.0140                 0.0182

                     13                     14                     15
                      A                      A                      A
 Frequencies --    413.6560               474.9743               494.0756
 Red. masses --      3.6670                 8.8657                 5.8724
 Frc consts  --      0.3697                 1.1784                 0.8446
 IR Inten    --      1.0962                10.3583                 2.2129

                     16                     17                     18
                      A                      A                      A
 Frequencies --    518.3872               559.8458               609.0199
 Red. masses --      6.2534                13.9535                 3.8354
 Frc consts  --      0.9901                 2.5767                 0.8382
 IR Inten    --      2.8081                 8.6367                 1.9671

                     19                     20                     21
                      A                      A                      A
 Frequencies --    682.7080               716.4884               769.7427
 Red. masses --      7.6945                 8.3232                 3.6133
 Frc consts  --      2.1130                 2.5174                 1.2614
 IR Inten    --      6.0462                 6.1053                 2.4503

                     22                     23                     24
                      A                      A                      A
 Frequencies --    799.6278               816.5522               849.6062
 Red. masses --      1.4291                 5.9624                 2.1140
 Frc consts  --      0.5384                 2.3423                 0.8991
 IR Inten    --      1.8605                 3.4799                 0.0237

                     25                     26                     27
                      A                      A                      A
 Frequencies --    914.0625               963.5768               985.3812
 Red. masses --      1.4120                 2.9637                 1.3048
 Frc consts  --      0.6951                 1.6213                 0.7465
 IR Inten    --      5.9951                10.4060                 6.1382

                     28                     29                     30
                      A                      A                      A
 Frequencies --   1025.1428              1036.8068              1046.5161
 Red. masses --      1.9483                 7.9651                 2.1757
 Frc consts  --      1.2064                 5.0447                 1.4039
 IR Inten    --      8.4162                 2.5644                 9.9284

                     31                     32                     33
                      A                      A                      A
 Frequencies --   1086.2085              1145.3855              1146.9674
 Red. masses --      2.2581                 2.4305                 3.6482
 Frc consts  --      1.5697                 1.8786                 2.8277
 IR Inten    --     37.5233                 1.4375                25.1335

                     34                     35                     36
                      A                      A                      A
 Frequencies --   1196.0337              1198.2745              1274.5767
 Red. masses --      3.5933                 2.0127                 3.4849
 Frc consts  --      3.0285                 1.7027                 3.3356
 IR Inten    --     25.9831                 5.2835                15.7980

                     37                     38                     39
                      A                      A                      A
 Frequencies --   1300.3848              1313.9445              1335.8451
 Red. masses --      1.3857                 3.7320                 1.2674
 Frc consts  --      1.3806                 3.7962                 1.3325
 IR Inten    --      3.0091                58.4490                 4.5725

                     40                     41                     42
                      A                      A                      A
 Frequencies --   1375.9230              1392.6868              1419.5562
 Red. masses --      1.3633                 1.4636                 5.7563
 Frc consts  --      1.5207                 1.6725                 6.8343
 IR Inten    --      9.8961                 3.4851               506.5237

                     43                     44                     45
                      A                      A                      A
 Frequencies --   1440.9333              1445.6872              1463.6965
 Red. masses --      1.2829                 1.2688                 3.5914
 Frc consts  --      1.5693                 1.5624                 4.5333
 IR Inten    --      1.3549                 1.3831               101.5568

                     46                     47                     48
                      A                      A                      A
 Frequencies --   1516.0399              1526.4761              1534.1887
 Red. masses --      1.0637                 1.0439                 1.0685
 Frc consts  --      1.4405                 1.4332                 1.4818
 IR Inten    --      0.7909                 7.3419                 6.1193

                     49                     50                     51
                      A                      A                      A
 Frequencies --   1536.1732              1543.2522              1567.6525
 Red. masses --      1.0549                 1.0494                 8.7288
 Frc consts  --      1.4667                 1.4725                12.6388
 IR Inten    --      6.9355                 1.2714               146.7385

                     52                     53                     54
                      A                      A                      A
 Frequencies --   1588.4419              2296.0955              3035.7368
 Red. masses --      5.5338                13.9955                 1.0675
 Frc consts  --      8.2265                43.4729                 5.7965
 IR Inten    --    103.2051               569.2978                 9.5814

                     55                     56                     57
                      A                      A                      A
 Frequencies --   3048.9910              3052.4932              3056.3873
 Red. masses --      1.0642                 1.0444                 1.0452
 Frc consts  --      5.8286                 5.7335                 5.7526
 IR Inten    --      6.9594                32.8673                16.1012

                     58                     59                     60
                      A                      A                      A
 Frequencies --   3086.2492              3117.9398              3119.1806
 Red. masses --      1.0994                 1.1019                 1.1015
 Frc consts  --      6.1696                 6.3113                 6.3141
 IR Inten    --      6.8966                12.0773                47.1555

                     61                     62                     63
                      A                      A                      A
 Frequencies --   3125.8156              3141.3632              3233.0959
 Red. masses --      1.1023                 1.1000                 1.0915
 Frc consts  --      6.3459                 6.3954                 6.7225
 IR Inten    --     35.3386                24.3884                 4.6835

 - Thermochemistry -
 -------------------
 Temperature   298.150 Kelvin.  Pressure   1.00000 Atm.
 Atom     1 has atomic number  6 and mass  12.00000

 Molecular mass:   178.09669 amu.
 Principal axes and moments of inertia in atomic units:
                           1         2         3
     Eigenvalues --  1564.316883350.898174564.08682
           X            0.99956  -0.02974  -0.00077
           Y            0.02972   0.99934  -0.02078
           Z            0.00138   0.02075   0.99978
 This molecule is an asymmetric top.
 Rotational symmetry number  1.
 Warning -- assumption of classical behavior for rotation
           may cause significant error
 Rotational temperatures (Kelvin)      0.05537     0.02585     0.01898
 Rotational constants (GHZ):           1.15369     0.53858     0.39542
 Zero-point vibrational energy     475971.5 (Joules/Mol)
                                  113.75993 (Kcal/Mol)
 Warning -- explicit consideration of  18 degrees of freedom as
           vibrations may cause significant error
 Vibrational temperatures:     25.96   114.50   120.87   143.92   171.09
          (Kelvin)            277.43   304.43   348.80   368.75   406.01
                              465.57   473.22   595.16   683.38   710.86
                              745.84   805.49   876.24   982.26  1030.87
                             1107.49  1150.49  1174.84  1222.39  1315.13
                             1386.37  1417.74  1474.95  1491.73  1505.70
                             1562.81  1647.95  1650.23  1720.83  1724.05
                             1833.83  1870.96  1890.47  1921.98  1979.65
                             2003.77  2042.42  2073.18  2080.02  2105.93
                             2181.24  2196.26  2207.36  2210.21  2220.40
                             2255.50  2285.41  3303.57  4367.75  4386.82
                             4391.86  4397.46  4440.42  4486.02  4487.81
                             4497.35  4519.72  4651.70

 Zero-point correction=                           0.181288 (Hartree/Particle)
 Thermal correction to Energy=                    0.193600
 Thermal correction to Enthalpy=                  0.194544
 Thermal correction to Gibbs Free Energy=         0.141193
 Sum of electronic and zero-point Energies=           -601.040735
 Sum of electronic and thermal Energies=              -601.028423
 Sum of electronic and thermal Enthalpies=            -601.027479
 Sum of electronic and thermal Free Energies=         -601.080830

                     E (Thermal)             CV                S
                      KCal/Mol        Cal/Mol-Kelvin    Cal/Mol-Kelvin
 Total                  121.486             44.595            112.286
 Electronic               0.000              0.000              0.000
 Translational            0.889              2.981             41.438
 Rotational               0.889              2.981             31.548
 Vibrational            119.708             38.633             39.300
 Vibration     1          0.593              1.986              6.839
 Vibration     2          0.600              1.963              3.901
 Vibration     3          0.601              1.960              3.795
 Vibration     4          0.604              1.949              3.454
 Vibration     5          0.609              1.934              3.118
 Vibration     6          0.635              1.850              2.201
 Vibration     7          0.643              1.823              2.030
 Vibration     8          0.659              1.775              1.785
 Vibration     9          0.666              1.752              1.687
 Vibration    10          0.681              1.707              1.520
 Vibration    11          0.708              1.628              1.292
 Vibration    12          0.712              1.618              1.265
 Vibration    13          0.777              1.441              0.914
 Vibration    14          0.832              1.306              0.724
 Vibration    15          0.850              1.263              0.673
 Vibration    16          0.873              1.209              0.614
 Vibration    17          0.915              1.118              0.524
 Vibration    18          0.968              1.013              0.434

                           ! Non-Optimized Parameters !

 1\1\GINC-NODE217\Freq\RB3LYP\6-31G(d)\C7H10N6\VSC10255\14-Dec-2020\0\\
 #N Geom=AllCheck Guess=TCheck SCRF=Check GenChk RB3LYP/6-31G(d) Freq\\
 CID_151968684_JID_3844_neutraal\\0,1\C,0.8008900984,-0.0800886326,0.12
 70350731\C,0.223336117,0.1633261668,-1.2685129111\C,1.0855671092,-0.43
 04189573,-2.4107931537\C,1.2287393032,-1.9539389904,-2.3138791521\C,0.
 5145486893,0.0330456315,-3.7300522331\C,-0.322175025,-0.7451470684,-4.
 5475251159\N,-0.8435341452,-0.2746316862,-5.6820371797\N,-0.5653868948
 ,0.9675199536,-6.0610554449\C,0.238056143,1.6801669647,-5.2577610713\N

 Normal termination of Gaussian 16 at Mon Dec 14 16:34:24 2020.

 ----------------------------------------------------------------------
 # B3LYP/6-311++G(d,p) empiricaldispersion=gd3bj scf=xqc pop=npa geom=c
 heck
 ----------------------------------------------------------------------

 ---------------------------------------
 CID_151968684_JID_3844_Energie_neutraal
 ---------------------------------------
 Structure from the checkpoint file:  "JID_3844.chk"
 Charge =  0 Multiplicity = 1

 SCF Done:  E(RB3LYP) =  -601.380902515     A.U. after   15 cycles
 Normal termination of Gaussian 16 at Mon Dec 14 16:36:34 2020.

 ----------------------------------------------------------------------
 # B3LYP/6-311++G(d,p) empiricaldispersion=gd3bj scf=xqc pop=npa geom=c
 heck
 ----------------------------------------------------------------------

 -------------------------------------
 CID_151968684_JID_3844_Energie_kation
 -------------------------------------
 Structure from the checkpoint file:  "JID_3844.chk"
 Charge =  1 Multiplicity = 2

 SCF Done:  E(UB3LYP) =  -601.050172492     A.U. after   33 cycles
 SCF Done:  E(UB3LYP) =  -601.050172492     a.u. after    1 cycles
 Normal termination of Gaussian 16 at Mon Dec 14 16:43:01 2020.
 Gaussian 16:  ES64L-G16RevA.03 25-Dec-2016

 ------------------------------------
 CID_151968684_JID_3844_Energie_anion
 ------------------------------------
 Structure from the checkpoint file:  "JID_3844.chk"
 Charge = -1 Multiplicity = 2

                         Standard orientation:
 ---------------------------------------------------------------------
 Center     Atomic      Atomic             Coordinates (Angstroms)
 Number     Number       Type             X           Y           Z
 ---------------------------------------------------------------------
      1          6           0       -3.442335    1.831499   -0.581737
      2          6           0       -2.232369    0.919114   -0.791284
      3          6           0       -1.795593    0.161594    0.487845
      4          6           0       -2.889164   -0.767437    1.028222
      5          6           0       -0.495247   -0.550829    0.199992
      6          6           0       -0.393722   -1.916047   -0.115959
      7          7           0        0.773181   -2.491449   -0.411879
      8          7           0        1.880879   -1.758688   -0.406785
      9          6           0        1.746627   -0.460352   -0.098615
     10          7           0        0.614815    0.189259    0.204515
     11          7           0        2.958945    0.245371   -0.110057
     12          7           0        2.876633    1.456956    0.168720
     13          7           0        2.958159    2.563978    0.401772
     14          1           0       -4.344352    1.265135   -0.328203
     15          1           0       -3.655969    2.400566   -1.492632
     16          1           0       -3.257513    2.549998    0.225805
     17          1           0       -2.447699    0.185258   -1.580254
     18          1           0       -1.380056    1.513972   -1.139360
     19          1           0       -1.559954    0.917298    1.248421
     20          1           0       -3.254696   -1.453503    0.255106
     21          1           0       -2.526147   -1.365458    1.870808
     22          1           0       -3.744629   -0.184525    1.379148
     23          1           0       -1.256449   -2.571973   -0.133634
 ---------------------------------------------------------------------

 SCF Done:  E(UB3LYP) =  -601.406481003     A.U. after   30 cycles

 The electronic state is 2-A.
 Alpha  occ. eigenvalues --  -14.35265 -14.25457 -14.23060 -14.16339 -14.14830
 Alpha  occ. eigenvalues --  -14.13286 -10.11121 -10.06238 -10.05482 -10.05439
 Alpha  occ. eigenvalues --  -10.05211 -10.05098 -10.03436  -1.01574  -0.87718
 Alpha  occ. eigenvalues --   -0.84082  -0.75957  -0.69617  -0.66189  -0.62044
 Alpha  occ. eigenvalues --   -0.55313  -0.54431  -0.50933  -0.46250  -0.41153
 Alpha  occ. eigenvalues --   -0.39620  -0.38674  -0.36225  -0.35008  -0.34060
 Alpha  occ. eigenvalues --   -0.32661  -0.32579  -0.31040  -0.29072  -0.28411
 Alpha  occ. eigenvalues --   -0.27489  -0.25807  -0.22778  -0.22308  -0.22001
 Alpha  occ. eigenvalues --   -0.19155  -0.18498  -0.16185  -0.15866  -0.14394
 Alpha  occ. eigenvalues --   -0.10139  -0.06053   0.04091
 Alpha virt. eigenvalues --    0.07282   0.09083   0.09269   0.09976   0.10374
 Alpha virt. eigenvalues --    0.10887   0.12437   0.12561   0.13363   0.14040
 Alpha virt. eigenvalues --    0.14421   0.14980   0.15689   0.16309   0.17460

  Beta  occ. eigenvalues --  -14.35182 -14.25322 -14.23115 -14.16232 -14.13981
  Beta  occ. eigenvalues --  -14.12632 -10.11119 -10.06232 -10.05503 -10.05414
  Beta  occ. eigenvalues --  -10.05201 -10.04846 -10.03480  -1.01415  -0.87343
  Beta  occ. eigenvalues --   -0.83540  -0.74898  -0.69362  -0.65717  -0.61930
  Beta  occ. eigenvalues --   -0.55183  -0.54098  -0.50340  -0.45975  -0.40942
  Beta  occ. eigenvalues --   -0.39353  -0.38212  -0.36047  -0.34904  -0.33837
  Beta  occ. eigenvalues --   -0.32451  -0.32399  -0.30826  -0.28488  -0.28371
  Beta  occ. eigenvalues --   -0.26425  -0.25740  -0.22596  -0.22082  -0.21938
  Beta  occ. eigenvalues --   -0.18469  -0.17355  -0.15503  -0.13623  -0.13409
  Beta  occ. eigenvalues --   -0.09036  -0.05303
  Beta virt. eigenvalues --    0.07230   0.09079   0.09347   0.09979   0.10672
  Beta virt. eigenvalues --    0.10819   0.12072   0.12470   0.12827   0.13400
  Beta virt. eigenvalues --    0.14025   0.14390   0.14996   0.15786   0.16972

 Mulliken charges and spin densities:
               1          2
     1  C   -0.603630   0.000300
     2  C   -0.139823  -0.027049
     3  C    0.460477  -0.009905
     4  C   -0.752335  -0.002591
     5  C   -0.131195   0.155819
     6  C   -0.530185  -0.007735
     7  N   -0.120376   0.397322
     8  N   -0.110872   0.021905
     9  C   -0.270191   0.034823
    10  N   -0.120622   0.319489
    11  N   -0.393125  -0.046666
    12  N    0.549552   0.031854
    13  N   -0.177679   0.095282
    14  H    0.125288   0.001564
    15  H    0.119907   0.005658
    16  H    0.129398   0.000730
    17  H    0.128856   0.005254
    18  H    0.156278  -0.005110
    19  H    0.154576   0.015776
    20  H    0.138111  -0.002579
    21  H    0.129576   0.012943
    22  H    0.110147   0.007680
    23  H    0.147868  -0.004762
 Sum of Mulliken charges =  -1.00000   1.00000

 Dipole moment (field-independent basis, Debye):
    X=             -6.3997    Y=              3.5728    Z=              0.7006  Tot=              7.3629
 Quadrupole moment (field-independent basis, Debye-Ang):
   XX=           -106.2473   YY=           -110.4313   ZZ=            -83.3524
   XY=              5.1322   XZ=              1.6094   YZ=             -5.1306

 Summary of Natural Population Analysis:

                                       Natural Population
                Natural  -----------------------------------------------
    Atom  No    Charge         Core      Valence    Rydberg      Total
 -----------------------------------------------------------------------
      C    1   -0.28585      0.99967     2.28218    0.00399     3.28585
      C    2   -0.18029      0.99963     2.17363    0.00703     3.18029
      C    3   -0.12598      0.99957     2.11667    0.00975     3.12598
      C    4   -0.28460      0.99966     2.28017    0.00478     3.28460
      C    5    0.14928      0.99954     1.83530    0.01588     2.85072
      C    6   -0.04619      0.99954     2.03217    0.01447     3.04619
      N    7   -0.00493      0.99972     2.48442    0.02079     3.50493
      N    8   -0.14680      0.99969     2.63272    0.01439     3.64680
      C    9    0.25313      0.99958     1.72878    0.01850     2.74687
      N   10   -0.19210      0.99963     2.67760    0.01487     3.69210
      N   11   -0.18413      0.99964     2.66865    0.01585     3.68413
      N   12    0.13694      0.99971     2.34668    0.01667     3.36306
      N   13   -0.03564      0.99981     2.52165    0.01418     3.53564
      H   14    0.09158      0.00000     0.40750    0.00093     0.40842
      H   15    0.09362      0.00000     0.40543    0.00095     0.40638
      H   16    0.09386      0.00000     0.40518    0.00096     0.40614
      H   17    0.09129      0.00000     0.40754    0.00117     0.40871
      H   18    0.10471      0.00000     0.39422    0.00107     0.39529
      H   19    0.09899      0.00000     0.39903    0.00198     0.40101
      H   20    0.09432      0.00000     0.40466    0.00102     0.40568
      H   21    0.10198      0.00000     0.39713    0.00090     0.39802
      H   22    0.09218      0.00000     0.40703    0.00080     0.40782
      H   23    0.08465      0.00000     0.41395    0.00141     0.41535
 =======================================================================
   * Total *    0.00000     12.99539    33.82228    0.18233    47.00000

 Normal termination of Gaussian 16 at Mon Dec 14 16:48:56 2020.
