 Gaussian 16, Revision A.03,

 -----------------------------------------------------------
 # opt freq B3LYP/6-31G(d) empiricaldispersion=gd3bj scf=xqc
 -----------------------------------------------------------

 -------------------------------
 CID_126993663_JID_3517_neutraal
 -------------------------------
 Symbolic Z-matrix:
 Charge =  0 Multiplicity = 1

 SCF Done:  E(RB3LYP) =  -590.329107893     A.U. after   15 cycles
 SCF Done:  E(RB3LYP) =  -590.332263628     A.U. after   13 cycles
 SCF Done:  E(RB3LYP) =  -590.328437588     A.U. after   14 cycles
 SCF Done:  E(RB3LYP) =  -590.334375481     A.U. after   12 cycles
 SCF Done:  E(RB3LYP) =  -590.335719762     A.U. after   12 cycles
 SCF Done:  E(RB3LYP) =  -590.336631511     A.U. after   12 cycles
 SCF Done:  E(RB3LYP) =  -590.336807867     A.U. after   12 cycles
 SCF Done:  E(RB3LYP) =  -590.336871711     A.U. after   11 cycles
 SCF Done:  E(RB3LYP) =  -590.336904984     A.U. after   10 cycles
 SCF Done:  E(RB3LYP) =  -590.336933676     A.U. after   10 cycles
 SCF Done:  E(RB3LYP) =  -590.337300512     A.U. after   10 cycles
 SCF Done:  E(RB3LYP) =  -590.337304574     A.U. after   10 cycles
 SCF Done:  E(RB3LYP) =  -590.337306220     A.U. after    9 cycles
 SCF Done:  E(RB3LYP) =  -590.337306929     A.U. after    8 cycles
 SCF Done:  E(RB3LYP) =  -590.337307046     A.U. after    8 cycles
 Optimization completed.
    -- Stationary point found.
 Normal termination of Gaussian 16 at Wed Dec  9 23:46:31 2020.

 --------------------------------------------------------------------
 #N Geom=AllCheck Guess=TCheck SCRF=Check GenChk RB3LYP/6-31G(d) Freq
 --------------------------------------------------------------------

 Structure from the checkpoint file:  "JID_3517.chk"
 -------------------------------
 CID_126993663_JID_3517_neutraal
 -------------------------------
 Charge =  0 Multiplicity = 1

 SCF Done:  E(RB3LYP) =  -590.337307046     A.U. after    1 cycles

  Exact polarizability: 151.660  -5.112 110.664   8.369   5.985  80.319
 Approx polarizability: 222.031   1.075 180.087  23.084  17.472 120.370

                      1                      2                      3
                      A                      A                      A
 Frequencies --     53.4457                58.1439                64.5011
 Red. masses --      3.9405                 1.8304                 1.7260
 Frc consts  --      0.0066                 0.0036                 0.0042
 IR Inten    --      1.1744                 0.6811                 2.6440

                      4                      5                      6
                      A                      A                      A
 Frequencies --     99.9070               130.6027               150.0030
 Red. masses --      2.6375                 1.8060                 1.8760
 Frc consts  --      0.0155                 0.0181                 0.0249
 IR Inten    --      1.0641                 2.7384                 0.3495

                      7                      8                      9
                      A                      A                      A
 Frequencies --    171.1526               201.9607               219.1808
 Red. masses --      1.5318                 1.5314                 3.5286
 Frc consts  --      0.0264                 0.0368                 0.0999
 IR Inten    --      1.1214                 5.3294                 0.8193

                     10                     11                     12
                      A                      A                      A
 Frequencies --    272.2720               291.1617               309.9784
 Red. masses --      3.7172                 3.3617                 3.0149
 Frc consts  --      0.1624                 0.1679                 0.1707
 IR Inten    --      3.5668                 1.0053                 8.3118

                     13                     14                     15
                      A                      A                      A
 Frequencies --    344.9137               388.3473               427.1450
 Red. masses --      3.6066                 4.8046                 1.3053
 Frc consts  --      0.2528                 0.4269                 0.1403
 IR Inten    --      0.9783                 1.0242                42.4029

                     16                     17                     18
                      A                      A                      A
 Frequencies --    464.4824               480.7650               501.3347
 Red. masses --      2.5218                 3.2417                 2.9023
 Frc consts  --      0.3206                 0.4415                 0.4298
 IR Inten    --     10.7211                40.7368                27.6947

                     19                     20                     21
                      A                      A                      A
 Frequencies --    550.6705               605.3209               623.9873
 Red. masses --      2.0608                 4.7464                 2.6910
 Frc consts  --      0.3682                 1.0247                 0.6173
 IR Inten    --     43.8221                 8.9363                55.5299

                     22                     23                     24
                      A                      A                      A
 Frequencies --    708.2532               749.4327               752.9925
 Red. masses --      5.5917                 7.8085                 4.0170
 Frc consts  --      1.6526                 2.5839                 1.3419
 IR Inten    --      9.5874                34.0222                 0.4303

                     25                     26                     27
                      A                      A                      A
 Frequencies --    762.5934               828.5938               877.9660
 Red. masses --      4.5675                 3.8527                 2.4196
 Frc consts  --      1.5650                 1.5585                 1.0989
 IR Inten    --      0.1856                 4.5391                10.9708

                     28                     29                     30
                      A                      A                      A
 Frequencies --    898.8066               947.5781               981.1529
 Red. masses --      2.0277                 1.3311                 2.2134
 Frc consts  --      0.9651                 0.7042                 1.2554
 IR Inten    --      0.2347                 1.1035                 4.2913

                     31                     32                     33
                      A                      A                      A
 Frequencies --   1034.7196              1046.7584              1074.3540
 Red. masses --      1.9276                 1.3873                 1.5650
 Frc consts  --      1.2159                 0.8956                 1.0643
 IR Inten    --     12.6651                 4.2572                 4.0234

                     34                     35                     36
                      A                      A                      A
 Frequencies --   1084.9970              1123.7109              1166.7345
 Red. masses --      1.4921                 2.0009                 1.3041
 Frc consts  --      1.0349                 1.4886                 1.0460
 IR Inten    --      7.0726                49.8255                 5.9521

                     37                     38                     39
                      A                      A                      A
 Frequencies --   1195.7747              1204.4111              1234.0141
 Red. masses --      2.8471                 2.2266                 1.8951
 Frc consts  --      2.3986                 1.9030                 1.7003
 IR Inten    --     25.9595                14.8689                 7.3424

                     40                     41                     42
                      A                      A                      A
 Frequencies --   1289.5733              1334.4643              1347.4982
 Red. masses --      4.7744                 5.7922                 1.4022
 Frc consts  --      4.6780                 6.0773                 1.5001
 IR Inten    --      3.9611                23.2712                 2.0345

                     43                     44                     45
                      A                      A                      A
 Frequencies --   1390.3677              1407.0838              1439.2954
 Red. masses --      2.8066                 2.8555                 1.2765
 Frc consts  --      3.1966                 3.3309                 1.5580
 IR Inten    --     65.3805               249.8688                 1.4921

                     46                     47                     48
                      A                      A                      A
 Frequencies --   1452.1492              1466.0575              1483.5408
 Red. masses --      1.2455                 1.4959                 2.1261
 Frc consts  --      1.5475                 1.8944                 2.7570
 IR Inten    --      1.1090                54.5654                 4.6961

                     49                     50                     51
                      A                      A                      A
 Frequencies --   1499.0334              1505.8951              1512.7246
 Red. masses --      1.1526                 1.0456                 1.1341
 Frc consts  --      1.5259                 1.3970                 1.5291
 IR Inten    --     30.3959                 6.0141                18.5360

                     52                     53                     54
                      A                      A                      A
 Frequencies --   1515.1865              1521.7735              1532.9419
 Red. masses --      1.1259                 1.1218                 1.1796
 Frc consts  --      1.5230                 1.5306                 1.6332
 IR Inten    --     10.1061                34.7699                39.9989

                     55                     56                     57
                      A                      A                      A
 Frequencies --   1540.1784              1549.0358              1615.2294
 Red. masses --      2.2883                 1.0805                 6.0227
 Frc consts  --      3.1982                 1.5275                 9.2579
 IR Inten    --     49.7414                41.4845                48.7588

                     58                     59                     60
                      A                      A                      A
 Frequencies --   1655.3152              1806.1857              3056.2309
 Red. masses --      6.1067                 6.6089                 1.0356
 Frc consts  --      9.8586                12.7030                 5.6992
 IR Inten    --    130.2928               542.2129                16.8332

                     61                     62                     63
                      A                      A                      A
 Frequencies --   3056.6062              3057.6313              3114.6576
 Red. masses --      1.0359                 1.0349                 1.1004
 Frc consts  --      5.7023                 5.7004                 6.2898
 IR Inten    --     19.3491                38.6235                 7.6593

                     64                     65                     66
                      A                      A                      A
 Frequencies --   3116.2266              3117.7111              3131.5069
 Red. masses --      1.1008                 1.1026                 1.1029
 Frc consts  --      6.2982                 6.3144                 6.3721
 IR Inten    --     13.0879                21.5347                11.9323

                     67                     68                     69
                      A                      A                      A
 Frequencies --   3137.6474              3144.8790              3153.1043
 Red. masses --      1.1032                 1.1048                 1.0900
 Frc consts  --      6.3990                 6.4376                 6.3847
 IR Inten    --     18.0306                22.2472                36.9509

                     70                     71                     72
                      A                      A                      A
 Frequencies --   3196.8385              3606.8863              3627.5547
 Red. masses --      1.0914                 1.0754                 1.0764
 Frc consts  --      6.5714                 8.2433                 8.3454
 IR Inten    --      9.2059                42.8427                42.0997

 - Thermochemistry -
 -------------------
 Temperature   298.150 Kelvin.  Pressure   1.00000 Atm.
 Atom     1 has atomic number  6 and mass  12.00000

 Molecular mass:   179.10586 amu.
 Principal axes and moments of inertia in atomic units:
                           1         2         3
     Eigenvalues --  1213.647493517.824363853.20823
           X            0.99946  -0.03117  -0.01058
           Y            0.03084   0.99906  -0.03057
           Z            0.01152   0.03023   0.99948
 This molecule is an asymmetric top.
 Rotational symmetry number  1.
 Warning -- assumption of classical behavior for rotation
           may cause significant error
 Rotational temperatures (Kelvin)      0.07137     0.02462     0.02248
 Rotational constants (GHZ):           1.48704     0.51303     0.46837
 Zero-point vibrational energy     570996.3 (Joules/Mol)
                                  136.47140 (Kcal/Mol)
 Warning -- explicit consideration of  20 degrees of freedom as
           vibrations may cause significant error
 Vibrational temperatures:     76.90    83.66    92.80   143.74   187.91
          (Kelvin)            215.82   246.25   290.58   315.35   391.74
                              418.92   445.99   496.25   558.75   614.57
                              668.29   691.71   721.31   792.29   870.92
                              897.78  1019.02  1078.27  1083.39  1097.20
                             1192.16  1263.20  1293.18  1363.35  1411.66
                             1488.73  1506.05  1545.76  1561.07  1616.77
                             1678.67  1720.45  1732.88  1775.47  1855.41
                             1920.00  1938.75  2000.43  2024.48  2070.83
                             2089.32  2109.33  2134.48  2156.77  2166.65
                             2176.47  2180.02  2189.49  2205.56  2215.97
                             2228.72  2323.95  2381.63  2598.70  4397.23
                             4397.77  4399.25  4481.30  4483.56  4485.69
                             4505.54  4514.37  4524.78  4536.61  4599.54
                             5189.50  5219.24

 Zero-point correction=                           0.217481 (Hartree/Particle)
 Thermal correction to Energy=                    0.230963
 Thermal correction to Enthalpy=                  0.231908
 Thermal correction to Gibbs Free Energy=         0.177161
 Sum of electronic and zero-point Energies=           -590.119826
 Sum of electronic and thermal Energies=              -590.106344
 Sum of electronic and thermal Enthalpies=            -590.105399
 Sum of electronic and thermal Free Energies=         -590.160146

                     E (Thermal)             CV                S
                      KCal/Mol        Cal/Mol-Kelvin    Cal/Mol-Kelvin
 Total                  144.932             49.215            115.223
 Electronic               0.000              0.000              0.000
 Translational            0.889              2.981             41.455
 Rotational               0.889              2.981             31.176
 Vibrational            143.154             43.253             42.592
 Vibration     1          0.596              1.976              4.686
 Vibration     2          0.596              1.974              4.519
 Vibration     3          0.597              1.971              4.315
 Vibration     4          0.604              1.949              3.456
 Vibration     5          0.612              1.923              2.937
 Vibration     6          0.618              1.903              2.672
 Vibration     7          0.626              1.878              2.423
 Vibration     8          0.639              1.837              2.115
 Vibration     9          0.647              1.812              1.966
 Vibration    10          0.675              1.724              1.582
 Vibration    11          0.687              1.690              1.467
 Vibration    12          0.699              1.655              1.362
 Vibration    13          0.723              1.586              1.189
 Vibration    14          0.757              1.495              1.006
 Vibration    15          0.789              1.411              0.868
 Vibration    16          0.822              1.329              0.753
 Vibration    17          0.837              1.293              0.708
 Vibration    18          0.857              1.247              0.655
 Vibration    19          0.906              1.138              0.543
 Vibration    20          0.964              1.021              0.441

                           ! Non-Optimized Parameters !
 Normal termination of Gaussian 16 at Wed Dec  9 23:53:01 2020.

 ----------------------------------------------------------------------
 # B3LYP/6-311++G(d,p) empiricaldispersion=gd3bj scf=xqc pop=npa geom=c
 heck
 ----------------------------------------------------------------------

 ---------------------------------------
 CID_126993663_JID_3517_Energie_neutraal
 ---------------------------------------
 Structure from the checkpoint file:  "JID_3517.chk"
 Charge =  0 Multiplicity = 1

 SCF Done:  E(RB3LYP) =  -590.507179871     A.U. after   16 cycles
 Normal termination of Gaussian 16 at Wed Dec  9 23:56:09 2020.

 ----------------------------------------------------------------------
 # B3LYP/6-311++G(d,p) empiricaldispersion=gd3bj scf=xqc pop=npa geom=c
 heck
 ----------------------------------------------------------------------

 -------------------------------------
 CID_126993663_JID_3517_Energie_kation
 -------------------------------------
 Structure from the checkpoint file:  "JID_3517.chk"
 Charge =  1 Multiplicity = 2

 SCF Done:  E(UB3LYP) =  -590.191262885     A.U. after   30 cycles
 Normal termination of Gaussian 16 at Thu Dec 10 00:04:18 2020.
 Gaussian 16:  ES64L-G16RevA.03 25-Dec-2016

 ----------------------------------------------------------------------
 # B3LYP/6-311++G(d,p) empiricaldispersion=gd3bj scf=xqc pop=npa geom=c
 heck
 ----------------------------------------------------------------------

 ------------------------------------
 CID_126993663_JID_3517_Energie_anion
 ------------------------------------
 Structure from the checkpoint file:  "JID_3517.chk"
 Charge = -1 Multiplicity = 2

                         Standard orientation:
 ---------------------------------------------------------------------
 Center     Atomic      Atomic             Coordinates (Angstroms)
 Number     Number       Type             X           Y           Z
 ---------------------------------------------------------------------
      1          6           0        3.780813   -1.279963    0.133913
      2          6           0        2.530992   -0.453000   -0.019703
      3          6           0        1.299776   -1.033400   -0.318797
      4          6           0        0.159889   -0.232276   -0.453855
      5          6           0        0.288636    1.160257   -0.308228
      6          6           0        1.571229    1.625607    0.013143
      7          7           0        2.661817    0.873695    0.159793
      8          6           0       -0.839445    2.130438   -0.530866
      9          7           0       -1.061525   -0.860287   -0.785726
     10          6           0       -2.356974   -0.598764   -0.341283
     11          8           0       -3.328128   -0.850766   -1.043720
     12          7           0       -2.479841   -0.081686    0.928878
     13          6           0       -1.541365   -0.261543    2.030880
     14          1           0        4.533328   -0.971003   -0.600226
     15          1           0        4.219920   -1.125467    1.125566
     16          1           0        3.580733   -2.347124    0.000688
     17          1           0        1.209336   -2.109820   -0.431848
     18          1           0        1.717513    2.698744    0.137603
     19          1           0       -1.525010    2.172670    0.322372
     20          1           0       -0.444201    3.135965   -0.703373
     21          1           0       -1.440017    1.842571   -1.400448
     22          1           0       -1.065070   -1.445833   -1.610918
     23          1           0       -3.454724    0.029373    1.169921
     24          1           0       -0.832335    0.569765    2.111386
     25          1           0       -2.108978   -0.322953    2.962860
     26          1           0       -0.969934   -1.186959    1.914329
 ---------------------------------------------------------------------

 SCF Done:  E(UB3LYP) =  -590.498503196     A.U. after   33 cycles
 SCF Done:  E(UB3LYP) =  -590.498503196     a.u. after    1 cycles

 The electronic state is 2-A.
 Alpha  occ. eigenvalues --  -18.96823 -14.22579 -14.21804 -14.16626 -10.18088
 Alpha  occ. eigenvalues --  -10.09023 -10.08896 -10.08347 -10.06912 -10.06287
 Alpha  occ. eigenvalues --  -10.05921 -10.05552 -10.04749  -0.93601  -0.82874
 Alpha  occ. eigenvalues --   -0.81038  -0.79324  -0.68242  -0.66170  -0.61710
 Alpha  occ. eigenvalues --   -0.58907  -0.55306  -0.52115  -0.50481  -0.46924
 Alpha  occ. eigenvalues --   -0.40884  -0.39576  -0.37716  -0.36340  -0.34158
 Alpha  occ. eigenvalues --   -0.34039  -0.32525  -0.31853  -0.30803  -0.30433
 Alpha  occ. eigenvalues --   -0.28756  -0.28589  -0.28108  -0.27631  -0.27255
 Alpha  occ. eigenvalues --   -0.24865  -0.24114  -0.19271  -0.16146  -0.14165
 Alpha  occ. eigenvalues --   -0.13259  -0.13161  -0.12390   0.05030
 Alpha virt. eigenvalues --    0.07157   0.07708   0.08723   0.09572   0.09764
 Alpha virt. eigenvalues --    0.10342   0.11307   0.11475   0.12060   0.12516
 Alpha virt. eigenvalues --    0.12819   0.13781   0.14308   0.14821   0.15313

  Beta  occ. eigenvalues --  -18.96790 -14.22613 -14.21781 -14.16372 -10.18042
  Beta  occ. eigenvalues --  -10.08935 -10.08746 -10.08296 -10.06762 -10.06353
  Beta  occ. eigenvalues --  -10.05917 -10.05538 -10.04671  -0.93528  -0.82690
  Beta  occ. eigenvalues --   -0.80778  -0.79196  -0.68114  -0.65923  -0.61629
  Beta  occ. eigenvalues --   -0.58810  -0.55162  -0.51799  -0.50288  -0.46836
  Beta  occ. eigenvalues --   -0.40774  -0.39472  -0.37607  -0.36232  -0.34060
  Beta  occ. eigenvalues --   -0.33937  -0.32336  -0.31717  -0.30712  -0.30378
  Beta  occ. eigenvalues --   -0.28724  -0.28516  -0.28014  -0.27546  -0.27184
  Beta  occ. eigenvalues --   -0.24257  -0.23981  -0.18612  -0.16007  -0.14009
  Beta  occ. eigenvalues --   -0.12943  -0.12557  -0.11925
  Beta virt. eigenvalues --    0.07534   0.08194   0.08919   0.09036   0.09899
  Beta virt. eigenvalues --    0.10038   0.10619   0.11364   0.11733   0.12278
  Beta virt. eigenvalues --    0.12802   0.13309   0.13756   0.14497   0.15147

 Mulliken charges and spin densities:
               1          2
     1  C   -0.231687  -0.403205
     2  C   -0.193056  -0.022358
     3  C   -0.334018   0.521921
     4  C    0.330362  -0.120743
     5  C    0.277096  -0.077737
     6  C   -0.397278   0.174531
     7  N   -0.101633   0.159349
     8  C   -0.132758  -0.536885
     9  N   -0.293562   0.004835
    10  C   -0.008678   0.166182
    11  O   -0.398714   0.014292
    12  N   -0.442915   0.143529
    13  C    1.204376  -1.657111
    14  H    0.097231   0.041431
    15  H    0.126858   0.020508
    16  H    0.050289   0.073916
    17  H    0.075560   0.080755
    18  H    0.052096   0.090217
    19  H    0.007461   0.162792
    20  H    0.131841  -0.001615
    21  H    0.123569   0.052222
    22  H    0.315380   0.006890
    23  H    0.165904   0.149862
    24  H   -0.031652   0.219733
    25  H   -1.110927   1.274421
    26  H   -0.281145   0.462269
 Sum of Mulliken charges =  -1.00000   1.00000

 Dipole moment (field-independent basis, Debye):
    X=              2.8939    Y=             -0.0264    Z=             -5.1600  Tot=              5.9162
 Quadrupole moment (field-independent basis, Debye-Ang):
   XX=           -133.7588   YY=            -98.9207   ZZ=           -116.2184
   XY=             -7.9835   XZ=              3.2516   YZ=              1.8082

 Summary of Natural Population Analysis:

                                       Natural Population
                Natural  -----------------------------------------------
    Atom  No    Charge         Core      Valence    Rydberg      Total
 -----------------------------------------------------------------------
      C    1   -0.29425      0.99963     2.28917    0.00545     3.29425
      C    2    0.09597      0.99955     1.89051    0.01397     2.90403
      C    3   -0.11979      0.99946     2.11129    0.00903     3.11979
      C    4    0.12816      0.99941     1.86133    0.01110     2.87184
      C    5   -0.06026      0.99946     2.05235    0.00844     3.06026
      C    6    0.05879      0.99954     1.92673    0.01493     2.94121
      N    7   -0.22092      0.99967     2.70955    0.01170     3.72092
      C    8   -0.29631      0.99964     2.29056    0.00612     3.29631
      N    9   -0.33350      0.99964     2.82481    0.00905     3.83350
      C   10    0.41291      0.99969     1.56336    0.02404     2.58709
      O   11   -0.34380      0.99988     3.33867    0.00526     4.34380
      N   12   -0.33016      0.99968     2.81954    0.01094     3.83016
      C   13   -0.18332      0.99964     2.17495    0.00873     3.18332
      H   14    0.10157      0.00000     0.39726    0.00117     0.39843
      H   15    0.10404      0.00000     0.39451    0.00145     0.39596
      H   16    0.09584      0.00000     0.40350    0.00067     0.40416
      H   17    0.09879      0.00000     0.40024    0.00097     0.40121
      H   18    0.08080      0.00000     0.41786    0.00134     0.41920
      H   19    0.10998      0.00000     0.38887    0.00115     0.39002
      H   20    0.09807      0.00000     0.40114    0.00079     0.40193
      H   21    0.10418      0.00000     0.39501    0.00081     0.39582
      H   22    0.19891      0.00000     0.29955    0.00154     0.30109
      H   23    0.19460      0.00000     0.30358    0.00182     0.30540
      H   24    0.09721      0.00000     0.40075    0.00205     0.40279
      H   25    0.10038      0.00000     0.39680    0.00283     0.39962
      H   26    0.10213      0.00000     0.39565    0.00222     0.39787
 =======================================================================
   * Total *   -0.00000     12.99490    34.84752    0.15757    48.00000

 Normal termination of Gaussian 16 at Thu Dec 10 00:13:30 2020.
