 Gaussian 16, Revision A.03,

 -----------------------------------------------------------
 # opt freq B3LYP/6-31G(d) empiricaldispersion=gd3bj scf=xqc
 -----------------------------------------------------------

 -------------------------------
 CID_112427402_JID_7022_neutraal
 -------------------------------
 Symbolic Z-matrix:
 Charge =  0 Multiplicity = 1

 SCF Done:  E(RB3LYP) =  -805.776472924     A.U. after   14 cycles
 SCF Done:  E(RB3LYP) =  -805.778087616     A.U. after   12 cycles
 SCF Done:  E(RB3LYP) =  -805.773232292     A.U. after   13 cycles
 SCF Done:  E(RB3LYP) =  -805.779440536     A.U. after   12 cycles
 SCF Done:  E(RB3LYP) =  -805.779937574     A.U. after   12 cycles
 SCF Done:  E(RB3LYP) =  -805.781263815     A.U. after   11 cycles
 SCF Done:  E(RB3LYP) =  -805.781409780     A.U. after   11 cycles
 SCF Done:  E(RB3LYP) =  -805.781689678     A.U. after   10 cycles
 SCF Done:  E(RB3LYP) =  -805.781781210     A.U. after   11 cycles
 SCF Done:  E(RB3LYP) =  -805.781839319     A.U. after   11 cycles
 SCF Done:  E(RB3LYP) =  -805.784028776     A.U. after    8 cycles
 SCF Done:  E(RB3LYP) =  -805.784029044     A.U. after    7 cycles
 SCF Done:  E(RB3LYP) =  -805.784029311     A.U. after    7 cycles
 SCF Done:  E(RB3LYP) =  -805.784029353     A.U. after    6 cycles
 SCF Done:  E(RB3LYP) =  -805.784029432     A.U. after    7 cycles
 SCF Done:  E(RB3LYP) =  -805.784029474     A.U. after    7 cycles
 Optimization completed.
    -- Stationary point found.
 Normal termination of Gaussian 16 at Mon Dec 14 13:38:36 2020.

 --------------------------------------------------------------------
 #N Geom=AllCheck Guess=TCheck SCRF=Check GenChk RB3LYP/6-31G(d) Freq
 --------------------------------------------------------------------

 Structure from the checkpoint file:  "JID_7022.chk"
 -------------------------------
 CID_112427402_JID_7022_neutraal
 -------------------------------
 Charge =  0 Multiplicity = 1

 SCF Done:  E(RB3LYP) =  -805.784029474     A.U. after    1 cycles

  Exact polarizability: 165.991   3.646 138.609   0.811   1.764 122.643
 Approx polarizability: 211.243   4.743 207.127  -0.991   4.761 182.357

                      1                      2                      3
                      A                      A                      A
 Frequencies --     32.0753                41.0547                60.9136
 Red. masses --      3.8331                 3.5698                 3.5063
 Frc consts  --      0.0023                 0.0035                 0.0077
 IR Inten    --      0.9296                 0.4579                 1.4184

                      4                      5                      6
                      A                      A                      A
 Frequencies --     79.0651                87.2166               113.6481
 Red. masses --      3.4268                 3.6284                 2.5084
 Frc consts  --      0.0126                 0.0163                 0.0191
 IR Inten    --      0.7899                 8.8245                 0.6305

                      7                      8                      9
                      A                      A                      A
 Frequencies --    125.6185               188.5132               201.0971
 Red. masses --      4.9741                 4.7197                 3.7598
 Frc consts  --      0.0462                 0.0988                 0.0896
 IR Inten    --     10.4246                 7.2935                 6.7041

                     10                     11                     12
                      A                      A                      A
 Frequencies --    222.5851               243.6410               261.8526
 Red. masses --      3.2672                 2.9881                 1.7466
 Frc consts  --      0.0954                 0.1045                 0.0706
 IR Inten    --      5.5876                 2.5425                 1.8686

                     13                     14                     15
                      A                      A                      A
 Frequencies --    278.6990               319.1617               357.3462
 Red. masses --      2.1910                 2.8620                 2.4722
 Frc consts  --      0.1003                 0.1718                 0.1860
 IR Inten    --      3.7137                 9.3961                 0.3489

                     16                     17                     18
                      A                      A                      A
 Frequencies --    388.3731               411.1239               424.4420
 Red. masses --      2.3776                 3.0392                 2.7572
 Frc consts  --      0.2113                 0.3027                 0.2927
 IR Inten    --      4.3302                 1.4747                 3.8901

                     19                     20                     21
                      A                      A                      A
 Frequencies --    436.2282               462.7733               499.4046
 Red. masses --      2.9753                 2.2808                 2.1031
 Frc consts  --      0.3336                 0.2878                 0.3090
 IR Inten    --     11.9885                 6.8752                 8.5588

                     22                     23                     24
                      A                      A                      A
 Frequencies --    534.7438               540.5228               554.3263
 Red. masses --      2.0411                 2.2490                 2.1418
 Frc consts  --      0.3439                 0.3871                 0.3878
 IR Inten    --     53.6102                29.9165                 1.9452

                     25                     26                     27
                      A                      A                      A
 Frequencies --    621.9928               708.3431               719.9789
 Red. masses --      3.6089                 5.1329                 2.2084
 Frc consts  --      0.8226                 1.5174                 0.6745
 IR Inten    --     21.4007                 7.7366                66.3443

                     28                     29                     30
                      A                      A                      A
 Frequencies --    728.3838               759.2174               770.3494
 Red. masses --      2.4250                 3.1272                 2.5424
 Frc consts  --      0.7580                 1.0620                 0.8889
 IR Inten    --     88.2764                19.6019                 1.6551

                     31                     32                     33
                      A                      A                      A
 Frequencies --    812.7213               820.8880               846.1728
 Red. masses --      1.9484                 1.5932                 2.6534
 Frc consts  --      0.7583                 0.6326                 1.1194
 IR Inten    --     29.5975                22.3347                 0.3652

                     34                     35                     36
                      A                      A                      A
 Frequencies --    865.1660               879.1569               912.6555
 Red. masses --      2.3272                 1.9846                 2.2450
 Frc consts  --      1.0263                 0.9038                 1.1018
 IR Inten    --      0.4192                10.2812                 4.1672

                     37                     38                     39
                      A                      A                      A
 Frequencies --    914.4524               926.0925               939.0664
 Red. masses --      2.2392                 3.9473                 2.0754
 Frc consts  --      1.1032                 1.9946                 1.0783
 IR Inten    --      5.8193                20.0497                 2.3029

                     40                     41                     42
                      A                      A                      A
 Frequencies --    951.6025               964.1426               974.4588
 Red. masses --      2.3815                 2.0495                 2.1409
 Frc consts  --      1.2706                 1.1225                 1.1978
 IR Inten    --      8.3196                17.2755                 2.1323

                     43                     44                     45
                      A                      A                      A
 Frequencies --   1003.9850              1018.4505              1031.0774
 Red. masses --      2.2323                 2.0195                 2.0435
 Frc consts  --      1.3257                 1.2342                 1.2800
 IR Inten    --      4.9634                11.4706                21.7917

                     46                     47                     48
                      A                      A                      A
 Frequencies --   1064.5260              1079.1497              1084.0363
 Red. masses --      1.7399                 2.4534                 2.6823
 Frc consts  --      1.1617                 1.6834                 1.8571
 IR Inten    --      6.7408                22.9461                59.2378

                     49                     50                     51
                      A                      A                      A
 Frequencies --   1091.1292              1112.3042              1130.8028
 Red. masses --      1.9874                 2.5086                 1.8319
 Frc consts  --      1.3941                 1.8286                 1.3801
 IR Inten    --     17.1578                65.1511                13.9726

                     52                     53                     54
                      A                      A                      A
 Frequencies --   1139.8549              1156.9676              1176.7839
 Red. masses --      1.8697                 1.7339                 1.8221
 Frc consts  --      1.4312                 1.3675                 1.4866
 IR Inten    --     17.0029                15.9654                 9.8403

                     55                     56                     57
                      A                      A                      A
 Frequencies --   1198.3087              1227.5553              1232.5537
 Red. masses --      1.8974                 1.4046                 1.2902
 Frc consts  --      1.6053                 1.2470                 1.1549
 IR Inten    --      2.0065                 1.5181                11.5544

                     58                     59                     60
                      A                      A                      A
 Frequencies --   1243.1370              1256.1176              1273.7459
 Red. masses --      1.3577                 1.3187                 1.9026
 Frc consts  --      1.2362                 1.2259                 1.8187
 IR Inten    --      4.8781                 9.8656                22.7920

                     61                     62                     63
                      A                      A                      A
 Frequencies --   1288.4816              1291.9446              1293.1007
 Red. masses --      1.4064                 1.3545                 1.4455
 Frc consts  --      1.3757                 1.3321                 1.4241
 IR Inten    --     55.2009                80.8670                35.3092

                     64                     65                     66
                      A                      A                      A
 Frequencies --   1329.0970              1337.3457              1350.8207
 Red. masses --      1.3005                 1.3534                 1.3709
 Frc consts  --      1.3535                 1.4262                 1.4739
 IR Inten    --      2.3743                 7.4681                 2.6868

                     67                     68                     69
                      A                      A                      A
 Frequencies --   1360.9291              1372.1950              1374.6514
 Red. masses --      1.4305                 1.3037                 1.3211
 Frc consts  --      1.5610                 1.4463                 1.4709
 IR Inten    --     16.1180                 3.3560                 1.9852

                     70                     71                     72
                      A                      A                      A
 Frequencies --   1387.3912              1399.0870              1409.1599
 Red. masses --      1.4779                 1.3922                 1.3830
 Frc consts  --      1.6761                 1.6056                 1.6181
 IR Inten    --      5.7221                 2.3042                 1.3206

                     73                     74                     75
                      A                      A                      A
 Frequencies --   1413.0760              1417.1941              1420.1578
 Red. masses --      1.3929                 1.4014                 1.4176
 Frc consts  --      1.6387                 1.6584                 1.6846
 IR Inten    --      5.2725                 2.3752                23.1038

                     76                     77                     78
                      A                      A                      A
 Frequencies --   1436.5527              1449.6188              1481.7321
 Red. masses --      1.2613                 1.7442                 1.1611
 Frc consts  --      1.5336                 2.1596                 1.5019
 IR Inten    --     12.5089                30.0663                42.9082

                     79                     80                     81
                      A                      A                      A
 Frequencies --   1505.1801              1511.3066              1521.1105
 Red. masses --      1.0867                 1.0887                 1.0988
 Frc consts  --      1.4506                 1.4651                 1.4979
 IR Inten    --      6.1076                 8.1188                 2.3505

                     82                     83                     84
                      A                      A                      A
 Frequencies --   1523.6782              1525.8421              1537.0334
 Red. masses --      1.0836                 1.0723                 1.0961
 Frc consts  --      1.4822                 1.4709                 1.5257
 IR Inten    --      3.8223                 8.6769                12.8049

                     85                     86                     87
                      A                      A                      A
 Frequencies --   1540.3755              1552.4747              1558.0287
 Red. masses --      1.0610                 1.3245                 1.1124
 Frc consts  --      1.4833                 1.8808                 1.5909
 IR Inten    --     14.6484               176.1880                10.7591

                     88                     89                     90
                      A                      A                      A
 Frequencies --   1572.5274              1701.4828              3008.5158
 Red. masses --      1.6848                 7.7762                 1.0712
 Frc consts  --      2.4546                13.2640                 5.7126
 IR Inten    --    458.3277               248.8052                76.8176

                     91                     92                     93
                      A                      A                      A
 Frequencies --   3013.1996              3026.1170              3037.5600
 Red. masses --      1.0763                 1.0733                 1.0841
 Frc consts  --      5.7574                 5.7908                 5.8934
 IR Inten    --     14.0305                25.8563                38.6370

                     94                     95                     96
                      A                      A                      A
 Frequencies --   3038.2252              3042.0185              3049.0702
 Red. masses --      1.0684                 1.0730                 1.0666
 Frc consts  --      5.8108                 5.8505                 5.8422
 IR Inten    --     81.1541                17.5121                65.5666

                     97                     98                     99
                      A                      A                      A
 Frequencies --   3053.3698              3054.5240              3075.4140
 Red. masses --      1.0488                 1.0607                 1.0952
 Frc consts  --      5.7608                 5.8310                 6.1034
 IR Inten    --     58.6906                27.7774                42.8628

                    100                    101                    102
                      A                      A                      A
 Frequencies --   3082.0528              3099.9983              3112.4981
 Red. masses --      1.0690                 1.0983                 1.0984
 Frc consts  --      5.9826                 6.2187                 6.2692
 IR Inten    --     21.7483                39.1293                30.3461

                    103                    104                    105
                      A                      A                      A
 Frequencies --   3121.6177              3123.2181              3131.0419
 Red. masses --      1.1018                 1.0942                 1.0950
 Frc consts  --      6.3257                 6.2888                 6.3249
 IR Inten    --     32.7451                44.1046                20.3552

                    106                    107                    108
                      A                      A                      A
 Frequencies --   3131.5575              3154.4328              3163.5283
 Red. masses --      1.1023                 1.1002                 1.0878
 Frc consts  --      6.3688                 6.4501                 6.4140
 IR Inten    --     29.5675                 6.0749                10.8853

                    109                    110                    111
                      A                      A                      A
 Frequencies --   3175.7273              3560.5448              3631.1181
 Red. masses --      1.0908                 1.0676                 1.0750
 Frc consts  --      6.4817                 7.9743                 8.3510
 IR Inten    --      4.5062               223.3771                15.6119

 - Thermochemistry -
 -------------------
 Temperature   298.150 Kelvin.  Pressure   1.00000 Atm.
 Atom     1 has atomic number  6 and mass  12.00000

 Molecular mass:   242.16304 amu.
 Principal axes and moments of inertia in atomic units:
                           1         2         3
     Eigenvalues --  2223.970055767.522876208.45592
           X            0.99999   0.00369  -0.00011
           Y           -0.00369   0.99999   0.00351
           Z            0.00012  -0.00351   0.99999
 This molecule is an asymmetric top.
 Rotational symmetry number  1.
 Warning -- assumption of classical behavior for rotation
           may cause significant error
 Rotational temperatures (Kelvin)      0.03895     0.01502     0.01395
 Rotational constants (GHZ):           0.81150     0.31291     0.29069
 Zero-point vibrational energy     916618.7 (Joules/Mol)
                                  219.07712 (Kcal/Mol)
 Warning -- explicit consideration of  24 degrees of freedom as
           vibrations may cause significant error
 Vibrational temperatures:     46.15    59.07    87.64   113.76   125.49
          (Kelvin)            163.51   180.74   271.23   289.33   320.25
                              350.55   376.75   400.99   459.20   514.14
                              558.78   591.52   610.68   627.64   665.83
                              718.53   769.38   777.69   797.55   894.91
                             1019.15  1035.89  1047.98  1092.34  1108.36
                             1169.32  1181.07  1217.45  1244.78  1264.91
                             1313.11  1315.69  1332.44  1351.11  1369.14
                             1387.19  1402.03  1444.51  1465.32  1483.49
                             1531.62  1552.66  1559.69  1569.89  1600.36
                             1626.97  1640.00  1664.62  1693.13  1724.10
                             1766.18  1773.37  1788.60  1807.27  1832.64
                             1853.84  1858.82  1860.48  1912.27  1924.14
                             1943.53  1958.07  1974.28  1977.82  1996.15
                             2012.97  2027.47  2033.10  2039.03  2043.29
                             2066.88  2085.68  2131.88  2165.62  2174.43
                             2188.54  2192.23  2195.35  2211.45  2216.26
                             2233.66  2241.66  2262.52  2448.05  4328.58
                             4335.32  4353.91  4370.37  4371.33  4376.79
                             4386.93  4393.12  4394.78  4424.83  4434.39
                             4460.21  4478.19  4491.31  4493.61  4504.87
                             4505.61  4538.53  4551.61  4569.16  5122.83
                             5224.37

 Zero-point correction=                           0.349122 (Hartree/Particle)
 Thermal correction to Energy=                    0.365392
 Thermal correction to Enthalpy=                  0.366336
 Thermal correction to Gibbs Free Energy=         0.304726
 Sum of electronic and zero-point Energies=           -805.434908
 Sum of electronic and thermal Energies=              -805.418638
 Sum of electronic and thermal Enthalpies=            -805.417694
 Sum of electronic and thermal Free Energies=         -805.479303

                     E (Thermal)             CV                S
                      KCal/Mol        Cal/Mol-Kelvin    Cal/Mol-Kelvin
 Total                  229.287             63.602            129.668
 Electronic               0.000              0.000              0.000
 Translational            0.889              2.981             42.354
 Rotational               0.889              2.981             32.743
 Vibrational            227.509             57.641             54.571
 Vibration     1          0.594              1.983              5.697
 Vibration     2          0.594              1.981              5.208
 Vibration     3          0.597              1.973              4.427
 Vibration     4          0.600              1.963              3.914
 Vibration     5          0.601              1.958              3.722
 Vibration     6          0.607              1.938              3.206
 Vibration     7          0.611              1.927              3.012
 Vibration     8          0.633              1.856              2.242
 Vibration     9          0.638              1.838              2.123
 Vibration    10          0.648              1.807              1.938
 Vibration    11          0.659              1.773              1.776
 Vibration    12          0.669              1.743              1.649
 Vibration    13          0.679              1.713              1.542
 Vibration    14          0.705              1.637              1.314
 Vibration    15          0.733              1.560              1.134
 Vibration    16          0.757              1.495              1.006
 Vibration    17          0.775              1.446              0.923
 Vibration    18          0.786              1.417              0.877
 Vibration    19          0.797              1.391              0.839
 Vibration    20          0.820              1.333              0.758
 Vibration    21          0.855              1.251              0.660
 Vibration    22          0.890              1.173              0.577
 Vibration    23          0.896              1.160              0.564
 Vibration    24          0.910              1.130              0.535

 Optimization completed.
    -- Stationary point found.
 Normal termination of Gaussian 16 at Mon Dec 14 13:55:12 2020.

 ----------------------------------------------------------------------
 # B3LYP/6-311++G(d,p) empiricaldispersion=gd3bj scf=xqc pop=npa geom=c
 heck
 ----------------------------------------------------------------------

 ---------------------------------------
 CID_112427402_JID_7022_Energie_neutraal
 ---------------------------------------
 Structure from the checkpoint file:  "JID_7022.chk"
 Charge =  0 Multiplicity = 1

 SCF Done:  E(RB3LYP) =  -806.020637491     A.U. after   14 cycles
 Normal termination of Gaussian 16 at Mon Dec 14 14:03:32 2020.

 ----------------------------------------------------------------------
 # B3LYP/6-311++G(d,p) empiricaldispersion=gd3bj scf=xqc pop=npa geom=c
 heck
 ----------------------------------------------------------------------

 -------------------------------------
 CID_112427402_JID_7022_Energie_kation
 -------------------------------------
 Structure from the checkpoint file:  "JID_7022.chk"
 Charge =  1 Multiplicity = 2

 SCF Done:  E(UB3LYP) =  -805.721206516     A.U. after   24 cycles
 Normal termination of Gaussian 16 at Mon Dec 14 14:23:11 2020.
 Gaussian 16:  ES64L-G16RevA.03 25-Dec-2016

 ----------------------------------------------------------------------
 # B3LYP/6-311++G(d,p) empiricaldispersion=gd3bj scf=xqc pop=npa geom=c
 heck
 ----------------------------------------------------------------------

 ------------------------------------
 CID_112427402_JID_7022_Energie_anion
 ------------------------------------
 Structure from the checkpoint file:  "JID_7022.chk"
 Charge = -1 Multiplicity = 2

                         Standard orientation:
 ---------------------------------------------------------------------
 Center     Atomic      Atomic             Coordinates (Angstroms)
 Number     Number       Type             X           Y           Z
 ---------------------------------------------------------------------
      1          6           0        3.144552   -2.252237    0.110552
      2          6           0        2.551631   -1.047173    0.845050
      3          6           0        2.860456    0.294702    0.135140
      4          6           0        2.578224    1.528637    1.022713
      5          6           0        1.107449    1.970994    1.017909
      6          6           0        0.636113    2.156029   -0.427528
      7          7           0        0.793634    0.904430   -1.169228
      8          6           0        2.194054    0.475091   -1.249266
      9          6           0       -0.175142   -0.074323   -1.199408
     10          8           0        0.096406   -1.258927   -1.464944
     11          7           0       -1.470798    0.303708   -0.957364
     12          6           0       -2.471495   -0.713038   -0.648442
     13          6           0       -2.389468   -1.191641    0.819192
     14          6           0       -3.221327   -0.125246    1.574399
     15          8           0       -3.839473    0.706071    0.573860
     16          6           0       -3.841326   -0.039624   -0.642765
     17          8           0        1.165691   -1.262573    1.105517
     18          1           0        2.664481   -2.388983   -0.864772
     19          1           0        2.972953   -3.159923    0.697267
     20          1           0        4.223302   -2.138456   -0.046820
     21          1           0        3.017861   -0.982714    1.837199
     22          1           0        3.944417    0.274016   -0.049385
     23          1           0        2.909785    1.327871    2.048624
     24          1           0        3.188444    2.367045    0.656161
     25          1           0        0.486778    1.209341    1.500903
     26          1           0        0.991680    2.909793    1.573828
     27          1           0       -0.390811    2.522114   -0.488974
     28          1           0        1.252201    2.913518   -0.930234
     29          1           0        2.733993    1.255816   -1.800147
     30          1           0        2.230111   -0.437856   -1.840998
     31          1           0       -1.657393    1.199258   -0.530498
     32          1           0       -2.370694   -1.525534   -1.366865
     33          1           0       -1.359048   -1.258086    1.173211
     34          1           0       -2.845364   -2.182740    0.912648
     35          1           0       -3.994232   -0.584718    2.204772
     36          1           0       -2.609652    0.528066    2.204138
     37          1           0       -3.994647    0.659498   -1.468414
     38          1           0       -4.644268   -0.793626   -0.651249
     39          1           0        0.766939   -1.540250    0.255004
 ---------------------------------------------------------------------

 SCF Done:  E(UB3LYP) =  -806.008795994     A.U. after   31 cycles

 The electronic state is 2-A.
 Alpha  occ. eigenvalues --  -19.04051 -19.00997 -18.99152 -14.24275 -14.24034
 Alpha  occ. eigenvalues --  -10.20382 -10.13218 -10.12879 -10.12493 -10.12225
 Alpha  occ. eigenvalues --  -10.11243 -10.10419 -10.08217 -10.07805 -10.06938
 Alpha  occ. eigenvalues --  -10.06912 -10.06544  -0.96258  -0.95492  -0.91513
 Alpha  occ. eigenvalues --   -0.85057  -0.82919  -0.71182  -0.68652  -0.67854
 Alpha  occ. eigenvalues --   -0.65563  -0.63529  -0.59001  -0.55466  -0.52156
 Alpha  occ. eigenvalues --   -0.51613  -0.51156  -0.49554  -0.47847  -0.43989
 Alpha  occ. eigenvalues --   -0.41919  -0.40486  -0.38827  -0.38491  -0.37803
 Alpha  occ. eigenvalues --   -0.37080  -0.36535  -0.35817  -0.34246  -0.33464
 Alpha  occ. eigenvalues --   -0.32691  -0.32380  -0.31580  -0.31138  -0.30000
 Alpha  occ. eigenvalues --   -0.29328  -0.28282  -0.27486  -0.27124  -0.27017
 Alpha  occ. eigenvalues --   -0.26416  -0.25310  -0.24140  -0.23744  -0.23250
 Alpha  occ. eigenvalues --   -0.21545  -0.18945  -0.17993  -0.16750  -0.16743
 Alpha  occ. eigenvalues --   -0.14114   0.04064
 Alpha virt. eigenvalues --    0.05552   0.06757   0.07393   0.07884   0.08271
 Alpha virt. eigenvalues --    0.08804   0.09486   0.09718   0.10197   0.10612
 Alpha virt. eigenvalues --    0.11009   0.11259   0.11722   0.12525   0.12688

  Beta  occ. eigenvalues --  -19.04045 -19.00993 -18.99148 -14.24277 -14.24020
  Beta  occ. eigenvalues --  -10.20379 -10.13198 -10.12862 -10.12490 -10.12218
  Beta  occ. eigenvalues --  -10.11214 -10.10401 -10.08207 -10.07796 -10.06920
  Beta  occ. eigenvalues --  -10.06889 -10.06532  -0.96249  -0.95482  -0.91503
  Beta  occ. eigenvalues --   -0.85046  -0.82902  -0.71149  -0.68630  -0.67818
  Beta  occ. eigenvalues --   -0.65532  -0.63499  -0.58962  -0.55423  -0.52127
  Beta  occ. eigenvalues --   -0.51569  -0.51111  -0.49526  -0.47823  -0.43937
  Beta  occ. eigenvalues --   -0.41890  -0.40454  -0.38803  -0.38455  -0.37771
  Beta  occ. eigenvalues --   -0.37055  -0.36507  -0.35789  -0.34216  -0.33442
  Beta  occ. eigenvalues --   -0.32665  -0.32358  -0.31545  -0.31104  -0.29971
  Beta  occ. eigenvalues --   -0.29303  -0.28261  -0.27464  -0.27097  -0.26992
  Beta  occ. eigenvalues --   -0.26394  -0.25279  -0.24116  -0.23714  -0.23218
  Beta  occ. eigenvalues --   -0.21517  -0.18925  -0.17980  -0.16736  -0.16720
  Beta  occ. eigenvalues --   -0.14092
  Beta virt. eigenvalues --    0.06077   0.06621   0.07443   0.07832   0.08441
  Beta virt. eigenvalues --    0.08691   0.09131   0.09800   0.09976   0.10624
  Beta virt. eigenvalues --    0.11031   0.11243   0.11450   0.11871   0.12641

 Mulliken charges and spin densities:
               1          2
     1  C    0.099536  -0.684355
     2  C   -0.216553  -0.049651
     3  C   -0.470892   1.093377
     4  C    1.384082  -2.085642
     5  C   -0.361033   0.126825
     6  C   -0.042188  -0.195872
     7  N    0.126824   0.004745
     8  C    0.791588  -1.340560
     9  C   -0.095441  -0.486506
    10  O   -0.337989   0.013693
    11  N    0.176059  -0.039880
    12  C   -0.904381   0.923253
    13  C    0.335083  -0.486373
    14  C    0.097374  -0.557775
    15  O   -0.109283   0.010556
    16  C    0.035220  -0.565483
    17  O   -0.135872  -0.017455
    18  H    0.141704   0.014350
    19  H    0.107734   0.043300
    20  H   -0.092189   0.216480
    21  H   -0.031737   0.207217
    22  H   -0.244121   0.473550
    23  H   -0.095186   0.229305
    24  H   -0.396599   0.569138
    25  H    0.150208   0.000364
    26  H   -0.377959   0.572544
    27  H   -0.911759   1.087755
    28  H   -0.316095   0.493400
    29  H   -0.371535   0.568713
    30  H    0.237495  -0.032090
    31  H    1.035898  -0.778669
    32  H    0.078921   0.161461
    33  H    0.328017  -0.167937
    34  H   -0.087055   0.275191
    35  H   -0.131638   0.270009
    36  H   -0.079416   0.271727
    37  H   -0.122861   0.317788
    38  H   -0.287328   0.434253
    39  H    0.093367   0.109254
 Sum of Mulliken charges =  -1.00000   1.00000

 Dipole moment (field-independent basis, Debye):
    X=             -1.7639    Y=             -3.8187    Z=             -0.4826  Tot=              4.2340
 Quadrupole moment (field-independent basis, Debye-Ang):
   XX=           -186.2299   YY=           -158.6419   ZZ=           -141.3348
   XY=            -10.5353   XZ=              2.1611   YZ=             -0.9272

 Summary of Natural Population Analysis:

                                       Natural Population
                Natural  -----------------------------------------------
    Atom  No    Charge         Core      Valence    Rydberg      Total
 -----------------------------------------------------------------------
      C    1   -0.30018      0.99964     2.29510    0.00544     3.30018
      C    2    0.06707      0.99954     1.91887    0.01452     2.93293
      C    3   -0.12652      0.99956     2.11446    0.01250     3.12652
      C    4   -0.18733      0.99961     2.17754    0.01018     3.18733
      C    5   -0.19964      0.99961     2.19133    0.00869     3.19964
      C    6   -0.08177      0.99960     2.07061    0.01157     3.08177
      N    7   -0.26354      0.99965     2.75181    0.01208     3.76354
      C    8   -0.08753      0.99958     2.07549    0.01246     3.08753
      C    9    0.41801      0.99964     1.55925    0.02310     2.58199
      O   10   -0.36805      0.99988     3.36394    0.00423     4.36805
      N   11   -0.33084      0.99965     2.82148    0.00971     3.83084
      C   12   -0.02404      0.99959     2.01098    0.01346     3.02404
      C   13   -0.21644      0.99962     2.20842    0.00840     3.21644
      C   14   -0.01322      0.99961     2.00344    0.01016     3.01322
      O   15   -0.30437      0.99990     3.29576    0.00872     4.30437
      C   16   -0.01419      0.99957     2.00165    0.01297     3.01419
      O   17   -0.39072      0.99989     3.38458    0.00625     4.39072
      H   18    0.10267      0.00000     0.39644    0.00089     0.39733
      H   19    0.10090      0.00000     0.39834    0.00076     0.39910
      H   20    0.09932      0.00000     0.39988    0.00080     0.40068
      H   21    0.08282      0.00000     0.41536    0.00182     0.41718
      H   22    0.10460      0.00000     0.39361    0.00180     0.39540
      H   23    0.10056      0.00000     0.39809    0.00135     0.39944
      H   24    0.09909      0.00000     0.39880    0.00211     0.40091
      H   25    0.10406      0.00000     0.39412    0.00182     0.39594
      H   26    0.10136      0.00000     0.39716    0.00147     0.39864
      H   27    0.09552      0.00000     0.40290    0.00158     0.40448
      H   28    0.09926      0.00000     0.39878    0.00196     0.40074
      H   29    0.09908      0.00000     0.39965    0.00127     0.40092
      H   30    0.11363      0.00000     0.38514    0.00123     0.38637
      H   31    0.19564      0.00000     0.30055    0.00381     0.30436
      H   32    0.11483      0.00000     0.38421    0.00096     0.38517
      H   33    0.11708      0.00000     0.38127    0.00165     0.38292
      H   34    0.10094      0.00000     0.39776    0.00129     0.39906
      H   35    0.08273      0.00000     0.41569    0.00158     0.41727
      H   36    0.08968      0.00000     0.40877    0.00155     0.41032
      H   37    0.09615      0.00000     0.40256    0.00129     0.40385
      H   38    0.08300      0.00000     0.41558    0.00142     0.41700
      H   39    0.24038      0.00000     0.25587    0.00375     0.25962
 =======================================================================
   * Total *   -0.00000     16.99415    48.78526    0.22059    66.00000

 Normal termination of Gaussian 16 at Mon Dec 14 14:47:43 2020.
