 Gaussian 16, Revision A.03,

 -----------------------------------------------------------
 # opt freq B3LYP/6-31G(d) empiricaldispersion=gd3bj scf=xqc
 -----------------------------------------------------------

 ------------------------------
 CID_17330450_JID_4614_neutraal
 ------------------------------
 Symbolic Z-matrix:
 Charge =  0 Multiplicity = 1

 SCF Done:  E(RB3LYP) =  -637.080966865     A.U. after   14 cycles
 SCF Done:  E(RB3LYP) =  -637.084218054     A.U. after   12 cycles
 SCF Done:  E(RB3LYP) =  -637.084265433     A.U. after   12 cycles
 SCF Done:  E(RB3LYP) =  -637.082549665     A.U. after   12 cycles
 SCF Done:  E(RB3LYP) =  -637.085051996     A.U. after   12 cycles
 SCF Done:  E(RB3LYP) =  -637.085382316     A.U. after   11 cycles
 SCF Done:  E(RB3LYP) =  -637.085481123     A.U. after   11 cycles
 SCF Done:  E(RB3LYP) =  -637.085527247     A.U. after   10 cycles
 SCF Done:  E(RB3LYP) =  -637.085562782     A.U. after   10 cycles
 SCF Done:  E(RB3LYP) =  -637.085583021     A.U. after   10 cycles
 SCF Done:  E(RB3LYP) =  -637.085696920     A.U. after    8 cycles
 SCF Done:  E(RB3LYP) =  -637.085697516     A.U. after    9 cycles
 SCF Done:  E(RB3LYP) =  -637.085697492     A.U. after    9 cycles
 SCF Done:  E(RB3LYP) =  -637.085697715     A.U. after    7 cycles
 Optimization completed.
    -- Stationary point found.
 Normal termination of Gaussian 16 at Thu Dec 10 10:27:53 2020.

 --------------------------------------------------------------------
 #N Geom=AllCheck Guess=TCheck SCRF=Check GenChk RB3LYP/6-31G(d) Freq
 --------------------------------------------------------------------

 Structure from the checkpoint file:  "JID_4614.chk"
 ------------------------------
 CID_17330450_JID_4614_neutraal
 ------------------------------
 Charge =  0 Multiplicity = 1

 SCF Done:  E(RB3LYP) =  -637.085697715     A.U. after    1 cycles

  Exact polarizability: 153.449   3.589 114.127  -3.595  -0.410 110.294
 Approx polarizability: 185.693  12.325 177.542  -6.424   2.555 157.975

                      1                      2                      3
                      A                      A                      A
 Frequencies --     25.1325                36.8617                47.9024
 Red. masses --      3.5441                 3.9687                 3.2541
 Frc consts  --      0.0013                 0.0032                 0.0044
 IR Inten    --      0.0649                 1.5818                 0.5358

                      4                      5                      6
                      A                      A                      A
 Frequencies --     63.4297                88.8750               150.3774
 Red. masses --      4.2083                 3.0492                 2.9862
 Frc consts  --      0.0100                 0.0142                 0.0398
 IR Inten    --      1.9512                 0.0504                 0.1643

                      7                      8                      9
                      A                      A                      A
 Frequencies --    185.2969               203.4052               226.7229
 Red. masses --      1.1659                 2.6993                 1.1764
 Frc consts  --      0.0236                 0.0658                 0.0356
 IR Inten    --      0.0511                 0.6610                 0.0505

                     10                     11                     12
                      A                      A                      A
 Frequencies --    234.1761               243.8690               249.8680
 Red. masses --      1.5550                 1.6318                 1.6281
 Frc consts  --      0.0502                 0.0572                 0.0599
 IR Inten    --      1.9326                 3.1864                 0.1319

                     13                     14                     15
                      A                      A                      A
 Frequencies --    273.1668               290.0067               293.3491
 Red. masses --      1.9182                 1.2910                 2.4391
 Frc consts  --      0.0843                 0.0640                 0.1237
 IR Inten    --      0.9806                 0.0460                 0.1082

                     16                     17                     18
                      A                      A                      A
 Frequencies --    356.0832               360.3203               378.3324
 Red. masses --      3.7192                 3.0176                 3.9649
 Frc consts  --      0.2778                 0.2308                 0.3344
 IR Inten    --      3.9709                 2.5972                 4.3615

                     19                     20                     21
                      A                      A                      A
 Frequencies --    396.0690               405.9943               543.8165
 Red. masses --      2.2264                 2.7856                 3.3393
 Frc consts  --      0.2058                 0.2705                 0.5818
 IR Inten    --      0.2883                 0.9592                 7.8559

                     22                     23                     24
                      A                      A                      A
 Frequencies --    569.3381               583.6319               626.4314
 Red. masses --      3.0489                 2.1294                 1.3569
 Frc consts  --      0.5823                 0.4273                 0.3137
 IR Inten    --      9.7224                 7.7620                52.3253

                     25                     26                     27
                      A                      A                      A
 Frequencies --    646.0826               674.2031               702.1121
 Red. masses --      2.6348                 3.5345                 3.3751
 Frc consts  --      0.6480                 0.9466                 0.9803
 IR Inten    --     10.4465                13.1375                 9.3288

                     28                     29                     30
                      A                      A                      A
 Frequencies --    763.0000               829.7652               857.0741
 Red. masses --      4.8072                 2.9177                 2.3428
 Frc consts  --      1.6489                 1.1836                 1.0140
 IR Inten    --     23.8449                 2.3605                 1.9870

                     31                     32                     33
                      A                      A                      A
 Frequencies --    896.1291               903.6864               936.8370
 Red. masses --      1.9934                 1.6101                 2.0216
 Frc consts  --      0.9431                 0.7747                 1.0454
 IR Inten    --      9.4205                 8.9792                 3.7379

                     34                     35                     36
                      A                      A                      A
 Frequencies --    945.2414               952.2432               954.7760
 Red. masses --      2.0791                 1.7145                 1.6982
 Frc consts  --      1.0945                 0.9160                 0.9121
 IR Inten    --      6.1998                 1.2567                 0.8358

                     37                     38                     39
                      A                      A                      A
 Frequencies --    961.4978               980.3326               999.6529
 Red. masses --      2.5364                 1.2028                 1.8264
 Frc consts  --      1.3815                 0.6811                 1.0754
 IR Inten    --     21.2085                 0.0915                36.2374

                     40                     41                     42
                      A                      A                      A
 Frequencies --   1042.3061              1054.7440              1061.5679
 Red. masses --      1.8496                 1.3806                 1.4366
 Frc consts  --      1.1839                 0.9049                 0.9539
 IR Inten    --     19.9481                 2.6839                 0.9842

                     43                     44                     45
                      A                      A                      A
 Frequencies --   1065.4374              1111.5563              1159.5398
 Red. masses --      1.4031                 6.1152                 2.6235
 Frc consts  --      0.9384                 4.4517                 2.0783
 IR Inten    --      0.5219               169.6184                 2.9260

                     46                     47                     48
                      A                      A                      A
 Frequencies --   1175.4564              1201.5372              1219.6960
 Red. masses --      1.9637                 2.2809                 1.4720
 Frc consts  --      1.5986                 1.9402                 1.2902
 IR Inten    --      1.6024                 9.3908                14.3586

                     49                     50                     51
                      A                      A                      A
 Frequencies --   1221.4239              1246.1082              1247.5165
 Red. masses --      1.6723                 2.5577                 2.6241
 Frc consts  --      1.4699                 2.3399                 2.4062
 IR Inten    --      9.4754                54.6959                41.0094

                     52                     53                     54
                      A                      A                      A
 Frequencies --   1256.0302              1273.9906              1324.6212
 Red. masses --      2.6025                 1.2454                 1.3463
 Frc consts  --      2.4190                 1.1909                 1.3918
 IR Inten    --      3.9272                 2.9783                 0.3621

                     55                     56                     57
                      A                      A                      A
 Frequencies --   1336.0960              1349.4420              1368.3861
 Red. masses --      1.2627                 1.3055                 1.4318
 Frc consts  --      1.3281                 1.4007                 1.5797
 IR Inten    --      1.0875                 3.0892                41.2027

                     58                     59                     60
                      A                      A                      A
 Frequencies --   1372.9160              1379.8771              1407.9891
 Red. masses --      1.3338                 2.6866                 1.3360
 Frc consts  --      1.4813                 3.0139                 1.5605
 IR Inten    --      0.5220               160.2691                 1.8298

                     61                     62                     63
                      A                      A                      A
 Frequencies --   1420.9881              1431.2231              1432.2838
 Red. masses --      1.3200                 1.2311                 1.2255
 Frc consts  --      1.5704                 1.4858                 1.4813
 IR Inten    --      3.2350                 1.8114                 1.8993

                     64                     65                     66
                      A                      A                      A
 Frequencies --   1440.9168              1463.1797              1503.4771
 Red. masses --      1.3155                 1.2310                 1.4721
 Frc consts  --      1.6092                 1.5527                 1.9605
 IR Inten    --     21.6045                20.3603                48.6334

                     67                     68                     69
                      A                      A                      A
 Frequencies --   1509.2490              1513.2605              1515.9820
 Red. masses --      1.0574                 1.0594                 1.0927
 Frc consts  --      1.4190                 1.4294                 1.4796
 IR Inten    --      2.3448                 3.5923                 1.6750

                     70                     71                     72
                      A                      A                      A
 Frequencies --   1518.2786              1525.3550              1531.9789
 Red. masses --      1.0484                 1.0767                 1.0953
 Frc consts  --      1.4240                 1.4760                 1.5145
 IR Inten    --      0.2947                 2.5379                 6.5976

                     73                     74                     75
                      A                      A                      A
 Frequencies --   1533.7229              1535.1327              1538.6887
 Red. masses --      1.0581                 1.0910                 1.0539
 Frc consts  --      1.4664                 1.5149                 1.4701
 IR Inten    --      2.8368                 4.8924                 5.6059

                     76                     77                     78
                      A                      A                      A
 Frequencies --   1548.5531              1559.6027              1758.0187
 Red. masses --      1.0696                 1.0973                 7.5523
 Frc consts  --      1.5112                 1.5726                13.7523
 IR Inten    --     27.8359                 1.7915               331.3157

                     79                     80                     81
                      A                      A                      A
 Frequencies --   3006.9267              3019.9806              3053.4530
 Red. masses --      1.0717                 1.0851                 1.0377
 Frc consts  --      5.7092                 5.8307                 5.7003
 IR Inten    --     87.6741                35.0551                26.2448

                     82                     83                     84
                      A                      A                      A
 Frequencies --   3054.2551              3057.8475              3063.1062
 Red. masses --      1.0384                 1.0442                 1.0393
 Frc consts  --      5.7073                 5.7524                 5.7456
 IR Inten    --     10.4517                 6.2921                30.5214

                     85                     86                     87
                      A                      A                      A
 Frequencies --   3066.7016              3070.5934              3097.8886
 Red. masses --      1.0639                 1.0587                 1.0930
 Frc consts  --      5.8954                 5.8812                 6.1800
 IR Inten    --     14.6641                33.7124                58.7237

                     88                     89                     90
                      A                      A                      A
 Frequencies --   3113.7715              3117.1341              3121.7240
 Red. masses --      1.1021                 1.1016                 1.0986
 Frc consts  --      6.2956                 6.3065                 6.3077
 IR Inten    --     16.2838                21.2821                31.0497

                     91                     92                     93
                      A                      A                      A
 Frequencies --   3122.2922              3131.9911              3133.8353
 Red. masses --      1.1000                 1.1033                 1.0981
 Frc consts  --      6.3180                 6.3763                 6.3541
 IR Inten    --     11.2449                28.3362                34.4127

                     94                     95                     96
                      A                      A                      A
 Frequencies --   3138.3298              3144.0952              3150.2144
 Red. masses --      1.0995                 1.0981                 1.1027
 Frc consts  --      6.3800                 6.3959                 6.4476
 IR Inten    --     48.5592                30.5905                12.8414

                     97                     98                     99
                      A                      A                      A
 Frequencies --   3152.9536              3169.4586              3560.5403
 Red. masses --      1.1027                 1.0847                 1.0744
 Frc consts  --      6.4587                 6.4198                 8.0252
 IR Inten    --     21.8963                19.4938                 8.6566

 - Thermochemistry -
 -------------------
 Temperature   298.150 Kelvin.  Pressure   1.00000 Atm.
 Atom     1 has atomic number  6 and mass  12.00000

 Molecular mass:   199.15723 amu.
 Principal axes and moments of inertia in atomic units:
                           1         2         3
     Eigenvalues --  1372.171175080.964585192.75923
           X            0.99974  -0.02171  -0.00639
           Y            0.02051   0.98851  -0.14979
           Z            0.00957   0.14962   0.98870
 This molecule is an asymmetric top.
 Rotational symmetry number  1.
 Warning -- assumption of classical behavior for rotation
           may cause significant error
 Rotational temperatures (Kelvin)      0.06312     0.01705     0.01668
 Rotational constants (GHZ):           1.31524     0.35520     0.34755
 Zero-point vibrational energy     828643.1 (Joules/Mol)
                                  198.05046 (Kcal/Mol)
 Warning -- explicit consideration of  23 degrees of freedom as
           vibrations may cause significant error
 Vibrational temperatures:     36.16    53.04    68.92    91.26   127.87
          (Kelvin)            216.36   266.60   292.65   326.20   336.93
                              350.87   359.50   393.03   417.25   422.06
                              512.32   518.42   544.34   569.85   584.14
                              782.43   819.15   839.72   901.30   929.57
                              970.03  1010.18  1097.79  1193.85  1233.14
                             1289.33  1300.20  1347.90  1359.99  1370.07
                             1373.71  1383.38  1410.48  1438.28  1499.65
                             1517.54  1527.36  1532.93  1599.28  1668.32
                             1691.22  1728.74  1754.87  1757.36  1792.87
                             1794.90  1807.15  1832.99  1905.83  1922.34
                             1941.55  1968.80  1975.32  1985.34  2025.78
                             2044.48  2059.21  2060.74  2073.16  2105.19
                             2163.17  2171.47  2177.24  2181.16  2184.46
                             2194.65  2204.18  2206.69  2208.71  2213.83
                             2228.02  2243.92  2529.40  4326.30  4345.08
                             4393.24  4394.39  4399.56  4407.13  4412.30
                             4417.90  4457.17  4480.02  4484.86  4491.46
                             4492.28  4506.24  4508.89  4515.36  4523.65
                             4532.46  4536.40  4560.14  5122.82

 Zero-point correction=                           0.315613 (Hartree/Particle)
 Thermal correction to Energy=                    0.331479
 Thermal correction to Enthalpy=                  0.332424
 Thermal correction to Gibbs Free Energy=         0.271628
 Sum of electronic and zero-point Energies=           -636.770084
 Sum of electronic and thermal Energies=              -636.754218
 Sum of electronic and thermal Enthalpies=            -636.753274
 Sum of electronic and thermal Free Energies=         -636.814070

                     E (Thermal)             CV                S
                      KCal/Mol        Cal/Mol-Kelvin    Cal/Mol-Kelvin
 Total                  208.006             59.427            127.955
 Electronic               0.000              0.000              0.000
 Translational            0.889              2.981             41.772
 Rotational               0.889              2.981             31.960
 Vibrational            206.229             53.466             54.223
 Vibration     1          0.593              1.985              6.181
 Vibration     2          0.594              1.982              5.421
 Vibration     3          0.595              1.978              4.902
 Vibration     4          0.597              1.972              4.348
 Vibration     5          0.602              1.957              3.685
 Vibration     6          0.618              1.902              2.667
 Vibration     7          0.631              1.860              2.274
 Vibration     8          0.639              1.835              2.102
 Vibration     9          0.650              1.800              1.905
 Vibration    10          0.654              1.789              1.847
 Vibration    11          0.659              1.773              1.774
 Vibration    12          0.663              1.763              1.732
 Vibration    13          0.676              1.723              1.576
 Vibration    14          0.686              1.692              1.474
 Vibration    15          0.688              1.686              1.455
 Vibration    16          0.732              1.563              1.139
 Vibration    17          0.735              1.554              1.121
 Vibration    18          0.749              1.516              1.046
 Vibration    19          0.763              1.479              0.977
 Vibration    20          0.771              1.457              0.941
 Vibration    21          0.899              1.153              0.557
 Vibration    22          0.925              1.098              0.506
 Vibration    23          0.941              1.067              0.479

 Optimization completed.
    -- Stationary point found.
 Normal termination of Gaussian 16 at Thu Dec 10 10:39:50 2020.

 ----------------------------------------------------------------------
 # B3LYP/6-311++G(d,p) empiricaldispersion=gd3bj scf=xqc pop=npa geom=c
 heck
 ----------------------------------------------------------------------

 --------------------------------------
 CID_17330450_JID_4614_Energie_neutraal
 --------------------------------------
 Structure from the checkpoint file:  "JID_4614.chk"
 Charge =  0 Multiplicity = 1

 SCF Done:  E(RB3LYP) =  -637.271614712     A.U. after   14 cycles
 Normal termination of Gaussian 16 at Thu Dec 10 10:45:40 2020.

 ----------------------------------------------------------------------
 # B3LYP/6-311++G(d,p) empiricaldispersion=gd3bj scf=xqc pop=npa geom=c
 heck
 ----------------------------------------------------------------------

 ------------------------------------
 CID_17330450_JID_4614_Energie_kation
 ------------------------------------
 Structure from the checkpoint file:  "JID_4614.chk"
 Charge =  1 Multiplicity = 2

 SCF Done:  E(UB3LYP) =  -636.957990080     A.U. after   33 cycles
 SCF Done:  E(UB3LYP) =  -636.957990080     a.u. after    1 cycles
 Normal termination of Gaussian 16 at Thu Dec 10 11:04:52 2020.
 Gaussian 16:  ES64L-G16RevA.03 25-Dec-2016

 ----------------------------------------------------------------------
 # B3LYP/6-311++G(d,p) empiricaldispersion=gd3bj scf=xqc pop=npa geom=c
 heck
 ----------------------------------------------------------------------

 -----------------------------------
 CID_17330450_JID_4614_Energie_anion
 -----------------------------------
 Structure from the checkpoint file:  "JID_4614.chk"
 Charge = -1 Multiplicity = 2

                         Standard orientation:
 ---------------------------------------------------------------------
 Center     Atomic      Atomic             Coordinates (Angstroms)
 Number     Number       Type             X           Y           Z
 ---------------------------------------------------------------------
      1          6           0       -1.099811   -0.696642    2.064054
      2          6           0       -0.494849   -0.384569    0.694237
      3          6           0       -1.545797   -0.024615   -0.374348
      4          6           0       -2.395178    1.227821   -0.101955
      5          6           0       -3.731612    0.858856   -0.760251
      6          6           0       -3.812969   -0.638681   -0.459404
      7          8           0       -2.465518   -1.118312   -0.509548
      8          7           0        0.489453    0.686252    0.802843
      9          6           0        1.753535    0.872676    0.291028
     10          8           0        2.266370    1.982956    0.398346
     11          6           0        2.528339   -0.303652   -0.348485
     12          6           0        2.709502   -1.447525    0.671803
     13          6           0        1.835671   -0.806151   -1.633650
     14          6           0        3.921704    0.222309   -0.734789
     15          1           0       -1.532319    0.196040    2.530131
     16          1           0       -0.325854   -1.078606    2.736365
     17          1           0       -1.886484   -1.448685    1.960506
     18          1           0        0.007753   -1.283667    0.343428
     19          1           0       -1.014683    0.097776   -1.329309
     20          1           0       -2.539586    1.381405    0.973809
     21          1           0       -1.940848    2.132316   -0.514250
     22          1           0       -4.582180    1.421654   -0.364489
     23          1           0       -3.682844    1.026314   -1.842215
     24          1           0       -4.236002   -0.816770    0.541263
     25          1           0       -4.405153   -1.202435   -1.187348
     26          1           0        0.141592    1.552915    1.200094
     27          1           0        1.767411   -1.908638    0.978969
     28          1           0        3.334442   -2.234232    0.233694
     29          1           0        3.212818   -1.081309    1.573099
     30          1           0        1.665247    0.022205   -2.330379
     31          1           0        2.484532   -1.533890   -2.134244
     32          1           0        0.877320   -1.297619   -1.451726
     33          1           0        3.847676    1.039792   -1.456295
     34          1           0        4.454426    0.604933    0.139063
     35          1           0        4.508539   -0.589375   -1.179892
 ---------------------------------------------------------------------

 SCF Done:  E(UB3LYP) =  -637.258472531     A.U. after   33 cycles
 SCF Done:  E(UB3LYP) =  -637.258472531     a.u. after    1 cycles

 The electronic state is 2-A.
 Alpha  occ. eigenvalues --  -19.02420 -18.99154 -14.24029 -10.17852 -10.12585
 Alpha  occ. eigenvalues --  -10.12152 -10.11572 -10.10675 -10.07601 -10.07588
 Alpha  occ. eigenvalues --  -10.07585 -10.07361 -10.06769 -10.06616  -0.94494
 Alpha  occ. eigenvalues --   -0.94093  -0.82913  -0.73019  -0.69334  -0.68209
 Alpha  occ. eigenvalues --   -0.62734  -0.60556  -0.59628  -0.55428  -0.53693
 Alpha  occ. eigenvalues --   -0.50420  -0.47873  -0.45636  -0.42029  -0.40228
 Alpha  occ. eigenvalues --   -0.39236  -0.37010  -0.36644  -0.35993  -0.34970
 Alpha  occ. eigenvalues --   -0.34060  -0.33504  -0.32190  -0.31171  -0.30403
 Alpha  occ. eigenvalues --   -0.29574  -0.29065  -0.28575  -0.27985  -0.27584
 Alpha  occ. eigenvalues --   -0.26491  -0.26157  -0.25169  -0.24636  -0.23948
 Alpha  occ. eigenvalues --   -0.23667  -0.22359  -0.17419  -0.15986  -0.14935
 Alpha  occ. eigenvalues --    0.04281
 Alpha virt. eigenvalues --    0.05966   0.06960   0.07933   0.08101   0.08486
 Alpha virt. eigenvalues --    0.08768   0.09874   0.09994   0.10330   0.10699
 Alpha virt. eigenvalues --    0.10898   0.11334   0.11859   0.12478   0.13280

  Beta  occ. eigenvalues --  -19.02420 -18.99150 -14.24025 -10.17852 -10.12578
  Beta  occ. eigenvalues --  -10.12145 -10.11544 -10.10672 -10.07581 -10.07561
  Beta  occ. eigenvalues --  -10.07560 -10.07325 -10.06735 -10.06605  -0.94489
  Beta  occ. eigenvalues --   -0.94085  -0.82904  -0.73004  -0.69299  -0.68172
  Beta  occ. eigenvalues --   -0.62686  -0.60513  -0.59599  -0.55379  -0.53663
  Beta  occ. eigenvalues --   -0.50333  -0.47832  -0.45607  -0.41998  -0.40177
  Beta  occ. eigenvalues --   -0.39202  -0.36978  -0.36614  -0.35967  -0.34944
  Beta  occ. eigenvalues --   -0.34029  -0.33487  -0.32155  -0.31142  -0.30374
  Beta  occ. eigenvalues --   -0.29549  -0.29024  -0.28548  -0.27961  -0.27559
  Beta  occ. eigenvalues --   -0.26467  -0.26111  -0.25135  -0.24615  -0.23905
  Beta  occ. eigenvalues --   -0.23635  -0.22335  -0.17408  -0.15975  -0.14924
  Beta virt. eigenvalues --    0.06263   0.07036   0.07651   0.08386   0.08689
  Beta virt. eigenvalues --    0.08911   0.09167   0.10073   0.10394   0.10712
  Beta virt. eigenvalues --    0.10916   0.11283   0.11656   0.12139   0.12690

 Mulliken charges and spin densities:
               1          2
     1  C    1.571927  -2.075542
     2  C   -0.258921   0.047749
     3  C   -1.747063   1.356227
     4  C    0.361103  -0.591230
     5  C    0.182121  -0.596189
     6  C    0.652629  -0.889639
     7  O   -0.091574   0.010039
     8  N   -0.064229   0.112680
     9  C    0.209039  -0.435229
    10  O   -0.313075   0.004916
    11  C   -0.473234   1.070716
    12  C    0.742938  -1.225921
    13  C    0.056977  -0.618242
    14  C   -0.469631  -0.107200
    15  H   -0.366158   0.521203
    16  H    0.039328   0.132692
    17  H   -0.167308   0.325440
    18  H    0.533075  -0.313484
    19  H    0.079303   0.155480
    20  H    0.056921   0.101273
    21  H   -0.157088   0.334005
    22  H   -0.796760   0.979501
    23  H   -0.025679   0.168142
    24  H   -0.054369   0.192644
    25  H   -0.297329   0.462564
    26  H    0.296267   0.014584
    27  H   -0.289799   0.404130
    28  H   -0.078997   0.232472
    29  H   -0.046098   0.211205
    30  H    0.056564   0.111429
    31  H   -0.100621   0.260278
    32  H   -0.235005   0.386518
    33  H    0.076428   0.089422
    34  H    0.089487   0.075323
    35  H    0.028828   0.092044
 Sum of Mulliken charges =  -1.00000   1.00000

 Dipole moment (field-independent basis, Debye):
    X=              4.4057    Y=             -1.0486    Z=             -0.8255  Tot=              4.6034
 Quadrupole moment (field-independent basis, Debye-Ang):
   XX=           -175.8100   YY=           -131.9443   ZZ=           -128.1241
   XY=              3.6068   XZ=              0.2262   YZ=             -0.2226

 Summary of Natural Population Analysis:

                                       Natural Population
                Natural  -----------------------------------------------
    Atom  No    Charge         Core      Valence    Rydberg      Total
 -----------------------------------------------------------------------
      C    1   -0.28937      0.99964     2.28337    0.00636     3.28937
      C    2   -0.02162      0.99955     2.00879    0.01327     3.02162
      C    3    0.06875      0.99953     1.91718    0.01454     2.93125
      C    4   -0.20692      0.99962     2.19896    0.00834     3.20692
      C    5   -0.20159      0.99964     2.19420    0.00774     3.20159
      C    6   -0.00699      0.99959     1.99503    0.01236     3.00699
      O    7   -0.30896      0.99989     3.30073    0.00834     4.30896
      N    8   -0.32070      0.99966     2.81012    0.01093     3.82070
      C    9    0.35438      0.99961     1.62237    0.02364     2.64562
      O   10   -0.32778      0.99988     3.32200    0.00589     4.32778
      C   11   -0.08052      0.99956     2.07118    0.00979     3.08052
      C   12   -0.28232      0.99963     2.27503    0.00766     3.28232
      C   13   -0.28427      0.99963     2.27679    0.00785     3.28427
      C   14   -0.27987      0.99964     2.27351    0.00672     3.27987
      H   15    0.09822      0.00000     0.40036    0.00141     0.40178
      H   16    0.10341      0.00000     0.39550    0.00109     0.39659
      H   17    0.10954      0.00000     0.38912    0.00133     0.39046
      H   18    0.10177      0.00000     0.39531    0.00292     0.39823
      H   19    0.08676      0.00000     0.41130    0.00194     0.41324
      H   20    0.09960      0.00000     0.39855    0.00185     0.40040
      H   21    0.10747      0.00000     0.39125    0.00128     0.39253
      H   22    0.10736      0.00000     0.38990    0.00273     0.39264
      H   23    0.09761      0.00000     0.40092    0.00147     0.40239
      H   24    0.07978      0.00000     0.41837    0.00185     0.42022
      H   25    0.08879      0.00000     0.40978    0.00144     0.41121
      H   26    0.19227      0.00000     0.30504    0.00269     0.30773
      H   27    0.10069      0.00000     0.39815    0.00116     0.39931
      H   28    0.10049      0.00000     0.39855    0.00096     0.39951
      H   29    0.10283      0.00000     0.39615    0.00102     0.39717
      H   30    0.10350      0.00000     0.39549    0.00101     0.39650
      H   31    0.10083      0.00000     0.39827    0.00090     0.39917
      H   32    0.10141      0.00000     0.39732    0.00127     0.39859
      H   33    0.10562      0.00000     0.39351    0.00087     0.39438
      H   34    0.10540      0.00000     0.39373    0.00087     0.39460
      H   35    0.09443      0.00000     0.40468    0.00089     0.40557
 =======================================================================
   * Total *   -0.00000     13.99506    40.83055    0.17439    55.00000

 Normal termination of Gaussian 16 at Thu Dec 10 11:23:37 2020.
