 Gaussian 16, Revision A.03,

 -----------------------------------------------------------
 # opt freq B3LYP/6-31G(d) empiricaldispersion=gd3bj scf=xqc
 -----------------------------------------------------------

 ------------------------------
 CID_65866717_JID_9483_neutraal
 ------------------------------
 Symbolic Z-matrix:
 Charge =  0 Multiplicity = 1

 SCF Done:  E(RB3LYP) =  -787.873939814     A.U. after   15 cycles
 SCF Done:  E(RB3LYP) =  -787.876473720     A.U. after   12 cycles
 SCF Done:  E(RB3LYP) =  -787.873801085     A.U. after   12 cycles
 SCF Done:  E(RB3LYP) =  -787.876020622     A.U. after   12 cycles
 SCF Done:  E(RB3LYP) =  -787.877837306     A.U. after    9 cycles
 SCF Done:  E(RB3LYP) =  -787.878413521     A.U. after   12 cycles
 SCF Done:  E(RB3LYP) =  -787.878635630     A.U. after   12 cycles
 SCF Done:  E(RB3LYP) =  -787.878788111     A.U. after   12 cycles
 SCF Done:  E(RB3LYP) =  -787.878898097     A.U. after   12 cycles
 SCF Done:  E(RB3LYP) =  -787.879026594     A.U. after   12 cycles
 SCF Done:  E(RB3LYP) =  -787.881234616     A.U. after    8 cycles
 SCF Done:  E(RB3LYP) =  -787.881235052     A.U. after    8 cycles
 SCF Done:  E(RB3LYP) =  -787.881235238     A.U. after    7 cycles
 SCF Done:  E(RB3LYP) =  -787.881235271     A.U. after    6 cycles
 Optimization completed.
    -- Stationary point found.
 Normal termination of Gaussian 16 at Sat Dec 12 10:32:06 2020.

 --------------------------------------------------------------------
 #N Geom=AllCheck Guess=TCheck SCRF=Check GenChk RB3LYP/6-31G(d) Freq
 --------------------------------------------------------------------

 Structure from the checkpoint file:  "JID_9483.chk"
 ------------------------------
 CID_65866717_JID_9483_neutraal
 ------------------------------
 Charge =  0 Multiplicity = 1

 SCF Done:  E(RB3LYP) =  -787.881235271     A.U. after    1 cycles

  Exact polarizability: 238.787  -8.538 183.483  17.196   3.722 125.629
 Approx polarizability: 313.705  -8.486 293.957  27.941   5.758 190.942

                      1                      2                      3
                      A                      A                      A
 Frequencies --     26.5248                31.0521                34.8228
 Red. masses --      2.5807                 3.9866                 3.7582
 Frc consts  --      0.0011                 0.0023                 0.0027
 IR Inten    --      0.0269                 0.3550                 0.1355

                      4                      5                      6
                      A                      A                      A
 Frequencies --     53.8947                66.4069                82.3451
 Red. masses --      3.8075                 3.4159                 3.0104
 Frc consts  --      0.0065                 0.0089                 0.0120
 IR Inten    --      0.0982                 0.1333                 0.1144

                      7                      8                      9
                      A                      A                      A
 Frequencies --    101.9988               113.9397               126.8417
 Red. masses --      3.7201                 3.2991                 3.3622
 Frc consts  --      0.0228                 0.0252                 0.0319
 IR Inten    --      2.2959                 0.9071                 3.5920

                     10                     11                     12
                      A                      A                      A
 Frequencies --    147.3896               200.0174               207.6894
 Red. masses --      3.3566                 2.7274                 1.7738
 Frc consts  --      0.0430                 0.0643                 0.0451
 IR Inten    --      1.1081                 2.5763                 9.9625

                     13                     14                     15
                      A                      A                      A
 Frequencies --    219.3434               249.6403               260.9540
 Red. masses --      1.6201                 1.6922                 2.2684
 Frc consts  --      0.0459                 0.0621                 0.0910
 IR Inten    --      3.4992                 9.5971                14.0648

                     16                     17                     18
                      A                      A                      A
 Frequencies --    282.5484               293.3732               318.7989
 Red. masses --      1.8158                 1.4566                 2.7762
 Frc consts  --      0.0854                 0.0739                 0.1662
 IR Inten    --      1.9532                19.4553                 1.0159

                     19                     20                     21
                      A                      A                      A
 Frequencies --    323.1399               342.4702               387.5084
 Red. masses --      1.7544                 2.9041                 3.5243
 Frc consts  --      0.1079                 0.2007                 0.3118
 IR Inten    --     16.0690                 6.4500                 3.3025

                     22                     23                     24
                      A                      A                      A
 Frequencies --    418.7260               430.5059               489.8759
 Red. masses --      3.0453                 4.0809                 2.7465
 Frc consts  --      0.3146                 0.4456                 0.3883
 IR Inten    --      0.1380                 1.2747                 6.7368

                     25                     26                     27
                      A                      A                      A
 Frequencies --    538.7354               572.4044               626.4538
 Red. masses --      3.7037                 3.5944                 3.6144
 Frc consts  --      0.6333                 0.6939                 0.8357
 IR Inten    --      4.5323                 6.1729                 2.5504

                     28                     29                     30
                      A                      A                      A
 Frequencies --    633.6010               640.8699               648.2247
 Red. masses --      3.5188                 4.9685                 3.8011
 Frc consts  --      0.8323                 1.2023                 0.9410
 IR Inten    --      6.5686                 2.7300                 2.9952

                     31                     32                     33
                      A                      A                      A
 Frequencies --    683.5998               720.5596               723.6247
 Red. masses --      3.8701                 1.9723                 3.0304
 Frc consts  --      1.0655                 0.6034                 0.9349
 IR Inten    --      7.7041                23.1685                 6.3202

                     34                     35                     36
                      A                      A                      A
 Frequencies --    770.0537               777.9334               795.0281
 Red. masses --      3.1680                 1.9263                 1.2719
 Frc consts  --      1.1068                 0.6869                 0.4737
 IR Inten    --      3.3223                11.3785                16.6819

                     37                     38                     39
                      A                      A                      A
 Frequencies --    800.9341               808.4423               831.3667
 Red. masses --      1.3007                 1.2894                 2.5975
 Frc consts  --      0.4916                 0.4965                 1.0578
 IR Inten    --      7.5430                 3.4407                 2.6661

                     40                     41                     42
                      A                      A                      A
 Frequencies --    868.2089               879.4148               902.0155
 Red. masses --      1.2516                 2.1681                 1.5895
 Frc consts  --      0.5559                 0.9879                 0.7620
 IR Inten    --      0.3002                 3.5278                67.9246

                     43                     44                     45
                      A                      A                      A
 Frequencies --    933.4121               971.8997               975.8810
 Red. masses --      1.4236                 2.0237                 2.2803
 Frc consts  --      0.7308                 1.1263                 1.2795
 IR Inten    --      1.8042                12.7377                 2.8609

                     46                     47                     48
                      A                      A                      A
 Frequencies --    976.7449               984.3245              1003.3613
 Red. masses --      1.3412                 2.2953                 1.2754
 Frc consts  --      0.7539                 1.3103                 0.7565
 IR Inten    --      0.3125                 4.8503                 1.3865

                     49                     50                     51
                      A                      A                      A
 Frequencies --   1014.6363              1022.5388              1035.7622
 Red. masses --      1.9839                 5.6226                 3.2231
 Frc consts  --      1.2034                 3.4638                 2.0372
 IR Inten    --     28.5850                 1.8966                 7.2933

                     52                     53                     54
                      A                      A                      A
 Frequencies --   1049.2630              1063.4221              1077.5419
 Red. masses --      2.4136                 2.1583                 1.7253
 Frc consts  --      1.5656                 1.4380                 1.1803
 IR Inten    --      0.6754                 6.3836                14.4400

                     55                     56                     57
                      A                      A                      A
 Frequencies --   1091.8856              1109.8430              1113.2321
 Red. masses --      2.1025                 1.9763                 1.6160
 Frc consts  --      1.4769                 1.4342                 1.1800
 IR Inten    --      6.9794                 4.0735                 5.3076

                     58                     59                     60
                      A                      A                      A
 Frequencies --   1120.3215              1133.7465              1170.7016
 Red. masses --      1.8472                 2.6022                 1.7796
 Frc consts  --      1.3660                 1.9707                 1.4371
 IR Inten    --      5.9913                 2.7327                 4.9210

                     61                     62                     63
                      A                      A                      A
 Frequencies --   1179.5308              1193.1270              1204.0117
 Red. masses --      1.3967                 1.0979                 1.6199
 Frc consts  --      1.1449                 0.9209                 1.3836
 IR Inten    --      3.4967                 0.0700                 8.7879

                     64                     65                     66
                      A                      A                      A
 Frequencies --   1216.4450              1230.5203              1268.8261
 Red. masses --      1.1345                 1.9264                 1.7628
 Frc consts  --      0.9891                 1.7186                 1.6721
 IR Inten    --      1.7323                 0.0815                 5.0145

                     67                     68                     69
                      A                      A                      A
 Frequencies --   1281.7860              1295.4317              1302.4323
 Red. masses --      1.4885                 1.3803                 1.8070
 Frc consts  --      1.4409                 1.3647                 1.8060
 IR Inten    --      4.3424                 4.6530                 3.1764

                     70                     71                     72
                      A                      A                      A
 Frequencies --   1345.2619              1358.6348              1365.8240
 Red. masses --      1.6758                 1.5589                 2.2663
 Frc consts  --      1.7868                 1.6955                 2.4909
 IR Inten    --      9.1525                24.9741                 1.1401

                     73                     74                     75
                      A                      A                      A
 Frequencies --   1372.2196              1374.6280              1386.9912
 Red. masses --      1.5166                 1.2849                 1.4314
 Frc consts  --      1.6825                 1.4305                 1.6224
 IR Inten    --      5.5037                 4.6342                 1.0059

                     76                     77                     78
                      A                      A                      A
 Frequencies --   1406.2869              1416.3955              1434.3016
 Red. masses --      1.3417                 1.4912                 1.3429
 Frc consts  --      1.5634                 1.7627                 1.6277
 IR Inten    --     19.2973                 2.5829                 5.8006

                     79                     80                     81
                      A                      A                      A
 Frequencies --   1435.5972              1439.8800              1440.7709
 Red. masses --      1.6093                 1.2825                 2.1262
 Frc consts  --      1.9542                 1.5667                 2.6004
 IR Inten    --     31.9993                 1.8958                28.3357

                     82                     83                     84
                      A                      A                      A
 Frequencies --   1489.2719              1505.0725              1506.1561
 Red. masses --      3.2563                 1.9718                 1.6289
 Frc consts  --      4.2553                 2.6316                 2.1771
 IR Inten    --      9.4420                 0.9177                15.9487

                     85                     86                     87
                      A                      A                      A
 Frequencies --   1511.0980              1513.7852              1523.3132
 Red. masses --      1.1101                 1.2448                 1.4312
 Frc consts  --      1.4935                 1.6807                 1.9567
 IR Inten    --      1.8424                 1.2723                15.2471

                     88                     89                     90
                      A                      A                      A
 Frequencies --   1525.9307              1527.2664              1531.7961
 Red. masses --      1.1031                 1.0428                 1.2770
 Frc consts  --      1.5134                 1.4331                 1.7654
 IR Inten    --      4.6429                 5.2372                 4.4106

                     91                     92                     93
                      A                      A                      A
 Frequencies --   1538.7994              1544.7626              1547.4851
 Red. masses --      1.1653                 1.0645                 2.1121
 Frc consts  --      1.6257                 1.4967                 2.9800
 IR Inten    --      3.7519                 2.8983                18.6505

                     94                     95                     96
                      A                      A                      A
 Frequencies --   1600.4482              1644.3905              1667.3250
 Red. masses --      5.9252                 5.4709                 5.5116
 Frc consts  --      8.9421                 8.7161                 9.0276
 IR Inten    --     35.7570                 1.2086                 8.0323

                     97                     98                     99
                      A                      A                      A
 Frequencies --   1695.7784              3016.4066              3038.0261
 Red. masses --      1.0879                 1.0707                 1.0738
 Frc consts  --      1.8432                 5.7396                 5.8392
 IR Inten    --     19.9143                37.5060                35.0952

                    100                    101                    102
                      A                      A                      A
 Frequencies --   3040.3718              3044.2144              3049.0866
 Red. masses --      1.0666                 1.0790                 1.0348
 Frc consts  --      5.8092                 5.8913                 5.6680
 IR Inten    --     29.8564                24.7126                37.1689

                    103                    104                    105
                      A                      A                      A
 Frequencies --   3057.0417              3086.5234              3094.1025
 Red. masses --      1.0348                 1.0647                 1.0971
 Frc consts  --      5.6980                 5.9759                 6.1880
 IR Inten    --     17.7891                20.2872                 2.9565

                    106                    107                    108
                      A                      A                      A
 Frequencies --   3097.0081              3111.8368              3117.7230
 Red. masses --      1.0948                 1.0900                 1.1018
 Frc consts  --      6.1868                 6.2188                 6.3097
 IR Inten    --     39.5524                13.6253                55.4208

                    109                    110                    111
                      A                      A                      A
 Frequencies --   3125.8664              3126.7610              3131.1029
 Red. masses --      1.1034                 1.1035                 1.1005
 Frc consts  --      6.3521                 6.3564                 6.3568
 IR Inten    --     35.6455                11.5745                22.9067

                    112                    113                    114
                      A                      A                      A
 Frequencies --   3150.7384              3170.2633              3180.7531
 Red. masses --      1.1048                 1.0866                 1.0867
 Frc consts  --      6.4620                 6.4342                 6.4780
 IR Inten    --     21.3243                10.4200                 1.2198

                    115                    116                    117
                      A                      A                      A
 Frequencies --   3191.5997              3204.9767              3213.3986
 Red. masses --      1.0916                 1.0956                 1.0945
 Frc consts  --      6.5516                 6.6309                 6.6588
 IR Inten    --     34.1176                29.1084                10.5312

                    118                    119                    120
                      A                      A                      A
 Frequencies --   3262.2854              3477.9273              3559.3594
 Red. masses --      1.0963                 1.0502                 1.0924
 Frc consts  --      6.8744                 7.4844                 8.1541
 IR Inten    --      3.7303                 0.8696                 0.6475

 - Thermochemistry -
 -------------------
 Temperature   298.150 Kelvin.  Pressure   1.00000 Atm.
 Atom     1 has atomic number  6 and mass  12.00000

 Molecular mass:   257.18920 amu.
 Principal axes and moments of inertia in atomic units:
                           1         2         3
     Eigenvalues --  2593.879109684.02152**********
           X            0.99995  -0.01011   0.00094
           Y            0.01011   0.99994   0.00372
           Z           -0.00098  -0.00371   0.99999
 This molecule is an asymmetric top.
 Rotational symmetry number  1.
 Warning -- assumption of classical behavior for rotation
           may cause significant error
 Rotational temperatures (Kelvin)      0.03339     0.00894     0.00800
 Rotational constants (GHZ):           0.69577     0.18636     0.16675
 Zero-point vibrational energy     972855.6 (Joules/Mol)
                                  232.51806 (Kcal/Mol)
 Warning -- explicit consideration of  26 degrees of freedom as
           vibrations may cause significant error
 Vibrational temperatures:     38.16    44.68    50.10    77.54    95.54
          (Kelvin)            118.48   146.75   163.93   182.50   212.06
                              287.78   298.82   315.59   359.18   375.45
                              406.52   422.10   458.68   464.93   492.74
                              557.54   602.45   619.40   704.82   775.12
                              823.56   901.33   911.61   922.07   932.65
                              983.55  1036.72  1041.13  1107.94  1119.27
                             1143.87  1152.37  1163.17  1196.15  1249.16
                             1265.28  1297.80  1342.97  1398.35  1404.08
                             1405.32  1416.22  1443.61  1459.84  1471.21
                             1490.23  1509.66  1530.03  1550.34  1570.98
                             1596.82  1601.69  1611.89  1631.21  1684.38
                             1697.08  1716.64  1732.30  1750.19  1770.44
                             1825.56  1844.20  1863.84  1873.91  1935.53
                             1954.77  1965.12  1974.32  1977.78  1995.57
                             2023.33  2037.88  2063.64  2065.50  2071.67
                             2072.95  2142.73  2165.46  2167.02  2174.13
                             2178.00  2191.71  2195.47  2197.40  2203.91
                             2213.99  2222.57  2226.49  2302.69  2365.91
                             2398.91  2439.85  4339.94  4371.04  4374.42
                             4379.95  4386.96  4398.40  4440.82  4451.72
                             4455.90  4477.24  4485.71  4497.42  4498.71
                             4504.96  4533.21  4561.30  4576.39  4592.00
                             4611.25  4623.36  4693.70  5003.96  5121.12

 Zero-point correction=                           0.370541 (Hartree/Particle)
 Thermal correction to Energy=                    0.389689
 Thermal correction to Enthalpy=                  0.390634
 Thermal correction to Gibbs Free Energy=         0.321228
 Sum of electronic and zero-point Energies=           -787.510694
 Sum of electronic and thermal Energies=              -787.491546
 Sum of electronic and thermal Enthalpies=            -787.490602
 Sum of electronic and thermal Free Energies=         -787.560008

                     E (Thermal)             CV                S
                      KCal/Mol        Cal/Mol-Kelvin    Cal/Mol-Kelvin
 Total                  244.534             72.318            146.077
 Electronic               0.000              0.000              0.000
 Translational            0.889              2.981             42.534
 Rotational               0.889              2.981             33.963
 Vibrational            242.756             66.356             69.580
 Vibration     1          0.593              1.984              6.074
 Vibration     2          0.594              1.983              5.761
 Vibration     3          0.594              1.983              5.534
 Vibration     4          0.596              1.976              4.669
 Vibration     5          0.598              1.970              4.257
 Vibration     6          0.600              1.961              3.834
 Vibration     7          0.604              1.948              3.416
 Vibration     8          0.607              1.938              3.201
 Vibration     9          0.611              1.926              2.993
 Vibration    10          0.617              1.906              2.706
 Vibration    11          0.638              1.840              2.133
 Vibration    12          0.641              1.829              2.064
 Vibration    13          0.647              1.812              1.965
 Vibration    14          0.662              1.763              1.733
 Vibration    15          0.669              1.744              1.655
 Vibration    16          0.682              1.706              1.518
 Vibration    17          0.688              1.686              1.454
 Vibration    18          0.705              1.638              1.316
 Vibration    19          0.708              1.629              1.294
 Vibration    20          0.722              1.591              1.201
 Vibration    21          0.756              1.497              1.010
 Vibration    22          0.782              1.430              0.896
 Vibration    23          0.792              1.404              0.857
 Vibration    24          0.846              1.272              0.684
 Vibration    25          0.894              1.164              0.568
 Vibration    26          0.929              1.091              0.500

 Optimization completed.
    -- Stationary point found.
 Normal termination of Gaussian 16 at Sat Dec 12 10:54:50 2020.

 ----------------------------------------------------------------------
 # B3LYP/6-311++G(d,p) empiricaldispersion=gd3bj scf=xqc pop=npa geom=c
 heck
 ----------------------------------------------------------------------

 --------------------------------------
 CID_65866717_JID_9483_Energie_neutraal
 --------------------------------------
 Structure from the checkpoint file:  "JID_9483.chk"
 Charge =  0 Multiplicity = 1

 SCF Done:  E(RB3LYP) =  -788.094858997     A.U. after   15 cycles
 Normal termination of Gaussian 16 at Sat Dec 12 11:05:44 2020.

 ----------------------------------------------------------------------
 # B3LYP/6-311++G(d,p) empiricaldispersion=gd3bj scf=xqc pop=npa geom=c
 heck
 ----------------------------------------------------------------------

 ------------------------------------
 CID_65866717_JID_9483_Energie_kation
 ------------------------------------
 Structure from the checkpoint file:  "JID_9483.chk"
 Charge =  1 Multiplicity = 2

 SCF Done:  E(UB3LYP) =  -787.802790907     A.U. after   33 cycles
 SCF Done:  E(UB3LYP) =  -787.802790907     a.u. after    3 cycles
 Normal termination of Gaussian 16 at Sat Dec 12 12:38:59 2020.
 Gaussian 16:  ES64L-G16RevA.03 25-Dec-2016

 ----------------------------------------------------------------------
 # B3LYP/6-311++G(d,p) empiricaldispersion=gd3bj scf=xqc pop=npa geom=c
 heck
 ----------------------------------------------------------------------

 -----------------------------------
 CID_65866717_JID_9483_Energie_anion
 -----------------------------------
 Structure from the checkpoint file:  "JID_9483.chk"
 Charge = -1 Multiplicity = 2

                         Standard orientation:
 ---------------------------------------------------------------------
 Center     Atomic      Atomic             Coordinates (Angstroms)
 Number     Number       Type             X           Y           Z
 ---------------------------------------------------------------------
      1          6           0        4.984283   -2.348133   -0.428937
      2          6           0        4.593773   -1.191955    0.505239
      3          6           0        3.318236   -0.518933    0.092686
      4          7           0        3.333199    0.717317   -0.409868
      5          7           0        2.038012    0.994273   -0.712634
      6          6           0        1.193555   -0.034881   -0.400480
      7          6           0        2.000068   -1.036808    0.117885
      8          6           0       -0.286336    0.034904   -0.631560
      9          6           0       -1.131591   -0.772260    0.381343
     10          6           0       -0.797424   -0.417641    1.851370
     11          7           0       -0.606023    1.027987    2.051664
     12          6           0       -2.603673   -0.605918    0.049793
     13          6           0       -3.313626   -1.652583   -0.548597
     14          6           0       -4.661960   -1.509954   -0.879839
     15          6           0       -5.322215   -0.310878   -0.613318
     16          6           0       -4.624065    0.740314   -0.015191
     17          6           0       -3.275988    0.597544    0.310867
     18          6           0        1.707951    2.316630   -1.224721
     19          6           0        1.344744    3.305687   -0.116082
     20          1           0        4.205188   -3.118536   -0.449664
     21          1           0        5.918297   -2.819488   -0.102635
     22          1           0        5.121534   -1.985711   -1.453271
     23          1           0        4.495859   -1.572056    1.531012
     24          1           0        5.387629   -0.437645    0.517754
     25          1           0        1.681221   -2.011806    0.458430
     26          1           0       -0.620116    1.075379   -0.588788
     27          1           0       -0.531283   -0.322441   -1.640996
     28          1           0       -0.885368   -1.834473    0.254278
     29          1           0       -1.635228   -0.740884    2.477323
     30          1           0        0.082395   -0.999271    2.161203
     31          1           0       -0.704376    1.248485    3.040487
     32          1           0        0.353452    1.266721    1.807149
     33          1           0       -2.804032   -2.591065   -0.756437
     34          1           0       -5.195005   -2.336049   -1.342939
     35          1           0       -6.372122   -0.195980   -0.868444
     36          1           0       -5.132208    1.677225    0.198077
     37          1           0       -2.731823    1.408887    0.784209
     38          1           0        2.591850    2.654692   -1.769520
     39          1           0        0.889471    2.214829   -1.943528
     40          1           0        2.164825    3.372217    0.606032
     41          1           0        1.172915    4.302135   -0.537765
     42          1           0        0.436212    2.996986    0.411153
 ---------------------------------------------------------------------

 SCF Done:  E(UB3LYP) =  -788.081907991     A.U. after   33 cycles
 SCF Done:  E(UB3LYP) =  -788.081907991     a.u. after    1 cycles

 The electronic state is 2-A.
 Alpha  occ. eigenvalues --  -14.29119 -14.22980 -14.20122 -10.12891 -10.11896
 Alpha  occ. eigenvalues --  -10.10001 -10.09885 -10.09277 -10.09182 -10.08904
 Alpha  occ. eigenvalues --  -10.08533 -10.08463 -10.08374 -10.08320 -10.08173
 Alpha  occ. eigenvalues --  -10.08110 -10.07761 -10.07621 -10.06648  -0.95317
 Alpha  occ. eigenvalues --   -0.79676  -0.76700  -0.76407  -0.72428  -0.69148
 Alpha  occ. eigenvalues --   -0.68661  -0.65482  -0.64275  -0.63381  -0.59206
 Alpha  occ. eigenvalues --   -0.56683  -0.53948  -0.52599  -0.51541  -0.49296
 Alpha  occ. eigenvalues --   -0.46999  -0.45018  -0.42790  -0.41495  -0.40901
 Alpha  occ. eigenvalues --   -0.38297  -0.37740  -0.37511  -0.36212  -0.35930
 Alpha  occ. eigenvalues --   -0.35182  -0.34498  -0.33886  -0.33383  -0.32942
 Alpha  occ. eigenvalues --   -0.32636  -0.31534  -0.30880  -0.29558  -0.28912
 Alpha  occ. eigenvalues --   -0.28160  -0.27630  -0.27242  -0.26693  -0.26224
 Alpha  occ. eigenvalues --   -0.25805  -0.25429  -0.24571  -0.24111  -0.20007
 Alpha  occ. eigenvalues --   -0.16501  -0.16285  -0.15239  -0.15000  -0.14718
 Alpha  occ. eigenvalues --    0.03990
 Alpha virt. eigenvalues --    0.05760   0.05886   0.06506   0.06854   0.07429
 Alpha virt. eigenvalues --    0.07660   0.07788   0.08325   0.08419   0.08911
 Alpha virt. eigenvalues --    0.09145   0.09332   0.09870   0.10606   0.10826

  Beta  occ. eigenvalues --  -14.29118 -14.22975 -14.20088 -10.12881 -10.11895
  Beta  occ. eigenvalues --  -10.10002 -10.09865 -10.09266 -10.09176 -10.08905
  Beta  occ. eigenvalues --  -10.08523 -10.08453 -10.08365 -10.08310 -10.08161
  Beta  occ. eigenvalues --  -10.08088 -10.07747 -10.07612 -10.06633  -0.95313
  Beta  occ. eigenvalues --   -0.79631  -0.76678  -0.76398  -0.72408  -0.69129
  Beta  occ. eigenvalues --   -0.68642  -0.65459  -0.64251  -0.63358  -0.59161
  Beta  occ. eigenvalues --   -0.56647  -0.53910  -0.52567  -0.51509  -0.49273
  Beta  occ. eigenvalues --   -0.46972  -0.44998  -0.42761  -0.41468  -0.40855
  Beta  occ. eigenvalues --   -0.38265  -0.37720  -0.37481  -0.36182  -0.35909
  Beta  occ. eigenvalues --   -0.35142  -0.34477  -0.33861  -0.33357  -0.32915
  Beta  occ. eigenvalues --   -0.32612  -0.31514  -0.30854  -0.29533  -0.28888
  Beta  occ. eigenvalues --   -0.28137  -0.27606  -0.27222  -0.26671  -0.26206
  Beta  occ. eigenvalues --   -0.25787  -0.25407  -0.24550  -0.24084  -0.19993
  Beta  occ. eigenvalues --   -0.16486  -0.16267  -0.15218  -0.14986  -0.14700
  Beta virt. eigenvalues --    0.05816   0.06203   0.06457   0.07206   0.07356
  Beta virt. eigenvalues --    0.07458   0.07686   0.08049   0.08643   0.08820
  Beta virt. eigenvalues --    0.09041   0.09332   0.09543   0.10015   0.10736

 Mulliken charges and spin densities:
               1          2
     1  C   -0.111987  -0.460871
     2  C   -0.374897  -0.076297
     3  C    0.301755  -0.239638
     4  N   -0.235164   0.137157
     5  N    0.382489  -0.056883
     6  C   -0.702166   0.464243
     7  C    0.878603  -1.044526
     8  C   -0.253329  -0.461703
     9  C    0.407885  -0.105228
    10  C    0.694549  -1.380496
    11  N   -0.628825   0.173485
    12  C    0.735056   0.080773
    13  C   -1.336302   1.346125
    14  C    0.427732  -0.814582
    15  C    0.898768  -1.205020
    16  C   -1.126421   0.876739
    17  C   -0.000438  -0.431846
    18  C   -0.239865  -0.019828
    19  C    0.124599  -0.560021
    20  H   -0.040266   0.171984
    21  H   -0.033528   0.168926
    22  H    0.047821   0.092751
    23  H   -0.036121   0.178735
    24  H    0.076119   0.073194
    25  H   -0.285068   0.466239
    26  H    0.383875  -0.251810
    27  H    0.017864   0.211512
    28  H    0.240587  -0.025840
    29  H   -0.092725   0.268712
    30  H   -0.150324   0.295471
    31  H   -0.212178   0.479007
    32  H    0.380848  -0.139877
    33  H   -0.461662   0.607707
    34  H   -0.284351   0.455282
    35  H   -0.128612   0.268808
    36  H   -0.413986   0.592938
    37  H    0.418241  -0.178899
    38  H    0.046329   0.140008
    39  H   -0.014054   0.161828
    40  H    0.036497   0.125674
    41  H   -0.197095   0.324855
    42  H   -0.140255   0.291213
 Sum of Mulliken charges =  -1.00000   1.00000

 Dipole moment (field-independent basis, Debye):
    X=              2.6389    Y=              0.9411    Z=             -1.8764  Tot=              3.3720
 Quadrupole moment (field-independent basis, Debye-Ang):
   XX=           -213.3103   YY=           -168.0799   ZZ=           -157.4138
   XY=             -0.2297   XZ=             -2.4631   YZ=             -2.9792

 Summary of Natural Population Analysis:

                                       Natural Population
                Natural  -----------------------------------------------
    Atom  No    Charge         Core      Valence    Rydberg      Total
 -----------------------------------------------------------------------
      C    1   -0.27891      0.99966     2.27559    0.00366     3.27891
      C    2   -0.20200      0.99960     2.19492    0.00748     3.20200
      C    3    0.07652      0.99958     1.90887    0.01503     2.92348
      N    4   -0.16486      0.99970     2.65397    0.01119     3.66486
      N    5   -0.11532      0.99961     2.60233    0.01337     3.61532
      C    6    0.09232      0.99953     1.89599    0.01216     2.90768
      C    7   -0.16485      0.99945     2.15672    0.00868     3.16485
      C    8   -0.20826      0.99957     2.19998    0.00871     3.20826
      C    9   -0.11423      0.99956     2.10197    0.01270     3.11423
      C   10   -0.08760      0.99961     2.07619    0.01179     3.08760
      N   11   -0.42997      0.99977     2.91950    0.01070     3.92997
      C   12   -0.01053      0.99950     1.99905    0.01198     3.01053
      C   13   -0.10156      0.99950     2.09179    0.01027     3.10156
      C   14   -0.09942      0.99956     2.09018    0.00968     3.09942
      C   15   -0.10732      0.99956     2.09775    0.01001     3.10732
      C   16   -0.09804      0.99956     2.08898    0.00949     3.09804
      C   17   -0.10612      0.99950     2.09647    0.01015     3.10612
      C   18   -0.08250      0.99962     2.07379    0.00909     3.08250
      C   19   -0.29326      0.99966     2.28935    0.00426     3.29326
      H   20    0.09780      0.00000     0.40092    0.00128     0.40220
      H   21    0.09450      0.00000     0.40449    0.00101     0.40550
      H   22    0.09732      0.00000     0.40153    0.00115     0.40268
      H   23    0.10048      0.00000     0.39815    0.00137     0.39952
      H   24    0.10366      0.00000     0.39496    0.00138     0.39634
      H   25    0.11029      0.00000     0.38847    0.00124     0.38971
      H   26    0.11103      0.00000     0.38678    0.00219     0.38897
      H   27    0.11099      0.00000     0.38785    0.00116     0.38901
      H   28    0.10180      0.00000     0.39589    0.00231     0.39820
      H   29    0.09571      0.00000     0.40303    0.00126     0.40429
      H   30    0.08872      0.00000     0.40956    0.00172     0.41128
      H   31    0.18034      0.00000     0.31736    0.00230     0.31966
      H   32    0.17629      0.00000     0.32127    0.00244     0.32371
      H   33    0.10058      0.00000     0.39770    0.00173     0.39942
      H   34    0.10051      0.00000     0.39839    0.00109     0.39949
      H   35    0.09983      0.00000     0.39917    0.00100     0.40017
      H   36    0.09983      0.00000     0.39919    0.00098     0.40017
      H   37    0.11532      0.00000     0.38284    0.00184     0.38468
      H   38    0.10513      0.00000     0.39346    0.00140     0.39487
      H   39    0.09819      0.00000     0.40065    0.00115     0.40181
      H   40    0.10277      0.00000     0.39586    0.00136     0.39723
      H   41    0.09990      0.00000     0.39888    0.00122     0.40010
      H   42    0.10491      0.00000     0.39351    0.00158     0.39509
 =======================================================================
   * Total *    0.00000     18.99211    50.78330    0.22459    70.00000

 Normal termination of Gaussian 16 at Sat Dec 12 13:12:47 2020.
