 Gaussian 16, Revision A.03,

 -----------------------------------------------------------
 # opt freq B3LYP/6-31G(d) empiricaldispersion=gd3bj scf=xqc
 -----------------------------------------------------------

 -------------------------------
 CID_115255034_JID_7863_neutraal
 -------------------------------
 Symbolic Z-matrix:
 Charge =  0 Multiplicity = 1

 SCF Done:  E(RB3LYP) =  -732.701796418     A.U. after   13 cycles
 SCF Done:  E(RB3LYP) =  -732.705945717     A.U. after   12 cycles
 SCF Done:  E(RB3LYP) =  -732.706784484     A.U. after   11 cycles
 SCF Done:  E(RB3LYP) =  -732.708450025     A.U. after   13 cycles
 SCF Done:  E(RB3LYP) =  -732.709402602     A.U. after   11 cycles
 SCF Done:  E(RB3LYP) =  -732.709903451     A.U. after   11 cycles
 SCF Done:  E(RB3LYP) =  -732.710157751     A.U. after   11 cycles
 SCF Done:  E(RB3LYP) =  -732.710208502     A.U. after   10 cycles
 SCF Done:  E(RB3LYP) =  -732.710219864     A.U. after   10 cycles
 SCF Done:  E(RB3LYP) =  -732.710222137     A.U. after    8 cycles
 SCF Done:  E(RB3LYP) =  -732.710222547     A.U. after    7 cycles
 SCF Done:  E(RB3LYP) =  -732.710222397     A.U. after    7 cycles
 SCF Done:  E(RB3LYP) =  -732.710221967     A.U. after    8 cycles
 SCF Done:  E(RB3LYP) =  -732.710222977     A.U. after    9 cycles
 SCF Done:  E(RB3LYP) =  -732.710222118     A.U. after    9 cycles
 Optimization completed.
    -- Stationary point found.
 Normal termination of Gaussian 16 at Fri Dec 11 13:27:48 2020.

 --------------------------------------------------------------------
 #N Geom=AllCheck Guess=TCheck SCRF=Check GenChk RB3LYP/6-31G(d) Freq
 --------------------------------------------------------------------

 Structure from the checkpoint file:  "JID_7863.chk"
 -------------------------------
 CID_115255034_JID_7863_neutraal
 -------------------------------
 Charge =  0 Multiplicity = 1

 SCF Done:  E(RB3LYP) =  -732.710222118     A.U. after    1 cycles

  Exact polarizability: 191.272  -6.606 156.723 -18.263 -16.717 141.204
 Approx polarizability: 242.887 -14.293 243.788 -31.718 -37.730 210.729

                      1                      2                      3
                      A                      A                      A
 Frequencies --     11.3742                20.2122                31.2766
 Red. masses --      3.6157                 3.7564                 4.0882
 Frc consts  --      0.0003                 0.0009                 0.0024
 IR Inten    --      0.2885                 0.5475                 0.2021

                      4                      5                      6
                      A                      A                      A
 Frequencies --     65.9370                92.4161                97.0755
 Red. masses --      2.7976                 3.0793                 2.9151
 Frc consts  --      0.0072                 0.0155                 0.0162
 IR Inten    --      0.4944                 5.0356                 0.5489

                      7                      8                      9
                      A                      A                      A
 Frequencies --    100.2814               122.6654               153.9512
 Red. masses --      2.0496                 3.2944                 2.4159
 Frc consts  --      0.0121                 0.0292                 0.0337
 IR Inten    --      1.0200                 0.1608                 0.7406

                     10                     11                     12
                      A                      A                      A
 Frequencies --    177.6964               185.5839               228.2805
 Red. masses --      2.5616                 2.5547                 2.1084
 Frc consts  --      0.0477                 0.0518                 0.0647
 IR Inten    --      1.5525                 0.0833                 0.5649

                     13                     14                     15
                      A                      A                      A
 Frequencies --    239.1512               248.6587               259.4918
 Red. masses --      1.6503                 1.8235                 1.3503
 Frc consts  --      0.0556                 0.0664                 0.0536
 IR Inten    --      0.1626                 0.7381                 0.3967

                     16                     17                     18
                      A                      A                      A
 Frequencies --    276.2514               292.3999               296.6038
 Red. masses --      2.2112                 2.1610                 2.2556
 Frc consts  --      0.0994                 0.1089                 0.1169
 IR Inten    --      5.7485                 1.0864                 0.9826

                     19                     20                     21
                      A                      A                      A
 Frequencies --    304.8802               348.8695               394.2026
 Red. masses --      2.1041                 2.4152                 2.6318
 Frc consts  --      0.1152                 0.1732                 0.2410
 IR Inten    --      1.1622                 4.3884                 1.1809

                     22                     23                     24
                      A                      A                      A
 Frequencies --    418.1114               457.7960               487.5624
 Red. masses --      3.0565                 3.0863                 5.5641
 Frc consts  --      0.3148                 0.3811                 0.7793
 IR Inten    --      0.7371                 1.6277                 2.8300

                     25                     26                     27
                      A                      A                      A
 Frequencies --    514.3452               554.7715               593.2336
 Red. masses --      2.9063                 3.6760                 4.7711
 Frc consts  --      0.4530                 0.6666                 0.9893
 IR Inten    --      5.4286                 0.1542                 4.6678

                     28                     29                     30
                      A                      A                      A
 Frequencies --    611.1159               630.8384               715.9995
 Red. masses --      3.2917                 2.9132                 2.5729
 Frc consts  --      0.7243                 0.6830                 0.7772
 IR Inten    --      0.2997                 9.7017                11.6502

                     31                     32                     33
                      A                      A                      A
 Frequencies --    750.0434               765.2802               774.8075
 Red. masses --      2.0283                 1.4182                 1.8792
 Frc consts  --      0.6723                 0.4894                 0.6647
 IR Inten    --     60.1451                48.5067                62.5210

                     34                     35                     36
                      A                      A                      A
 Frequencies --    796.7323               807.4049               826.8258
 Red. masses --      1.4122                 2.4101                 2.0422
 Frc consts  --      0.5282                 0.9257                 0.8226
 IR Inten    --     39.3570                27.0083                24.8852

                     37                     38                     39
                      A                      A                      A
 Frequencies --    835.8338               855.1374               913.2729
 Red. masses --      2.0428                 1.3890                 1.7398
 Frc consts  --      0.8408                 0.5984                 0.8550
 IR Inten    --     14.1722                 6.4646                 0.1397

                     40                     41                     42
                      A                      A                      A
 Frequencies --    926.4619               951.9023               967.4783
 Red. masses --      1.4665                 1.6061                 1.2410
 Frc consts  --      0.7416                 0.8575                 0.6844
 IR Inten    --      0.1622                12.2048                 1.1295

                     43                     44                     45
                      A                      A                      A
 Frequencies --    977.7976               984.1549              1016.2223
 Red. masses --      1.4616                 1.7377                 2.0141
 Frc consts  --      0.8234                 0.9916                 1.2255
 IR Inten    --      7.0954                 0.3691                 6.1110

                     46                     47                     48
                      A                      A                      A
 Frequencies --   1059.0319              1068.3963              1084.7734
 Red. masses --      2.6421                 3.3864                 3.1335
 Frc consts  --      1.7459                 2.2775                 2.1725
 IR Inten    --      0.4819                15.7055                15.9253

                     49                     50                     51
                      A                      A                      A
 Frequencies --   1088.2785              1100.0060              1121.7398
 Red. masses --      2.3004                 1.3095                 1.8877
 Frc consts  --      1.6052                 0.9336                 1.3995
 IR Inten    --      5.4794                 2.7616                14.1656

                     52                     53                     54
                      A                      A                      A
 Frequencies --   1132.1880              1147.0114              1169.2107
 Red. masses --      2.8185                 2.5402                 2.3329
 Frc consts  --      2.1287                 1.9690                 1.8790
 IR Inten    --     70.4123                17.4780                45.3375

                     55                     56                     57
                      A                      A                      A
 Frequencies --   1180.4570              1186.9259              1193.7138
 Red. masses --      1.7281                 1.2763                 1.8816
 Frc consts  --      1.4188                 1.0593                 1.5797
 IR Inten    --     17.0947                 0.6437                12.1678

                     58                     59                     60
                      A                      A                      A
 Frequencies --   1198.3972              1203.7577              1223.6331
 Red. masses --      1.1294                 2.2530                 1.5405
 Frc consts  --      0.9556                 1.9235                 1.3590
 IR Inten    --      1.2720                 1.9054                11.8664

                     61                     62                     63
                      A                      A                      A
 Frequencies --   1225.3807              1256.0805              1283.5066
 Red. masses --      1.7514                 1.3070                 1.5275
 Frc consts  --      1.5495                 1.2149                 1.4826
 IR Inten    --      0.4423                 2.1164                36.9660

                     64                     65                     66
                      A                      A                      A
 Frequencies --   1289.2482              1312.3442              1318.3759
 Red. masses --      2.1631                 1.3994                 1.4631
 Frc consts  --      2.1184                 1.4200                 1.4983
 IR Inten    --    162.4216                22.2113                21.8561

                     67                     68                     69
                      A                      A                      A
 Frequencies --   1324.2129              1351.0425              1355.2104
 Red. masses --      1.3241                 2.6006                 1.2607
 Frc consts  --      1.3680                 2.7968                 1.3642
 IR Inten    --     12.5652                24.7135                 1.3566

                     70                     71                     72
                      A                      A                      A
 Frequencies --   1379.5747              1400.3772              1408.7046
 Red. masses --      1.3038                 1.6423                 1.5125
 Frc consts  --      1.4620                 1.8976                 1.7685
 IR Inten    --      6.2264                 9.6429                18.8303

                     73                     74                     75
                      A                      A                      A
 Frequencies --   1420.1576              1431.4055              1442.8060
 Red. masses --      1.4788                 1.4032                 1.2420
 Frc consts  --      1.7573                 1.6940                 1.5233
 IR Inten    --      3.0688                 5.7540                 2.1251

                     76                     77                     78
                      A                      A                      A
 Frequencies --   1484.4442              1491.2270              1495.9339
 Red. masses --      1.1817                 1.4741                 1.1235
 Frc consts  --      1.5342                 1.9314                 1.4813
 IR Inten    --      2.5524                26.3817                15.1299

                     79                     80                     81
                      A                      A                      A
 Frequencies --   1503.4369              1511.9007              1516.1861
 Red. masses --      1.2050                 1.6413                 1.1409
 Frc consts  --      1.6048                 2.2105                 1.5453
 IR Inten    --     23.3735                 5.7039                25.4818

                     82                     83                     84
                      A                      A                      A
 Frequencies --   1519.8225              1520.7608              1528.2822
 Red. masses --      1.1310                 1.0485                 1.0579
 Frc consts  --      1.5392                 1.4287                 1.4558
 IR Inten    --     13.2981                 4.1362                 1.7565

                     85                     86                     87
                      A                      A                      A
 Frequencies --   1531.2398              1533.1090              1536.0327
 Red. masses --      1.0503                 1.2231                 1.0771
 Frc consts  --      1.4509                 1.6937                 1.4972
 IR Inten    --      3.1119                71.5585                 6.6165

                     88                     89                     90
                      A                      A                      A
 Frequencies --   1545.8995              1547.6744              1549.3814
 Red. masses --      1.1959                 1.2286                 1.3153
 Frc consts  --      1.6839                 1.7338                 1.8603
 IR Inten    --     17.3790                 5.1265                20.8747

                     91                     92                     93
                      A                      A                      A
 Frequencies --   1554.3022              1648.9209              1663.0550
 Red. masses --      1.0735                 6.2293                 5.7328
 Frc consts  --      1.5280                 9.9791                 9.3419
 IR Inten    --      4.2510                 8.7857                37.8060

                     94                     95                     96
                      A                      A                      A
 Frequencies --   2935.9693              2946.0971              3010.1877
 Red. masses --      1.0727                 1.0629                 1.0648
 Frc consts  --      5.4482                 5.4352                 5.6845
 IR Inten    --     51.0704               156.6659                24.2932

                     97                     98                     99
                      A                      A                      A
 Frequencies --   3021.8521              3024.6129              3032.9021
 Red. masses --      1.0695                 1.0347                 1.0691
 Frc consts  --      5.7542                 5.5769                 5.7940
 IR Inten    --     12.6403                61.2909                38.8994

                    100                    101                    102
                      A                      A                      A
 Frequencies --   3034.0849              3047.1074              3047.8264
 Red. masses --      1.0763                 1.0452                 1.0794
 Frc consts  --      5.8376                 5.7177                 5.9077
 IR Inten    --     41.4177                22.4672                29.4283

                    103                    104                    105
                      A                      A                      A
 Frequencies --   3059.1753              3066.5587              3071.9898
 Red. masses --      1.0948                 1.0972                 1.0719
 Frc consts  --      6.0364                 6.0793                 5.9601
 IR Inten    --     52.3899                38.1799                41.4086

                    106                    107                    108
                      A                      A                      A
 Frequencies --   3082.8225              3088.5984              3112.6293
 Red. masses --      1.1065                 1.0939                 1.1024
 Frc consts  --      6.1960                 6.1481                 6.2929
 IR Inten    --     42.5644                16.5508                44.9966

                    109                    110                    111
                      A                      A                      A
 Frequencies --   3114.5102              3118.7770              3156.5171
 Red. masses --      1.1020                 1.1026                 1.0998
 Frc consts  --      6.2983                 6.3187                 6.4561
 IR Inten    --     41.7959                33.7791                25.6676

                    112                    113                    114
                      A                      A                      A
 Frequencies --   3183.1775              3192.0544              3208.1507
 Red. masses --      1.0846                 1.0893                 1.0952
 Frc consts  --      6.4752                 6.5395                 6.6410
 IR Inten    --      1.9115                21.5505                31.6923

                    115                    116                    117
                      A                      A                      A
 Frequencies --   3226.3950              3497.2299              3509.0709
 Red. masses --      1.0921                 1.0733                 1.0728
 Frc consts  --      6.6981                 7.7346                 7.7831
 IR Inten    --     14.8202                 1.0040                 1.3653

 - Thermochemistry -
 -------------------
 Temperature   298.150 Kelvin.  Pressure   1.00000 Atm.
 Atom     1 has atomic number  6 and mass  12.00000

 Molecular mass:   236.18886 amu.
 Principal axes and moments of inertia in atomic units:
                           1         2         3
     Eigenvalues --  2454.473569338.712849515.44512
           X            0.99998   0.00370  -0.00568
           Y           -0.00314   0.99543   0.09543
           Z            0.00601  -0.09541   0.99542
 This molecule is an asymmetric top.
 Rotational symmetry number  1.
 Warning -- assumption of classical behavior for rotation
           may cause significant error
 Rotational temperatures (Kelvin)      0.03529     0.00927     0.00910
 Rotational constants (GHZ):           0.73529     0.19325     0.18966
 Zero-point vibrational energy     968414.4 (Joules/Mol)
                                  231.45659 (Kcal/Mol)
 Warning -- explicit consideration of  28 degrees of freedom as
           vibrations may cause significant error
 Vibrational temperatures:     16.36    29.08    45.00    94.87   132.97
          (Kelvin)            139.67   144.28   176.49   221.50   255.67
                              267.01   328.44   344.09   357.76   373.35
                              397.46   420.70   426.75   438.65   501.95
                              567.17   601.57   658.67   701.49   740.03
                              798.19   853.53   879.26   907.64  1030.16
                             1079.15  1101.07  1114.78  1146.32  1161.68
                             1189.62  1202.58  1230.35  1314.00  1332.97
                             1369.58  1391.99  1406.83  1415.98  1462.12
                             1523.71  1537.18  1560.75  1565.79  1582.66
                             1613.93  1628.97  1650.29  1682.23  1698.41
                             1707.72  1717.49  1724.23  1731.94  1760.54
                             1763.05  1807.22  1846.68  1854.94  1888.17
                             1896.85  1905.25  1943.85  1949.85  1984.90
                             2014.83  2026.81  2043.29  2059.47  2075.88
                             2135.78  2145.54  2152.32  2163.11  2175.29
                             2181.45  2186.69  2188.04  2198.86  2203.11
                             2205.80  2210.01  2224.20  2226.76  2229.21
                             2236.29  2372.43  2392.77  4224.20  4238.78
                             4330.99  4347.77  4351.74  4363.67  4365.37
                             4384.11  4385.14  4401.47  4412.09  4419.91
                             4435.49  4443.80  4478.38  4481.09  4487.22
                             4541.52  4579.88  4592.65  4615.81  4642.06
                             5031.73  5048.77

 Zero-point correction=                           0.368850 (Hartree/Particle)
 Thermal correction to Energy=                    0.387508
 Thermal correction to Enthalpy=                  0.388452
 Thermal correction to Gibbs Free Energy=         0.319438
 Sum of electronic and zero-point Energies=           -732.341373
 Sum of electronic and thermal Energies=              -732.322715
 Sum of electronic and thermal Enthalpies=            -732.321770
 Sum of electronic and thermal Free Energies=         -732.390784

                     E (Thermal)             CV                S
                      KCal/Mol        Cal/Mol-Kelvin    Cal/Mol-Kelvin
 Total                  243.165             69.422            145.251
 Electronic               0.000              0.000              0.000
 Translational            0.889              2.981             42.280
 Rotational               0.889              2.981             33.744
 Vibrational            241.387             63.460             69.227
 Vibration     1          0.593              1.987              7.755
 Vibration     2          0.593              1.986              6.613
 Vibration     3          0.594              1.983              5.747
 Vibration     4          0.597              1.971              4.271
 Vibration     5          0.602              1.955              3.608
 Vibration     6          0.603              1.951              3.512
 Vibration     7          0.604              1.949              3.449
 Vibration     8          0.610              1.930              3.058
 Vibration     9          0.619              1.898              2.623
 Vibration    10          0.628              1.870              2.352
 Vibration    11          0.632              1.860              2.271
 Vibration    12          0.651              1.798              1.892
 Vibration    13          0.657              1.781              1.809
 Vibration    14          0.662              1.765              1.740
 Vibration    15          0.668              1.747              1.665
 Vibration    16          0.678              1.717              1.557
 Vibration    17          0.688              1.688              1.460
 Vibration    18          0.690              1.680              1.436
 Vibration    19          0.696              1.664              1.390
 Vibration    20          0.726              1.578              1.171
 Vibration    21          0.761              1.483              0.984
 Vibration    22          0.781              1.431              0.898
 Vibration    23          0.816              1.344              0.773
 Vibration    24          0.844              1.278              0.690
 Vibration    25          0.869              1.218              0.623
 Vibration    26          0.910              1.129              0.534
 Vibration    27          0.951              1.046              0.461
 Vibration    28          0.970              1.008              0.431

                           ! Non-Optimized Parameters !
 Normal termination of Gaussian 16 at Fri Dec 11 13:43:27 2020.

 ----------------------------------------------------------------------
 # B3LYP/6-311++G(d,p) empiricaldispersion=gd3bj scf=xqc pop=npa geom=c
 heck
 ----------------------------------------------------------------------

 ---------------------------------------
 CID_115255034_JID_7863_Energie_neutraal
 ---------------------------------------
 Structure from the checkpoint file:  "JID_7863.chk"
 Charge =  0 Multiplicity = 1

 SCF Done:  E(RB3LYP) =  -732.919095396     A.U. after   15 cycles
 Normal termination of Gaussian 16 at Fri Dec 11 13:51:13 2020.

 ----------------------------------------------------------------------
 # B3LYP/6-311++G(d,p) empiricaldispersion=gd3bj scf=xqc pop=npa geom=c
 heck
 ----------------------------------------------------------------------

 -------------------------------------
 CID_115255034_JID_7863_Energie_kation
 -------------------------------------
 Structure from the checkpoint file:  "JID_7863.chk"
 Charge =  1 Multiplicity = 2

 SCF Done:  E(UB3LYP) =  -732.646030379     A.U. after   27 cycles
 Normal termination of Gaussian 16 at Fri Dec 11 14:10:55 2020.
 Gaussian 16:  ES64L-G16RevA.03 25-Dec-2016

 ----------------------------------------------------------------------
 # B3LYP/6-311++G(d,p) empiricaldispersion=gd3bj scf=xqc pop=npa geom=c
 heck
 ----------------------------------------------------------------------

 ------------------------------------
 CID_115255034_JID_7863_Energie_anion
 ------------------------------------
 Structure from the checkpoint file:  "JID_7863.chk"
 Charge = -1 Multiplicity = 2

                         Standard orientation:
 ---------------------------------------------------------------------
 Center     Atomic      Atomic             Coordinates (Angstroms)
 Number     Number       Type             X           Y           Z
 ---------------------------------------------------------------------
      1          6           0        4.472795   -0.760913   -1.683704
      2          6           0        2.983687   -0.630228   -1.347360
      3          6           0        2.622915   -0.955390    0.116468
      4          6           0        3.466184   -0.163463    1.127984
      5          7           0        3.300469    1.281059    0.988265
      6          6           0        4.066908    2.030458    1.974348
      7          6           0        1.126577   -0.747046    0.389397
      8          7           0        0.294456   -1.653509   -0.404948
      9          6           0       -1.126419   -1.583809   -0.093464
     10          6           0       -1.859732   -0.290255   -0.435884
     11          6           0       -1.349040    0.652268   -1.324172
     12          6           0       -2.050237    1.819212   -1.642546
     13          6           0       -3.291686    2.049497   -1.060608
     14          6           0       -3.834990    1.120730   -0.168176
     15          6           0       -3.122967   -0.041477    0.137551
     16          8           0       -3.576651   -1.014075    0.989050
     17          6           0       -4.826612   -0.815791    1.624099
     18          1           0        5.081649   -0.024287   -1.147415
     19          1           0        4.646818   -0.613704   -2.755263
     20          1           0        4.849789   -1.755447   -1.417192
     21          1           0        2.635242    0.383840   -1.592684
     22          1           0        2.424993   -1.308416   -2.004194
     23          1           0        2.842373   -2.019686    0.282219
     24          1           0        3.141800   -0.432768    2.142067
     25          1           0        4.525612   -0.476050    1.055052
     26          1           0        3.599172    1.560779    0.056272
     27          1           0        5.145577    1.782552    1.996020
     28          1           0        3.964550    3.103573    1.782507
     29          1           0        3.664136    1.829437    2.974116
     30          1           0        0.926353   -0.978496    1.443799
     31          1           0        0.880886    0.317848    0.256985
     32          1           0        0.435703   -1.483437   -1.397628
     33          1           0       -1.629419   -2.418118   -0.601927
     34          1           0       -1.245652   -1.781858    0.977317
     35          1           0       -0.375897    0.476718   -1.773936
     36          1           0       -1.624134    2.538516   -2.335519
     37          1           0       -3.849846    2.951941   -1.293818
     38          1           0       -4.804849    1.310462    0.276478
     39          1           0       -5.643325   -0.746339    0.893384
     40          1           0       -4.983343   -1.689738    2.258859
     41          1           0       -4.823764    0.089669    2.245273
 ---------------------------------------------------------------------

 SCF Done:  E(UB3LYP) =  -732.906556925     A.U. after   33 cycles
 SCF Done:  E(UB3LYP) =  -732.906556925     a.u. after    1 cycles

 The electronic state is 2-A.
 Alpha  occ. eigenvalues --  -19.06691 -14.20903 -14.20850 -10.14528 -10.13279
 Alpha  occ. eigenvalues --  -10.10687 -10.10211 -10.09976 -10.09402 -10.08927
 Alpha  occ. eigenvalues --  -10.08741 -10.08550 -10.08439 -10.08345 -10.08126
 Alpha  occ. eigenvalues --  -10.08063 -10.07269  -0.98261  -0.82363  -0.81527
 Alpha  occ. eigenvalues --   -0.76583  -0.71367  -0.67982  -0.66187  -0.64457
 Alpha  occ. eigenvalues --   -0.61371  -0.60111  -0.57249  -0.54460  -0.54107
 Alpha  occ. eigenvalues --   -0.50662  -0.50042  -0.46890  -0.44887  -0.41062
 Alpha  occ. eigenvalues --   -0.40746  -0.39937  -0.39333  -0.38301  -0.36890
 Alpha  occ. eigenvalues --   -0.36461  -0.35827  -0.34950  -0.34423  -0.33789
 Alpha  occ. eigenvalues --   -0.33326  -0.32044  -0.31829  -0.30171  -0.29809
 Alpha  occ. eigenvalues --   -0.28949  -0.28432  -0.28057  -0.27401  -0.27084
 Alpha  occ. eigenvalues --   -0.26501  -0.24415  -0.23970  -0.23612  -0.23478
 Alpha  occ. eigenvalues --   -0.23084  -0.16391  -0.14865  -0.13656  -0.13229
 Alpha  occ. eigenvalues --    0.03827
 Alpha virt. eigenvalues --    0.04921   0.06289   0.06563   0.07154   0.07326
 Alpha virt. eigenvalues --    0.07602   0.08418   0.08696   0.08844   0.09263
 Alpha virt. eigenvalues --    0.09288   0.09548   0.09588   0.10355   0.11348

  Beta  occ. eigenvalues --  -19.06684 -14.20887 -14.20847 -10.14528 -10.13230
  Beta  occ. eigenvalues --  -10.10685 -10.10202 -10.09952 -10.09400 -10.08927
  Beta  occ. eigenvalues --  -10.08734 -10.08544 -10.08423 -10.08342 -10.08121
  Beta  occ. eigenvalues --  -10.08049 -10.07235  -0.98242  -0.82351  -0.81511
  Beta  occ. eigenvalues --   -0.76570  -0.71347  -0.67961  -0.66165  -0.64425
  Beta  occ. eigenvalues --   -0.61325  -0.60077  -0.57215  -0.54408  -0.54064
  Beta  occ. eigenvalues --   -0.50625  -0.50025  -0.46859  -0.44853  -0.41040
  Beta  occ. eigenvalues --   -0.40719  -0.39909  -0.39307  -0.38270  -0.36861
  Beta  occ. eigenvalues --   -0.36441  -0.35801  -0.34926  -0.34387  -0.33766
  Beta  occ. eigenvalues --   -0.33296  -0.32020  -0.31806  -0.30149  -0.29786
  Beta  occ. eigenvalues --   -0.28912  -0.28405  -0.28035  -0.27378  -0.27059
  Beta  occ. eigenvalues --   -0.26485  -0.24386  -0.23948  -0.23591  -0.23458
  Beta  occ. eigenvalues --   -0.23067  -0.16378  -0.14850  -0.13646  -0.13213
  Beta virt. eigenvalues --    0.05697   0.06116   0.06638   0.06876   0.07286
  Beta virt. eigenvalues --    0.07643   0.07832   0.08625   0.08883   0.09036
  Beta virt. eigenvalues --    0.09435   0.09688   0.09822   0.10115   0.10554

 Mulliken charges and spin densities:
               1          2
     1  C    1.198997  -1.821933
     2  C   -1.334387   0.933840
     3  C    1.173531  -0.407224
     4  C   -0.112823  -0.512538
     5  N   -0.225385   0.139698
     6  C    0.223383  -0.556089
     7  C   -1.373769   0.338972
     8  N    0.050508  -0.002109
     9  C   -0.281345  -0.444718
    10  C    0.564964   0.105643
    11  C   -0.120054  -0.080390
    12  C   -0.337690  -0.000339
    13  C    0.626906  -0.975728
    14  C    0.289625  -0.273041
    15  C   -0.890408   0.733539
    16  O   -0.198824   0.058755
    17  C    0.861985  -1.140111
    18  H   -0.282494   0.435286
    19  H   -0.383324   0.528133
    20  H   -0.025298   0.168044
    21  H    0.096284   0.059419
    22  H   -0.009067   0.126010
    23  H    0.130025   0.069267
    24  H    0.134895   0.007896
    25  H    0.137685  -0.023310
    26  H    0.074431   0.146357
    27  H   -0.176440   0.294727
    28  H   -0.149876   0.283096
    29  H   -0.005492   0.134073
    30  H    0.047060   0.084829
    31  H    0.264425  -0.113939
    32  H    0.167953   0.069505
    33  H    0.134625   0.079688
    34  H    0.203378  -0.020458
    35  H   -0.036592   0.161713
    36  H   -0.065584   0.229286
    37  H   -0.162208   0.315444
    38  H   -0.282237   0.464728
    39  H   -0.317082   0.471387
    40  H   -0.379678   0.549643
    41  H   -0.230601   0.382948
 Sum of Mulliken charges =  -1.00000   1.00000

 Dipole moment (field-independent basis, Debye):
    X=              1.4509    Y=             -1.6556    Z=             -0.2072  Tot=              2.2111
 Quadrupole moment (field-independent basis, Debye-Ang):
   XX=           -237.9662   YY=           -146.9878   ZZ=           -147.4043
   XY=             -6.6639   XZ=             17.7874   YZ=             -0.8693

 Summary of Natural Population Analysis:

                                       Natural Population
                Natural  -----------------------------------------------
    Atom  No    Charge         Core      Valence    Rydberg      Total
 -----------------------------------------------------------------------
      C    1   -0.28658      0.99967     2.28125    0.00567     3.28658
      C    2   -0.19510      0.99962     2.18623    0.00924     3.19510
      C    3   -0.11508      0.99959     2.10428    0.01121     3.11508
      C    4   -0.08535      0.99961     2.07299    0.01276     3.08535
      N    5   -0.33927      0.99974     2.82874    0.01079     3.83927
      C    6   -0.17493      0.99967     2.16850    0.00676     3.17493
      C    7   -0.08764      0.99959     2.07767    0.01037     3.08764
      N    8   -0.33733      0.99975     2.82752    0.01006     3.83733
      C    9   -0.09339      0.99959     2.08283    0.01097     3.09339
      C   10   -0.03881      0.99946     2.03031    0.00904     3.03881
      C   11   -0.10095      0.99952     2.09128    0.01015     3.10095
      C   12   -0.11339      0.99956     2.10438    0.00945     3.11339
      C   13   -0.09549      0.99957     2.08633    0.00959     3.09549
      C   14   -0.14168      0.99952     2.13314    0.00902     3.14168
      C   15    0.16202      0.99934     1.82559    0.01304     2.83798
      O   16   -0.27530      0.99986     3.26576    0.00969     4.27530
      C   17   -0.10035      0.99960     2.09165    0.00909     3.10035
      H   18    0.09700      0.00000     0.40154    0.00146     0.40300
      H   19    0.10117      0.00000     0.39777    0.00106     0.39883
      H   20    0.09575      0.00000     0.40321    0.00105     0.40425
      H   21    0.09448      0.00000     0.40386    0.00167     0.40552
      H   22    0.09611      0.00000     0.40260    0.00129     0.40389
      H   23    0.09778      0.00000     0.40049    0.00173     0.40222
      H   24    0.09102      0.00000     0.40778    0.00120     0.40898
      H   25    0.08201      0.00000     0.41664    0.00135     0.41799
      H   26    0.17140      0.00000     0.32472    0.00388     0.32860
      H   27    0.07741      0.00000     0.42049    0.00210     0.42259
      H   28    0.09508      0.00000     0.40396    0.00096     0.40492
      H   29    0.08885      0.00000     0.40991    0.00125     0.41115
      H   30    0.09075      0.00000     0.40795    0.00130     0.40925
      H   31    0.09211      0.00000     0.40582    0.00206     0.40789
      H   32    0.16991      0.00000     0.32689    0.00320     0.33009
      H   33    0.10058      0.00000     0.39824    0.00118     0.39942
      H   34    0.10270      0.00000     0.39574    0.00156     0.39730
      H   35    0.09911      0.00000     0.39895    0.00194     0.40089
      H   36    0.10068      0.00000     0.39846    0.00086     0.39932
      H   37    0.10024      0.00000     0.39886    0.00090     0.39976
      H   38    0.10785      0.00000     0.39057    0.00158     0.39215
      H   39    0.08611      0.00000     0.41182    0.00206     0.41389
      H   40    0.09460      0.00000     0.40424    0.00117     0.40540
      H   41    0.08594      0.00000     0.41226    0.00179     0.41406
 =======================================================================
   * Total *   -0.00000     16.99327    47.80124    0.20549    65.00000

 Normal termination of Gaussian 16 at Fri Dec 11 14:34:37 2020.
