 Gaussian 16, Revision A.03,

 -----------------------------------------------------------
 # opt freq B3LYP/6-31G(d) empiricaldispersion=gd3bj scf=xqc
 -----------------------------------------------------------

 -------------------------------
 CID_105756078_JID_4295_neutraal
 -------------------------------
 Symbolic Z-matrix:
 Charge =  0 Multiplicity = 1

 SCF Done:  E(RB3LYP) =  -581.231475375     A.U. after   12 cycles
 SCF Done:  E(RB3LYP) =  -581.239682951     A.U. after   10 cycles
 SCF Done:  E(RB3LYP) =  -581.239667544     A.U. after   10 cycles
 SCF Done:  E(RB3LYP) =  -581.240479601     A.U. after   10 cycles
 SCF Done:  E(RB3LYP) =  -581.240642536     A.U. after   10 cycles
 SCF Done:  E(RB3LYP) =  -581.240908944     A.U. after   10 cycles
 SCF Done:  E(RB3LYP) =  -581.241128539     A.U. after   10 cycles
 SCF Done:  E(RB3LYP) =  -581.241340002     A.U. after   10 cycles
 SCF Done:  E(RB3LYP) =  -581.241446268     A.U. after   10 cycles
 SCF Done:  E(RB3LYP) =  -581.241522017     A.U. after    9 cycles
 SCF Done:  E(RB3LYP) =  -581.252977031     A.U. after    7 cycles
 SCF Done:  E(RB3LYP) =  -581.252977123     A.U. after    6 cycles
 SCF Done:  E(RB3LYP) =  -581.252977268     A.U. after    7 cycles
 SCF Done:  E(RB3LYP) =  -581.252977355     A.U. after    6 cycles
 SCF Done:  E(RB3LYP) =  -581.252977402     A.U. after    6 cycles
 SCF Done:  E(RB3LYP) =  -581.252977421     A.U. after    6 cycles
 Optimization completed.
    -- Stationary point found.
 Normal termination of Gaussian 16 at Thu Dec 10 09:58:03 2020.

 --------------------------------------------------------------------
 #N Geom=AllCheck Guess=TCheck SCRF=Check GenChk RB3LYP/6-31G(d) Freq
 --------------------------------------------------------------------

 Structure from the checkpoint file:  "JID_4295.chk"
 -------------------------------
 CID_105756078_JID_4295_neutraal
 -------------------------------
 Charge =  0 Multiplicity = 1

 SCF Done:  E(RB3LYP) =  -581.252977421     A.U. after    1 cycles

  Exact polarizability: 149.582  -1.270 138.453  -0.888  -1.334 118.551
 Approx polarizability: 186.313  -1.549 187.091  -1.503  -1.986 183.117

                      1                      2                      3
                      A                      A                      A
 Frequencies --     20.7978                48.4121                76.6786
 Red. masses --      3.2062                 3.5397                 2.2446
 Frc consts  --      0.0008                 0.0049                 0.0078
 IR Inten    --      0.0143                 0.1703                 0.2587

                      4                      5                      6
                      A                      A                      A
 Frequencies --     85.5079               120.3006               125.7076
 Red. masses --      2.8229                 2.0298                 2.1130
 Frc consts  --      0.0122                 0.0173                 0.0197
 IR Inten    --      0.0615                 0.8781                 0.3658

                      7                      8                      9
                      A                      A                      A
 Frequencies --    152.2120               185.9684               199.7456
 Red. masses --      1.9809                 1.9817                 2.1574
 Frc consts  --      0.0270                 0.0404                 0.0507
 IR Inten    --      0.4747                 1.0814                 0.1054

                     10                     11                     12
                      A                      A                      A
 Frequencies --    214.5348               247.7250               270.4534
 Red. masses --      1.4433                 1.5398                 2.2342
 Frc consts  --      0.0391                 0.0557                 0.0963
 IR Inten    --      0.2667                 0.4856                 1.4260

                     13                     14                     15
                      A                      A                      A
 Frequencies --    296.7617               312.0738               337.4597
 Red. masses --      2.5958                 2.0980                 2.7886
 Frc consts  --      0.1347                 0.1204                 0.1871
 IR Inten    --      0.1195                 0.9395                 4.1247

                     16                     17                     18
                      A                      A                      A
 Frequencies --    387.6160               411.7033               417.6751
 Red. masses --      2.3137                 1.9565                 2.6002
 Frc consts  --      0.2048                 0.1954                 0.2673
 IR Inten    --      1.3226                 0.9294                 1.8989

                     19                     20                     21
                      A                      A                      A
 Frequencies --    465.7879               492.4163               634.4068
 Red. masses --      2.3021                 2.4154                 2.4542
 Frc consts  --      0.2943                 0.3451                 0.5820
 IR Inten    --      0.8460                 0.6311                 1.7284

                     22                     23                     24
                      A                      A                      A
 Frequencies --    668.2932               725.9971               732.1651
 Red. masses --      3.2099                 1.6351                 2.2802
 Frc consts  --      0.8446                 0.5078                 0.7202
 IR Inten    --      0.9998                 1.9232                32.2929

                     25                     26                     27
                      A                      A                      A
 Frequencies --    785.8065               799.6273               810.6613
 Red. masses --      2.8334                 1.2649                 1.2087
 Frc consts  --      1.0308                 0.4765                 0.4680
 IR Inten    --     26.8219                 6.1377                 1.1774

                     28                     29                     30
                      A                      A                      A
 Frequencies --    837.9020               867.7800               896.3459
 Red. masses --      1.4145                 2.0717                 3.1277
 Frc consts  --      0.5851                 0.9192                 1.4806
 IR Inten    --     21.0282                 4.4753                11.1850

                     31                     32                     33
                      A                      A                      A
 Frequencies --    905.7371               919.3354               926.6059
 Red. masses --      1.8779                 1.9817                 1.9691
 Frc consts  --      0.9077                 0.9868                 0.9961
 IR Inten    --      6.8368                 6.5670                 9.2932

                     34                     35                     36
                      A                      A                      A
 Frequencies --    941.8343               950.9831               962.7713
 Red. masses --      2.0606                 2.3920                 1.7612
 Frc consts  --      1.0770                 1.2745                 0.9619
 IR Inten    --      4.2058                 1.7840                 2.3462

                     37                     38                     39
                      A                      A                      A
 Frequencies --    970.0694               993.5776              1010.7428
 Red. masses --      1.8490                 2.2704                 2.2800
 Frc consts  --      1.0252                 1.3205                 1.3724
 IR Inten    --      3.0359                 0.4999                 1.5501

                     40                     41                     42
                      A                      A                      A
 Frequencies --   1037.7820              1067.4766              1074.3483
 Red. masses --      2.1809                 1.4278                 1.4679
 Frc consts  --      1.3839                 0.9586                 0.9982
 IR Inten    --      1.4238                 4.3247                 4.4198

                     43                     44                     45
                      A                      A                      A
 Frequencies --   1080.5276              1094.9105              1125.8200
 Red. masses --      1.4605                 1.7301                 2.6116
 Frc consts  --      1.0047                 1.2220                 1.9503
 IR Inten    --      7.0671                 7.6408                26.0701

                     46                     47                     48
                      A                      A                      A
 Frequencies --   1142.2204              1163.0340              1175.1468
 Red. masses --      2.3295                 2.2458                 1.8219
 Frc consts  --      1.7906                 1.7898                 1.4824
 IR Inten    --     16.3266                13.5287                23.5317

                     49                     50                     51
                      A                      A                      A
 Frequencies --   1180.0904              1182.7703              1204.5999
 Red. masses --      1.4707                 1.6476                 1.9073
 Frc consts  --      1.2067                 1.3580                 1.6306
 IR Inten    --     24.5850                35.3561                 0.8996

                     52                     53                     54
                      A                      A                      A
 Frequencies --   1220.2411              1227.2484              1248.6369
 Red. masses --      1.4216                 1.6664                 1.3890
 Frc consts  --      1.2471                 1.4787                 1.2759
 IR Inten    --      0.7962                 4.3987                 3.2409

                     55                     56                     57
                      A                      A                      A
 Frequencies --   1269.2524              1273.2154              1276.4952
 Red. masses --      1.2685                 1.7829                 1.6192
 Frc consts  --      1.2040                 1.7029                 1.5545
 IR Inten    --      0.6298                 8.0502                 2.3741

                     58                     59                     60
                      A                      A                      A
 Frequencies --   1281.3162              1288.8851              1304.8657
 Red. masses --      1.4958                 1.4593                 1.4431
 Frc consts  --      1.4469                 1.4283                 1.4477
 IR Inten    --      0.2547                 0.2099                 3.3333

                     61                     62                     63
                      A                      A                      A
 Frequencies --   1306.0261              1328.7749              1336.3535
 Red. masses --      1.4466                 1.3621                 1.4160
 Frc consts  --      1.4538                 1.4170                 1.4899
 IR Inten    --     10.7993                 1.9041                21.7252

                     64                     65                     66
                      A                      A                      A
 Frequencies --   1356.2280              1372.3696              1382.0050
 Red. masses --      1.5016                 1.4179                 1.3590
 Frc consts  --      1.6273                 1.5734                 1.5293
 IR Inten    --      7.7357                14.9964                16.1596

                     67                     68                     69
                      A                      A                      A
 Frequencies --   1387.5562              1407.9859              1432.7760
 Red. masses --      1.6468                 1.5028                 1.4202
 Frc consts  --      1.8681                 1.7553                 1.7177
 IR Inten    --      9.4504                11.0471                 7.6191

                     70                     71                     72
                      A                      A                      A
 Frequencies --   1441.3365              1481.9856              1506.3570
 Red. masses --      1.2407                 1.1668                 1.0855
 Frc consts  --      1.5186                 1.5099                 1.4512
 IR Inten    --      7.9566                 1.1491                 1.1296

                     73                     74                     75
                      A                      A                      A
 Frequencies --   1512.4822              1514.7163              1514.8148
 Red. masses --      1.1201                 1.0925                 1.1025
 Frc consts  --      1.5097                 1.4769                 1.4905
 IR Inten    --     11.6967                 7.4887                 6.0513

                     76                     77                     78
                      A                      A                      A
 Frequencies --   1520.4339              1521.9165              1525.4267
 Red. masses --      1.1066                 1.0835                 1.0703
 Frc consts  --      1.5073                 1.4786                 1.4674
 IR Inten    --      2.1131                 5.9791                 5.6636

                     79                     80                     81
                      A                      A                      A
 Frequencies --   1532.6075              1536.2067              1540.6141
 Red. masses --      1.0560                 1.0701                 1.0875
 Frc consts  --      1.4615                 1.4879                 1.5208
 IR Inten    --     10.8071                 2.4467                 5.9432

                     82                     83                     84
                      A                      A                      A
 Frequencies --   1542.1726              1548.9241              1560.6905
 Red. masses --      1.1063                 1.0544                 1.1011
 Frc consts  --      1.5502                 1.4904                 1.5802
 IR Inten    --      1.4438                12.6059                 4.2369

                     85                     86                     87
                      A                      A                      A
 Frequencies --   2912.4465              2930.1364              2957.0125
 Red. masses --      1.0735                 1.0750                 1.0604
 Frc consts  --      5.3651                 5.4381                 5.4631
 IR Inten    --     69.5700                87.3799                76.0137

                     88                     89                     90
                      A                      A                      A
 Frequencies --   2976.3332              3031.6180              3048.7736
 Red. masses --      1.0698                 1.0638                 1.0375
 Frc consts  --      5.5839                 5.7607                 5.6817
 IR Inten    --     65.3908                22.5499                17.2302

                     91                     92                     93
                      A                      A                      A
 Frequencies --   3056.1732              3062.9139              3065.2228
 Red. masses --      1.0576                 1.0888                 1.0596
 Frc consts  --      5.8201                 6.0181                 5.8656
 IR Inten    --     62.7504                11.4932                30.2477

                     94                     95                     96
                      A                      A                      A
 Frequencies --   3067.7736              3068.7295              3074.5195
 Red. masses --      1.0963                 1.0740                 1.0647
 Frc consts  --      6.0792                 5.9589                 5.9297
 IR Inten    --     32.5775                40.5367                46.6499

                     97                     98                     99
                      A                      A                      A
 Frequencies --   3075.4763              3087.9968              3095.8451
 Red. masses --      1.0799                 1.0681                 1.0872
 Frc consts  --      6.0179                 6.0007                 6.1395
 IR Inten    --     27.9350                66.3257                29.5397

                    100                    101                    102
                      A                      A                      A
 Frequencies --   3099.2463              3105.7431              3110.8033
 Red. masses --      1.1067                 1.0889                 1.1072
 Frc consts  --      6.2633                 6.1882                 6.3126
 IR Inten    --     21.1674                16.3592                10.3435

                    103                    104                    105
                      A                      A                      A
 Frequencies --   3111.4427              3116.7325              3120.4018
 Red. masses --      1.1009                 1.1018                 1.1013
 Frc consts  --      6.2794                 6.3062                 6.3177
 IR Inten    --     44.2987                30.8787                30.8965

                    106                    107                    108
                      A                      A                      A
 Frequencies --   3127.0566              3132.7796              3475.3869
 Red. masses --      1.1074                 1.1047                 1.0733
 Frc consts  --      6.3801                 6.3878                 7.6378
 IR Inten    --     92.9537                25.1628                 1.0250

 - Thermochemistry -
 -------------------
 Temperature   298.150 Kelvin.  Pressure   1.00000 Atm.
 Atom     1 has atomic number  6 and mass  12.00000

 Molecular mass:   196.19395 amu.
 Principal axes and moments of inertia in atomic units:
                           1         2         3
     Eigenvalues --  1740.328064262.156135184.75813
           X            0.99988  -0.01551  -0.00268
           Y            0.01552   0.99988   0.00228
           Z            0.00264  -0.00233   0.99999
 This molecule is an asymmetric top.
 Rotational symmetry number  1.
 Warning -- assumption of classical behavior for rotation
           may cause significant error
 Rotational temperatures (Kelvin)      0.04977     0.02032     0.01671
 Rotational constants (GHZ):           1.03701     0.42343     0.34809
 Zero-point vibrational energy     928005.4 (Joules/Mol)
                                  221.79861 (Kcal/Mol)
 Warning -- explicit consideration of  20 degrees of freedom as
           vibrations may cause significant error
 Vibrational temperatures:     29.92    69.65   110.32   123.03   173.09
          (Kelvin)            180.87   219.00   267.57   287.39   308.67
                              356.42   389.12   426.97   449.00   485.53
                              557.69   592.35   600.94   670.16   708.48
                              912.77   961.52  1044.55  1053.42  1130.60
                             1150.49  1166.36  1205.55  1248.54  1289.64
                             1303.15  1322.72  1333.18  1355.09  1368.25
                             1385.21  1395.71  1429.54  1454.23  1493.14
                             1535.86  1545.75  1554.64  1575.33  1619.80
                             1643.40  1673.35  1690.77  1697.89  1701.74
                             1733.15  1755.65  1765.74  1796.51  1826.17
                             1831.87  1836.59  1843.53  1854.42  1877.41
                             1879.08  1911.81  1922.71  1951.31  1974.53
                             1988.40  1996.38  2025.78  2061.45  2073.76
                             2132.25  2167.31  2176.12  2179.34  2179.48
                             2187.57  2189.70  2194.75  2205.08  2210.26
                             2216.60  2218.84  2228.56  2245.49  4190.36
                             4215.81  4254.48  4282.28  4361.82  4386.51
                             4397.15  4406.85  4410.17  4413.84  4415.22
                             4423.55  4424.92  4442.94  4454.23  4459.12
                             4468.47  4475.75  4476.67  4484.28  4489.56
                             4499.14  4507.37  5000.31

 Zero-point correction=                           0.353459 (Hartree/Particle)
 Thermal correction to Energy=                    0.368648
 Thermal correction to Enthalpy=                  0.369592
 Thermal correction to Gibbs Free Energy=         0.310476
 Sum of electronic and zero-point Energies=           -580.899519
 Sum of electronic and thermal Energies=              -580.884330
 Sum of electronic and thermal Enthalpies=            -580.883385
 Sum of electronic and thermal Free Energies=         -580.942501

                     E (Thermal)             CV                S
                      KCal/Mol        Cal/Mol-Kelvin    Cal/Mol-Kelvin
 Total                  231.330             58.157            124.420
 Electronic               0.000              0.000              0.000
 Translational            0.889              2.981             41.727
 Rotational               0.889              2.981             32.020
 Vibrational            229.553             52.196             50.673
 Vibration     1          0.593              1.986              6.557
 Vibration     2          0.595              1.978              4.881
 Vibration     3          0.599              1.965              3.974
 Vibration     4          0.601              1.959              3.760
 Vibration     5          0.609              1.932              3.096
 Vibration     6          0.611              1.927              3.011
 Vibration     7          0.619              1.900              2.644
 Vibration     8          0.632              1.859              2.268
 Vibration     9          0.638              1.840              2.135
 Vibration    10          0.644              1.819              2.005
 Vibration    11          0.661              1.767              1.747
 Vibration    12          0.674              1.728              1.593
 Vibration    13          0.690              1.680              1.435
 Vibration    14          0.700              1.651              1.351
 Vibration    15          0.718              1.601              1.224
 Vibration    16          0.756              1.497              1.009
 Vibration    17          0.776              1.445              0.921
 Vibration    18          0.781              1.432              0.900
 Vibration    19          0.823              1.326              0.749
 Vibration    20          0.848              1.267              0.677

 Optimization completed.
    -- Stationary point found.
 Normal termination of Gaussian 16 at Thu Dec 10 10:11:54 2020.

 ----------------------------------------------------------------------
 # B3LYP/6-311++G(d,p) empiricaldispersion=gd3bj scf=xqc pop=npa geom=c
 heck
 ----------------------------------------------------------------------

 ---------------------------------------
 CID_105756078_JID_4295_Energie_neutraal
 ---------------------------------------
 Structure from the checkpoint file:  "JID_4295.chk"
 Charge =  0 Multiplicity = 1

 SCF Done:  E(RB3LYP) =  -581.413578936     A.U. after   14 cycles
 Normal termination of Gaussian 16 at Thu Dec 10 10:18:50 2020.

 ----------------------------------------------------------------------
 # B3LYP/6-311++G(d,p) empiricaldispersion=gd3bj scf=xqc pop=npa geom=c
 heck
 ----------------------------------------------------------------------

 -------------------------------------
 CID_105756078_JID_4295_Energie_kation
 -------------------------------------
 Structure from the checkpoint file:  "JID_4295.chk"
 Charge =  1 Multiplicity = 2

 SCF Done:  E(UB3LYP) =  -581.127832225     A.U. after   22 cycles
 Normal termination of Gaussian 16 at Thu Dec 10 10:34:26 2020.
 Gaussian 16:  ES64L-G16RevA.03 25-Dec-2016

 ----------------------------------------------------------------------
 # B3LYP/6-311++G(d,p) empiricaldispersion=gd3bj scf=xqc pop=npa geom=c
 heck
 ----------------------------------------------------------------------

 ------------------------------------
 CID_105756078_JID_4295_Energie_anion
 ------------------------------------
 Structure from the checkpoint file:  "JID_4295.chk"
 Charge = -1 Multiplicity = 2

                         Standard orientation:
 ---------------------------------------------------------------------
 Center     Atomic      Atomic             Coordinates (Angstroms)
 Number     Number       Type             X           Y           Z
 ---------------------------------------------------------------------
      1          6           0        2.678467   -2.185442   -0.557443
      2          6           0        2.115790   -0.881706   -1.131182
      3          6           0        1.881969    0.219264   -0.095958
      4          6           0        3.159951    0.815628    0.575258
      5          6           0        2.610589    2.242040    0.309428
      6          6           0        1.582576    1.632624   -0.679314
      7          6           0        0.842027   -0.151388    0.973568
      8          7           0       -0.490048   -0.390017    0.428528
      9          6           0       -0.877343   -1.791370    0.239090
     10          6           0       -2.405217   -1.737034    0.005736
     11          6           0       -2.814349   -0.281426    0.353449
     12          6           0       -1.602021    0.201712    1.170494
     13          7           0       -3.035700    0.479189   -0.877764
     14          6           0       -3.555391    1.823427   -0.662343
     15          1           0        3.609651   -2.002236   -0.007856
     16          1           0        2.899348   -2.902700   -1.355633
     17          1           0        1.977877   -2.666659    0.133149
     18          1           0        2.816097   -0.494534   -1.883908
     19          1           0        1.175365   -1.072803   -1.664071
     20          1           0        3.349721    0.535092    1.617741
     21          1           0        4.062365    0.602430   -0.007893
     22          1           0        3.314450    2.975161   -0.095310
     23          1           0        2.136077    2.679360    1.193590
     24          1           0        1.907721    1.720363   -1.721612
     25          1           0        0.543545    1.970339   -0.612529
     26          1           0        1.192477   -1.018360    1.560001
     27          1           0        0.776306    0.682831    1.682470
     28          1           0       -0.643515   -2.390439    1.140457
     29          1           0       -0.334818   -2.239788   -0.597271
     30          1           0       -2.681848   -1.948045   -1.030343
     31          1           0       -2.923392   -2.460124    0.642182
     32          1           0       -3.740207   -0.243320    0.937429
     33          1           0       -1.506990    1.291678    1.204668
     34          1           0       -1.659975   -0.167090    2.215125
     35          1           0       -2.138771    0.533878   -1.360833
     36          1           0       -2.939914    2.469678   -0.009760
     37          1           0       -3.660857    2.327646   -1.628532
     38          1           0       -4.552775    1.755472   -0.211302
 ---------------------------------------------------------------------

 SCF Done:  E(UB3LYP) =  -581.397650999     A.U. after   30 cycles

 The electronic state is 2-A.
 Alpha  occ. eigenvalues --  -14.20455 -14.19714 -10.09939 -10.09299 -10.09084
 Alpha  occ. eigenvalues --  -10.08870 -10.08807 -10.07691 -10.06815 -10.06672
 Alpha  occ. eigenvalues --  -10.06472 -10.06465 -10.06135 -10.06111  -0.84374
 Alpha  occ. eigenvalues --   -0.79906  -0.75387  -0.67594  -0.66344  -0.62296
 Alpha  occ. eigenvalues --   -0.59848  -0.56282  -0.56058  -0.54362  -0.49552
 Alpha  occ. eigenvalues --   -0.48401  -0.47593  -0.43004  -0.40147  -0.39494
 Alpha  occ. eigenvalues --   -0.38296  -0.37175  -0.36289  -0.34642  -0.33802
 Alpha  occ. eigenvalues --   -0.33398  -0.32782  -0.31210  -0.29648  -0.29625
 Alpha  occ. eigenvalues --   -0.28557  -0.28078  -0.27431  -0.26663  -0.25917
 Alpha  occ. eigenvalues --   -0.24520  -0.24242  -0.24161  -0.23796  -0.23303
 Alpha  occ. eigenvalues --   -0.21387  -0.19746  -0.19078  -0.12914  -0.12110
 Alpha  occ. eigenvalues --    0.04401
 Alpha virt. eigenvalues --    0.06206   0.06764   0.07322   0.07966   0.08348
 Alpha virt. eigenvalues --    0.08839   0.09254   0.09549   0.10488   0.10739
 Alpha virt. eigenvalues --    0.10984   0.11116   0.11806   0.12544   0.12721

  Beta  occ. eigenvalues --  -14.20448 -14.19710 -10.09930 -10.09283 -10.09068
  Beta  occ. eigenvalues --  -10.08847 -10.08778 -10.07690 -10.06806 -10.06653
  Beta  occ. eigenvalues --  -10.06455 -10.06454 -10.06126 -10.06087  -0.84357
  Beta  occ. eigenvalues --   -0.79893  -0.75372  -0.67571  -0.66318  -0.62260
  Beta  occ. eigenvalues --   -0.59813  -0.56244  -0.56005  -0.54316  -0.49501
  Beta  occ. eigenvalues --   -0.48370  -0.47538  -0.42961  -0.40108  -0.39464
  Beta  occ. eigenvalues --   -0.38264  -0.37147  -0.36260  -0.34613  -0.33778
  Beta  occ. eigenvalues --   -0.33367  -0.32754  -0.31176  -0.29621  -0.29597
  Beta  occ. eigenvalues --   -0.28528  -0.28050  -0.27396  -0.26634  -0.25891
  Beta  occ. eigenvalues --   -0.24497  -0.24215  -0.24139  -0.23766  -0.23279
  Beta  occ. eigenvalues --   -0.21365  -0.19727  -0.19055  -0.12898  -0.12057
  Beta virt. eigenvalues --    0.06396   0.07030   0.07358   0.07816   0.08417
  Beta virt. eigenvalues --    0.08838   0.09304   0.09588   0.09767   0.10939
  Beta virt. eigenvalues --    0.11034   0.11333   0.11475   0.11955   0.12770

 Mulliken charges and spin densities:
               1          2
     1  C    0.290024  -0.929126
     2  C   -0.394572   0.197642
     3  C   -0.412131   1.552089
     4  C    0.096341  -0.537736
     5  C    0.245007  -0.616664
     6  C    0.088189  -0.393339
     7  C    0.015374  -1.496171
     8  N    0.349159   0.141663
     9  C   -0.352618   0.248351
    10  C    0.999851  -1.673929
    11  C   -2.203073   2.080580
    12  C    1.308378  -1.813025
    13  N    0.060375  -0.089439
    14  C    0.585941  -0.908156
    15  H   -0.135127   0.282575
    16  H   -0.224391   0.369548
    17  H   -0.190005   0.335965
    18  H   -0.192717   0.346953
    19  H    0.095492   0.045512
    20  H   -0.149423   0.307773
    21  H   -0.057785   0.187469
    22  H   -0.069640   0.224199
    23  H   -0.228177   0.352749
    24  H   -0.125278   0.260177
    25  H    0.242103  -0.084432
    26  H    0.077832   0.076696
    27  H    0.123019   0.030949
    28  H    0.029219   0.097475
    29  H    0.021558   0.105847
    30  H    0.097738   0.073730
    31  H   -0.124199   0.258795
    32  H   -0.295002   0.512226
    33  H    0.082496   0.076398
    34  H   -0.350888   0.470894
    35  H    0.269928  -0.044920
    36  H   -0.162435   0.275950
    37  H   -0.165343   0.298152
    38  H   -0.245220   0.376581
 Sum of Mulliken charges =  -1.00000   1.00000

 Dipole moment (field-independent basis, Debye):
    X=              0.0932    Y=             -0.7500    Z=             -1.2298  Tot=              1.4434
 Quadrupole moment (field-independent basis, Debye-Ang):
   XX=           -170.5624   YY=           -140.7110   ZZ=           -130.0109
   XY=              5.7963   XZ=              4.2979   YZ=             -1.1108

 Summary of Natural Population Analysis:

                                       Natural Population
                Natural  -----------------------------------------------
    Atom  No    Charge         Core      Valence    Rydberg      Total
 -----------------------------------------------------------------------
      C    1   -0.28844      0.99966     2.28345    0.00533     3.28844
      C    2   -0.18938      0.99958     2.18025    0.00955     3.18938
      C    3   -0.03944      0.99955     2.02466    0.01523     3.03944
      C    4   -0.18752      0.99960     2.17942    0.00850     3.18752
      C    5   -0.19305      0.99965     2.18525    0.00815     3.19305
      C    6   -0.18293      0.99960     2.17424    0.00909     3.18293
      C    7   -0.08009      0.99954     2.06759    0.01296     3.08009
      N    8   -0.29327      0.99971     2.78071    0.01285     3.79327
      C    9   -0.08159      0.99963     2.07232    0.00965     3.08159
      C   10   -0.19703      0.99962     2.18860    0.00881     3.19703
      C   11   -0.01265      0.99959     1.99845    0.01462     3.01265
      C   12   -0.08980      0.99960     2.07908    0.01112     3.08980
      N   13   -0.34070      0.99974     2.82957    0.01138     3.84070
      C   14   -0.17984      0.99966     2.17182    0.00836     3.17984
      H   15    0.09742      0.00000     0.40145    0.00113     0.40258
      H   16    0.09882      0.00000     0.40029    0.00089     0.40118
      H   17    0.09703      0.00000     0.40186    0.00112     0.40297
      H   18    0.09599      0.00000     0.40269    0.00132     0.40401
      H   19    0.09878      0.00000     0.39982    0.00140     0.40122
      H   20    0.09699      0.00000     0.40193    0.00108     0.40301
      H   21    0.09849      0.00000     0.40030    0.00121     0.40151
      H   22    0.09503      0.00000     0.40385    0.00112     0.40497
      H   23    0.09588      0.00000     0.40260    0.00151     0.40412
      H   24    0.09599      0.00000     0.40273    0.00128     0.40401
      H   25    0.09964      0.00000     0.39883    0.00153     0.40036
      H   26    0.09047      0.00000     0.40794    0.00159     0.40953
      H   27    0.09789      0.00000     0.40021    0.00190     0.40211
      H   28    0.08032      0.00000     0.41813    0.00155     0.41968
      H   29    0.09548      0.00000     0.40304    0.00148     0.40452
      H   30    0.10430      0.00000     0.39424    0.00146     0.39570
      H   31    0.10107      0.00000     0.39802    0.00091     0.39893
      H   32    0.09562      0.00000     0.40309    0.00129     0.40438
      H   33    0.09947      0.00000     0.39904    0.00150     0.40053
      H   34    0.08337      0.00000     0.41498    0.00165     0.41663
      H   35    0.17374      0.00000     0.32222    0.00405     0.32626
      H   36    0.08008      0.00000     0.41834    0.00157     0.41992
      H   37    0.09336      0.00000     0.40581    0.00083     0.40664
      H   38    0.09052      0.00000     0.40820    0.00128     0.40948
 =======================================================================
   * Total *   -0.00000     13.99471    40.82506    0.18023    55.00000

 Normal termination of Gaussian 16 at Thu Dec 10 10:55:18 2020.
