 Gaussian 16, Revision A.03,

 -----------------------------------------------------------
 # opt freq B3LYP/6-31G(d) empiricaldispersion=gd3bj scf=xqc
 -----------------------------------------------------------

 ------------------------------
 CID_63321189_JID_1935_neutraal
 ------------------------------
 Symbolic Z-matrix:
 Charge =  0 Multiplicity = 1

 SCF Done:  E(RB3LYP) =  -476.967145526     A.U. after   14 cycles
 SCF Done:  E(RB3LYP) =  -476.970862699     A.U. after   12 cycles
 SCF Done:  E(RB3LYP) =  -476.971505838     A.U. after   12 cycles
 SCF Done:  E(RB3LYP) =  -476.971596428     A.U. after   11 cycles
 SCF Done:  E(RB3LYP) =  -476.971630989     A.U. after   10 cycles
 SCF Done:  E(RB3LYP) =  -476.971647419     A.U. after   11 cycles
 SCF Done:  E(RB3LYP) =  -476.971654858     A.U. after   10 cycles
 SCF Done:  E(RB3LYP) =  -476.971660946     A.U. after   11 cycles
 SCF Done:  E(RB3LYP) =  -476.971663871     A.U. after   10 cycles
 SCF Done:  E(RB3LYP) =  -476.971664623     A.U. after    8 cycles
 SCF Done:  E(RB3LYP) =  -476.971664920     A.U. after    8 cycles
 Optimization completed.
    -- Stationary point found.

 1\1\GINC-NODE202\FOpt\RB3LYP\6-31G(d)\C8H13N3\VSC10255\08-Dec-2020\0\\
 # opt freq B3LYP/6-31G(d) empiricaldispersion=gd3bj scf=xqc\\CID_63321
 189_JID_1935_neutraal\\0,1\C,1.0317643126,-0.0409849871,0.0109989056\C
 ,0.5926446135,0.2595461456,-1.4236015762\C,0.7684230663,-0.9287527746,
 -2.3988673116\C,-0.2105170877,-2.0804346668,-2.0544729089\C,0.41879297
 11,-0.4878833255,-3.8193931362\N,1.1365453764,-1.0133457207,-4.8233402
 832\C,0.7932049714,-0.6604840076,-6.0659361427\C,-0.2626510997,0.20665
 09093,-6.3283182572\C,-0.9550805914,0.6799822391,-5.215783427\N,-0.627

 Normal termination of Gaussian 16 at Tue Dec  8 21:35:03 2020.

 --------------------------------------------------------------------
 #N Geom=AllCheck Guess=TCheck SCRF=Check GenChk RB3LYP/6-31G(d) Freq
 --------------------------------------------------------------------

 Structure from the checkpoint file:  "JID_1935.chk"
 ------------------------------
 CID_63321189_JID_1935_neutraal
 ------------------------------
 Charge =  0 Multiplicity = 1

 SCF Done:  E(RB3LYP) =  -476.971664920     A.U. after    1 cycles

  Exact polarizability: 131.998  -1.408  98.112   3.265   3.670  66.036
 Approx polarizability: 179.321  -2.029 165.398   6.324  11.421  96.992

                      1                      2                      3
                      A                      A                      A
 Frequencies --     28.4633                86.7682               118.1502
 Red. masses --      4.1094                 2.2853                 2.8943
 Frc consts  --      0.0020                 0.0101                 0.0238
 IR Inten    --      0.2843                 1.5307                 1.8654

                      4                      5                      6
                      A                      A                      A
 Frequencies --    185.8346               233.9555               267.3423
 Red. masses --      3.2302                 1.1590                 1.4006
 Frc consts  --      0.0657                 0.0374                 0.0590
 IR Inten    --      1.8571                26.3752                 4.8202

                      7                      8                      9
                      A                      A                      A
 Frequencies --    282.8539               292.1336               311.2110
 Red. masses --      1.5418                 1.8282                 1.8236
 Frc consts  --      0.0727                 0.0919                 0.1041
 IR Inten    --     32.2779                 1.2744                11.4189

                     10                     11                     12
                      A                      A                      A
 Frequencies --    343.9463               357.6979               407.8788
 Red. masses --      4.0981                 2.5505                 4.0498
 Frc consts  --      0.2856                 0.1923                 0.3970
 IR Inten    --      0.5221                 1.1827                 0.2684

                     13                     14                     15
                      A                      A                      A
 Frequencies --    430.5022               488.9145               557.9125
 Red. masses --      2.5162                 3.6909                 2.6769
 Frc consts  --      0.2748                 0.5198                 0.4909
 IR Inten    --      5.4675                 3.2375                 3.7777

                     16                     17                     18
                      A                      A                      A
 Frequencies --    633.3782               651.8939               751.1850
 Red. masses --      3.0400                 7.9182                 4.7743
 Frc consts  --      0.7185                 1.9826                 1.5873
 IR Inten    --      5.1270                 8.2956                 3.8963

                     19                     20                     21
                      A                      A                      A
 Frequencies --    794.2703               819.6383               833.3206
 Red. masses --      1.2201                 1.2354                 8.0428
 Frc consts  --      0.4535                 0.4890                 3.2906
 IR Inten    --      0.6523                17.5082                 7.3012

                     22                     23                     24
                      A                      A                      A
 Frequencies --    868.1767               910.0744               961.3639
 Red. masses --      2.5835                 1.5865                 1.3932
 Frc consts  --      1.1473                 0.7742                 0.7586
 IR Inten    --      4.8106               120.3459                34.1929

                     25                     26                     27
                      A                      A                      A
 Frequencies --    998.8857               999.6176              1012.0864
 Red. masses --      1.4041                 1.3952                 2.1168
 Frc consts  --      0.8254                 0.8214                 1.2775
 IR Inten    --      0.1012                 0.0364                 6.0157

                     28                     29                     30
                      A                      A                      A
 Frequencies --   1016.3080              1027.9741              1081.3825
 Red. masses --      4.6241                 2.0038                 1.7807
 Frc consts  --      2.8140                 1.2476                 1.2269
 IR Inten    --      1.4383                10.4610                 5.0818

                     31                     32                     33
                      A                      A                      A
 Frequencies --   1101.2220              1117.2613              1125.2589
 Red. masses --      2.3706                 1.7400                 1.4539
 Frc consts  --      1.6938                 1.2797                 1.0846
 IR Inten    --      2.9029                 7.0501                 3.0077

                     34                     35                     36
                      A                      A                      A
 Frequencies --   1188.7122              1241.5517              1256.2997
 Red. masses --      2.3117                 2.4158                 5.8384
 Frc consts  --      1.9246                 2.1940                 5.4291
 IR Inten    --      9.5536                23.8219                 3.1605

                     37                     38                     39
                      A                      A                      A
 Frequencies --   1271.4149              1315.3922              1334.8645
 Red. masses --      2.1284                 1.6247                 1.3459
 Frc consts  --      2.0271                 1.6562                 1.4130
 IR Inten    --     18.4374                 1.5046                 1.4355

                     40                     41                     42
                      A                      A                      A
 Frequencies --   1356.2741              1409.7730              1422.6349
 Red. masses --      1.6376                 1.5901                 1.2783
 Frc consts  --      1.7749                 1.8620                 1.5243
 IR Inten    --      6.6883                14.7608                 4.2896

                     43                     44                     45
                      A                      A                      A
 Frequencies --   1435.9929              1473.5209              1481.2580
 Red. masses --      1.2798                 2.4995                 2.0191
 Frc consts  --      1.5548                 3.1975                 2.6102
 IR Inten    --      0.2954                99.3347                 4.1046

                     46                     47                     48
                      A                      A                      A
 Frequencies --   1508.2429              1522.0581              1531.5142
 Red. masses --      1.0752                 1.0526                 1.0828
 Frc consts  --      1.4410                 1.4367                 1.4964
 IR Inten    --      0.2705                 4.0567                 5.6028

                     49                     50                     51
                      A                      A                      A
 Frequencies --   1537.6982              1544.5599              1615.8477
 Red. masses --      1.0598                 1.0535                 6.0703
 Frc consts  --      1.4765                 1.4807                 9.3382
 IR Inten    --      5.0702                 5.9813                79.4153

                     52                     53                     54
                      A                      A                      A
 Frequencies --   1638.6219              1676.5862              3045.8812
 Red. masses --      5.2614                 1.0939                 1.0348
 Frc consts  --      8.3236                 1.8116                 5.6562
 IR Inten    --    102.8531                70.1310                13.8834

                     55                     56                     57
                      A                      A                      A
 Frequencies --   3051.8985              3065.3682              3106.2660
 Red. masses --      1.0354                 1.0644                 1.0982
 Frc consts  --      5.6821                 5.8926                 6.2434
 IR Inten    --     39.0023                14.2863                14.7029

                     58                     59                     60
                      A                      A                      A
 Frequencies --   3113.9729              3119.6604              3124.4919
 Red. masses --      1.1025                 1.1024                 1.1026
 Frc consts  --      6.2990                 6.3214                 6.3418
 IR Inten    --     39.2146                17.9049                23.9781

                     61                     62                     63
                      A                      A                      A
 Frequencies --   3131.5259              3172.6031              3175.3200
 Red. masses --      1.1020                 1.0900                 1.0914
 Frc consts  --      6.3669                 6.4638                 6.4836
 IR Inten    --     49.7836                19.9589                31.4738

                     64                     65                     66
                      A                      A                      A
 Frequencies --   3226.9966              3480.5127              3569.6006
 Red. masses --      1.0960                 1.0492                 1.0927
 Frc consts  --      6.7245                 7.4884                 8.2030
 IR Inten    --     14.2629                10.7663                 2.9563

 - Thermochemistry -
 -------------------
 Temperature   298.150 Kelvin.  Pressure   1.00000 Atm.
 Atom     1 has atomic number  6 and mass  12.00000

 Molecular mass:   151.11095 amu.
 Principal axes and moments of inertia in atomic units:
                           1         2         3
     Eigenvalues --   767.514292436.414612743.76001
           X            0.99998   0.00522   0.00201
           Y           -0.00517   0.99962  -0.02725
           Z           -0.00215   0.02724   0.99963
 This molecule is an asymmetric top.
 Rotational symmetry number  1.
 Warning -- assumption of classical behavior for rotation
           may cause significant error
 Rotational temperatures (Kelvin)      0.11285     0.03555     0.03157
 Rotational constants (GHZ):           2.35141     0.74074     0.65776
 Zero-point vibrational energy     545759.0 (Joules/Mol)
                                  130.43953 (Kcal/Mol)
 Warning -- explicit consideration of  15 degrees of freedom as
           vibrations may cause significant error
 Vibrational temperatures:     40.95   124.84   169.99   267.37   336.61
          (Kelvin)            384.65   406.96   420.32   447.76   494.86
                              514.65   586.85   619.40   703.44   802.71
                              911.29   937.93  1080.79  1142.78  1179.28
                             1198.96  1249.11  1309.39  1383.19  1437.17
                             1438.23  1456.17  1462.24  1479.03  1555.87
                             1584.41  1607.49  1619.00  1710.29  1786.32
                             1807.53  1829.28  1892.56  1920.57  1951.38
                             2028.35  2046.85  2066.07  2120.07  2131.20
                             2170.03  2189.90  2203.51  2212.40  2222.28
                             2324.84  2357.61  2412.23  4382.34  4391.00
                             4410.38  4469.22  4480.31  4488.50  4495.45
                             4505.57  4564.67  4568.58  4642.93  5007.68
                             5135.86

 Zero-point correction=                           0.207869 (Hartree/Particle)
 Thermal correction to Energy=                    0.218767
 Thermal correction to Enthalpy=                  0.219711
 Thermal correction to Gibbs Free Energy=         0.171147
 Sum of electronic and zero-point Energies=           -476.763796
 Sum of electronic and thermal Energies=              -476.752898
 Sum of electronic and thermal Enthalpies=            -476.751954
 Sum of electronic and thermal Free Energies=         -476.800518

                     E (Thermal)             CV                S
                      KCal/Mol        Cal/Mol-Kelvin    Cal/Mol-Kelvin
 Total                  137.278             41.596            102.212
 Electronic               0.000              0.000              0.000
 Translational            0.889              2.981             40.949
 Rotational               0.889              2.981             30.018
 Vibrational            135.501             35.634             31.245
 Vibration     1          0.593              1.984              5.934
 Vibration     2          0.601              1.958              3.732
 Vibration     3          0.608              1.934              3.130
 Vibration     4          0.632              1.859              2.269
 Vibration     5          0.654              1.789              1.848
 Vibration     6          0.672              1.733              1.613
 Vibration     7          0.682              1.705              1.516
 Vibration     8          0.688              1.688              1.462
 Vibration     9          0.700              1.652              1.356
 Vibration    10          0.723              1.588              1.194
 Vibration    11          0.733              1.559              1.132
 Vibration    12          0.772              1.453              0.934
 Vibration    13          0.792              1.404              0.857
 Vibration    14          0.845              1.275              0.686
 Vibration    15          0.913              1.122              0.528

 Optimization completed.
    -- Stationary point found.

 1\1\GINC-NODE202\Freq\RB3LYP\6-31G(d)\C8H13N3\VSC10255\08-Dec-2020\0\\
 #N Geom=AllCheck Guess=TCheck SCRF=Check GenChk RB3LYP/6-31G(d) Freq\\
 CID_63321189_JID_1935_neutraal\\0,1\C,1.0317643126,-0.0409849871,0.010
 9989056\C,0.5926446135,0.2595461456,-1.4236015762\C,0.7684230663,-0.92
 87527746,-2.3988673116\C,-0.2105170877,-2.0804346668,-2.0544729089\C,0
 .4187929711,-0.4878833255,-3.8193931362\N,1.1365453764,-1.0133457207,-
 4.8233402832\C,0.7932049714,-0.6604840076,-6.0659361427\C,-0.262651099
 7,0.2066509093,-6.3283182572\C,-0.9550805914,0.6799822391,-5.215783427

 Normal termination of Gaussian 16 at Tue Dec  8 21:39:43 2020.

 ----------------------------------------------------------------------
 # B3LYP/6-311++G(d,p) empiricaldispersion=gd3bj scf=xqc pop=npa geom=c
 heck
 ----------------------------------------------------------------------

 --------------------------------------
 CID_63321189_JID_1935_Energie_neutraal
 --------------------------------------
 Structure from the checkpoint file:  "JID_1935.chk"
 Charge =  0 Multiplicity = 1

 SCF Done:  E(RB3LYP) =  -477.107322759     A.U. after   14 cycles
 Normal termination of Gaussian 16 at Tue Dec  8 21:44:03 2020.

 ----------------------------------------------------------------------
 # B3LYP/6-311++G(d,p) empiricaldispersion=gd3bj scf=xqc pop=npa geom=c
 heck
 ----------------------------------------------------------------------

 ------------------------------------
 CID_63321189_JID_1935_Energie_kation
 ------------------------------------
 Structure from the checkpoint file:  "JID_1935.chk"
 Charge =  1 Multiplicity = 2

 SCF Done:  E(UB3LYP) =  -476.791212564     A.U. after   23 cycles
 Normal termination of Gaussian 16 at Tue Dec  8 21:49:08 2020.
 Gaussian 16:  ES64L-G16RevA.03 25-Dec-2016

 -----------------------------------
 CID_63321189_JID_1935_Energie_anion
 -----------------------------------
 Structure from the checkpoint file:  "JID_1935.chk"
 Charge = -1 Multiplicity = 2

                         Standard orientation:
 ---------------------------------------------------------------------
 Center     Atomic      Atomic             Coordinates (Angstroms)
 Number     Number       Type             X           Y           Z
 ---------------------------------------------------------------------
      1          6           0        3.315132    0.725882   -0.529259
      2          6           0        1.795293    0.901412   -0.506851
      3          6           0        1.033193   -0.282616    0.134537
      4          6           0        1.315863   -0.366956    1.656473
      5          6           0       -0.472654   -0.064038   -0.003841
      6          7           0       -1.237081   -1.146197   -0.213058
      7          6           0       -2.557727   -0.953231   -0.284438
      8          6           0       -3.134536    0.305008   -0.143986
      9          6           0       -2.252957    1.358331    0.089606
     10          7           0       -0.931011    1.186086    0.163613
     11          7           0        1.391317   -1.518091   -0.576923
     12          1           0        3.740313    0.650755    0.478368
     13          1           0        3.788602    1.584719   -1.017403
     14          1           0        3.597763   -0.170512   -1.091015
     15          1           0        1.525104    1.822121    0.018105
     16          1           0        1.434634    1.002745   -1.536841
     17          1           0        1.033795    0.560230    2.167058
     18          1           0        0.750006   -1.193963    2.099795
     19          1           0        2.380903   -0.548722    1.837371
     20          1           0       -3.167160   -1.838651   -0.457776
     21          1           0       -4.206637    0.455965   -0.206586
     22          1           0       -2.615360    2.376375    0.224057
     23          1           0        2.260192   -1.884338   -0.194810
     24          1           0        0.665626   -2.212066   -0.409193
 ---------------------------------------------------------------------

 SCF Done:  E(UB3LYP) =  -477.098107371     A.U. after   33 cycles
 SCF Done:  E(UB3LYP) =  -477.098110551     a.u. after    4 cycles

 The electronic state is 2-A.
 Alpha  occ. eigenvalues --  -14.16302 -14.15801 -14.15783 -10.09848 -10.08493
 Alpha  occ. eigenvalues --  -10.06184 -10.05940 -10.04382 -10.04218 -10.04134
 Alpha  occ. eigenvalues --  -10.03901  -0.84060  -0.76745  -0.73831  -0.65719
 Alpha  occ. eigenvalues --   -0.64035  -0.59884  -0.53794  -0.51292  -0.49439
 Alpha  occ. eigenvalues --   -0.43323  -0.39232  -0.37239  -0.34998  -0.33972
 Alpha  occ. eigenvalues --   -0.32119  -0.30996  -0.29743  -0.28564  -0.27201
 Alpha  occ. eigenvalues --   -0.26922  -0.26618  -0.25716  -0.22230  -0.21297
 Alpha  occ. eigenvalues --   -0.21155  -0.17647  -0.16013  -0.14027  -0.11915
 Alpha  occ. eigenvalues --   -0.10487   0.05503
 Alpha virt. eigenvalues --    0.07263   0.08003   0.09104   0.09632   0.10241
 Alpha virt. eigenvalues --    0.10547   0.11181   0.11715   0.12754   0.13036
 Alpha virt. eigenvalues --    0.13087   0.14208   0.15287   0.16259   0.16917

  Beta  occ. eigenvalues --  -14.16291 -14.15554 -14.15511 -10.09902 -10.08493
  Beta  occ. eigenvalues --  -10.05899 -10.05621 -10.04360 -10.04308 -10.04117
  Beta  occ. eigenvalues --  -10.03901  -0.83658  -0.76689  -0.73221  -0.65587
  Beta  occ. eigenvalues --   -0.63851  -0.59830  -0.53746  -0.50721  -0.49221
  Beta  occ. eigenvalues --   -0.43209  -0.39136  -0.37008  -0.34893  -0.33925
  Beta  occ. eigenvalues --   -0.31991  -0.30880  -0.29563  -0.28370  -0.26983
  Beta  occ. eigenvalues --   -0.26844  -0.26252  -0.25269  -0.22209  -0.21250
  Beta  occ. eigenvalues --   -0.21110  -0.15767  -0.15630  -0.13310  -0.11822
  Beta  occ. eigenvalues --   -0.10190
  Beta virt. eigenvalues --    0.07651   0.08330   0.09348   0.09870   0.10475
  Beta virt. eigenvalues --    0.10736   0.11095   0.11398   0.11934   0.12780
  Beta virt. eigenvalues --    0.12968   0.13273   0.14381   0.15222   0.16206

 Mulliken charges and spin densities:
               1          2
     1  C    0.615797  -1.203304
     2  C   -1.278369   0.895105
     3  C    1.358017  -0.992145
     4  C    0.287252  -0.835863
     5  C   -1.501109   0.589270
     6  N   -0.073564   0.135814
     7  C   -0.312761   0.530293
     8  C    0.573397  -0.848704
     9  C   -0.108118   0.356932
    10  N   -0.043280   0.140197
    11  N   -0.272709  -0.005007
    12  H   -0.166135   0.290957
    13  H   -0.058390   0.187873
    14  H   -0.053430   0.187854
    15  H    0.130349   0.015280
    16  H    0.154104   0.017401
    17  H    0.033912   0.112543
    18  H    0.160678  -0.015997
    19  H   -0.151225   0.288496
    20  H   -0.119566   0.255639
    21  H   -0.386522   0.527175
    22  H   -0.129053   0.258310
    23  H    0.127661   0.078394
    24  H    0.213064   0.033487
 Sum of Mulliken charges =  -1.00000   1.00000

 Dipole moment (field-independent basis, Debye):
    X=              1.4180    Y=             -0.3860    Z=              0.4642  Tot=              1.5412
 Quadrupole moment (field-independent basis, Debye-Ang):
   XX=           -123.0011   YY=            -90.6527   ZZ=            -87.0313
   XY=              0.3267   XZ=             -0.6526   YZ=             -0.0999

 Summary of Natural Population Analysis:

                                       Natural Population
                Natural  -----------------------------------------------
    Atom  No    Charge         Core      Valence    Rydberg      Total
 -----------------------------------------------------------------------
      C    1   -0.29046      0.99967     2.28557    0.00523     3.29046
      C    2   -0.18948      0.99960     2.17883    0.01106     3.18948
      C    3    0.03660      0.99953     1.94987    0.01400     2.96340
      C    4   -0.29097      0.99963     2.28437    0.00697     3.29097
      C    5    0.21718      0.99955     1.76399    0.01929     2.78282
      N    6   -0.23764      0.99966     2.72674    0.01125     3.73764
      C    7    0.08858      0.99959     1.89631    0.01552     2.91142
      C    8   -0.16960      0.99955     2.16160    0.00844     3.16960
      C    9    0.09326      0.99959     1.89171    0.01544     2.90674
      N   10   -0.23614      0.99967     2.72597    0.01049     3.73614
      N   11   -0.43053      0.99975     2.92002    0.01075     3.93053
      H   12    0.09382      0.00000     0.40502    0.00116     0.40618
      H   13    0.09570      0.00000     0.40353    0.00077     0.40430
      H   14    0.09777      0.00000     0.40111    0.00112     0.40223
      H   15    0.10569      0.00000     0.39276    0.00155     0.39431
      H   16    0.10018      0.00000     0.39864    0.00118     0.39982
      H   17    0.10405      0.00000     0.39503    0.00092     0.39595
      H   18    0.10040      0.00000     0.39852    0.00108     0.39960
      H   19    0.09394      0.00000     0.40485    0.00121     0.40606
      H   20    0.08057      0.00000     0.41842    0.00101     0.41943
      H   21    0.10000      0.00000     0.39883    0.00117     0.40000
      H   22    0.07967      0.00000     0.41932    0.00101     0.42033
      H   23    0.16778      0.00000     0.33068    0.00154     0.33222
      H   24    0.18964      0.00000     0.30805    0.00231     0.31036
 =======================================================================
   * Total *   -0.00000     10.99578    29.85974    0.14448    41.00000

 Normal termination of Gaussian 16 at Tue Dec  8 22:11:24 2020.
