 Gaussian 16, Revision A.03,

 -----------------------------------------------------------
 # opt freq B3LYP/6-31G(d) empiricaldispersion=gd3bj scf=xqc
 -----------------------------------------------------------

 -------------------------------
 CID_104766138_JID_6000_neutraal
 -------------------------------
 Symbolic Z-matrix:
 Charge =  0 Multiplicity = 1

 SCF Done:  E(RB3LYP) =  -731.737840325     A.U. after   14 cycles
 SCF Done:  E(RB3LYP) =  -731.744049351     A.U. after   12 cycles
 SCF Done:  E(RB3LYP) =  -731.742489703     A.U. after   12 cycles
 SCF Done:  E(RB3LYP) =  -731.744647421     A.U. after   12 cycles
 SCF Done:  E(RB3LYP) =  -731.745131370     A.U. after   12 cycles
 SCF Done:  E(RB3LYP) =  -731.745603365     A.U. after   11 cycles
 SCF Done:  E(RB3LYP) =  -731.745760182     A.U. after   11 cycles
 SCF Done:  E(RB3LYP) =  -731.745908636     A.U. after   11 cycles
 SCF Done:  E(RB3LYP) =  -731.746007445     A.U. after   10 cycles
 SCF Done:  E(RB3LYP) =  -731.746111253     A.U. after   11 cycles
 SCF Done:  E(RB3LYP) =  -731.759236593     A.U. after    9 cycles
 SCF Done:  E(RB3LYP) =  -731.759238562     A.U. after    9 cycles
 SCF Done:  E(RB3LYP) =  -731.759239386     A.U. after    9 cycles
 SCF Done:  E(RB3LYP) =  -731.759239648     A.U. after    8 cycles
 SCF Done:  E(RB3LYP) =  -731.759239713     A.U. after    7 cycles
 Optimization completed.
    -- Stationary point found.
 Normal termination of Gaussian 16 at Thu Dec 10 21:38:37 2020.

 --------------------------------------------------------------------
 #N Geom=AllCheck Guess=TCheck SCRF=Check GenChk RB3LYP/6-31G(d) Freq
 --------------------------------------------------------------------

 Structure from the checkpoint file:  "JID_6000.chk"
 -------------------------------
 CID_104766138_JID_6000_neutraal
 -------------------------------
 Charge =  0 Multiplicity = 1

 SCF Done:  E(RB3LYP) =  -731.759239713     A.U. after    1 cycles

  Exact polarizability: 163.885  -7.396 136.425  -1.737   1.787 131.900
 Approx polarizability: 197.849 -10.959 190.181  -6.218   8.707 205.205

                      1                      2                      3
                      A                      A                      A
 Frequencies --     23.0718                25.5345                56.1850
 Red. masses --      3.3782                 2.7868                 2.6911
 Frc consts  --      0.0011                 0.0011                 0.0050
 IR Inten    --      0.1014                 0.1429                 0.4597

                      4                      5                      6
                      A                      A                      A
 Frequencies --     58.7170                67.5278                85.9861
 Red. masses --      3.5798                 6.2343                 3.5348
 Frc consts  --      0.0073                 0.0167                 0.0154
 IR Inten    --      0.8785                 6.7082                 3.3039

                      7                      8                      9
                      A                      A                      A
 Frequencies --    111.6270               147.7021               170.2790
 Red. masses --      3.7401                 3.3602                 2.9037
 Frc consts  --      0.0275                 0.0432                 0.0496
 IR Inten    --      0.0112                 1.9326                 6.3100

                     10                     11                     12
                      A                      A                      A
 Frequencies --    195.6313               227.7495               231.9925
 Red. masses --      2.3367                 1.1001                 1.0478
 Frc consts  --      0.0527                 0.0336                 0.0332
 IR Inten    --      0.5310                 0.2181                 0.1539

                     13                     14                     15
                      A                      A                      A
 Frequencies --    237.5445               248.8651               279.7789
 Red. masses --      1.8964                 1.5906                 1.3366
 Frc consts  --      0.0630                 0.0580                 0.0616
 IR Inten    --      1.6720                 1.3255                 2.3620

                     16                     17                     18
                      A                      A                      A
 Frequencies --    296.9191               297.6681               322.1077
 Red. masses --      1.9686                 1.9953                 4.1656
 Frc consts  --      0.1023                 0.1042                 0.2546
 IR Inten    --      0.9526                 1.3694                 4.2151

                     19                     20                     21
                      A                      A                      A
 Frequencies --    336.0067               365.2512               409.9362
 Red. masses --      2.4378                 2.3620                 2.6317
 Frc consts  --      0.1622                 0.1857                 0.2606
 IR Inten    --      3.9052                 0.3458                 2.1847

                     22                     23                     24
                      A                      A                      A
 Frequencies --    425.0845               438.9529               462.2083
 Red. masses --      2.7866                 2.8170                 2.3488
 Frc consts  --      0.2967                 0.3198                 0.2956
 IR Inten    --      3.5492                 9.3741                 2.9913

                     25                     26                     27
                      A                      A                      A
 Frequencies --    488.1335               494.6103               541.4599
 Red. masses --      2.4209                 3.0250                 2.9774
 Frc consts  --      0.3399                 0.4360                 0.5143
 IR Inten    --      0.9919                 3.5803                 8.5233

                     28                     29                     30
                      A                      A                      A
 Frequencies --    603.6010               622.3573               724.5634
 Red. masses --      3.2091                 2.8203                 3.6784
 Frc consts  --      0.6889                 0.6436                 1.1378
 IR Inten    --     12.2757                 2.4724                44.4912

                     31                     32                     33
                      A                      A                      A
 Frequencies --    763.0268               809.8013               818.8659
 Red. masses --      2.2987                 2.8477                 2.3858
 Frc consts  --      0.7885                 1.1003                 0.9425
 IR Inten    --     29.5355                 7.5264                 0.7467

                     34                     35                     36
                      A                      A                      A
 Frequencies --    869.5306               880.1658               913.0817
 Red. masses --      1.8677                 2.3140                 1.6249
 Frc consts  --      0.8320                 1.0562                 0.7982
 IR Inten    --     14.8521                 4.9630                 0.8916

                     37                     38                     39
                      A                      A                      A
 Frequencies --    928.9858               940.6530               945.8336
 Red. masses --      2.2272                 1.2923                 1.2177
 Frc consts  --      1.1325                 0.6737                 0.6418
 IR Inten    --      8.9261                 2.8282                 0.7759

                     40                     41                     42
                      A                      A                      A
 Frequencies --    953.4533               956.5523               963.0642
 Red. masses --      1.5704                 1.6074                 1.7005
 Frc consts  --      0.8411                 0.8665                 0.9293
 IR Inten    --      6.5314                 0.0603                 2.0030

                     43                     44                     45
                      A                      A                      A
 Frequencies --    975.1066               992.5018              1010.7521
 Red. masses --      2.0982                 1.8618                 2.3226
 Frc consts  --      1.1754                 1.0806                 1.3981
 IR Inten    --     19.9378                 5.4382                23.3378

                     46                     47                     48
                      A                      A                      A
 Frequencies --   1043.1468              1110.6523              1126.9305
 Red. masses --      2.6805                 2.2064                 2.8631
 Frc consts  --      1.7185                 1.6035                 2.1423
 IR Inten    --      9.2347                19.5679                57.2083

                     49                     50                     51
                      A                      A                      A
 Frequencies --   1139.8370              1156.2663              1161.7055
 Red. masses --      2.7559                 2.0668                 2.0581
 Frc consts  --      2.1096                 1.6281                 1.6365
 IR Inten    --     27.0688                19.1197                33.1089

                     52                     53                     54
                      A                      A                      A
 Frequencies --   1165.3647              1182.7855              1200.5235
 Red. masses --      2.4273                 2.1535                 1.4741
 Frc consts  --      1.9422                 1.7750                 1.2518
 IR Inten    --     24.3146                52.8132                 5.7836

                     55                     56                     57
                      A                      A                      A
 Frequencies --   1206.2164              1214.3764              1226.5054
 Red. masses --      2.0277                 1.9743                 1.8118
 Frc consts  --      1.7382                 1.7154                 1.6059
 IR Inten    --     71.8606                20.8395                 0.6353

                     58                     59                     60
                      A                      A                      A
 Frequencies --   1244.7170              1249.4157              1289.8690
 Red. masses --      1.2890                 1.9571                 1.3226
 Frc consts  --      1.1767                 1.8000                 1.2965
 IR Inten    --      4.8719                 6.1022                10.1555

                     61                     62                     63
                      A                      A                      A
 Frequencies --   1312.7721              1324.7995              1331.9549
 Red. masses --      1.3698                 1.4202                 1.3495
 Frc consts  --      1.3908                 1.4686                 1.4106
 IR Inten    --     34.2995                47.0160                 2.8798

                     64                     65                     66
                      A                      A                      A
 Frequencies --   1363.8732              1383.4102              1385.1930
 Red. masses --      1.7199                 1.2646                 1.3747
 Frc consts  --      1.8850                 1.4259                 1.5541
 IR Inten    --     14.0764                40.7536                 6.9269

                     67                     68                     69
                      A                      A                      A
 Frequencies --   1386.5111              1388.4822              1397.5497
 Red. masses --      1.3173                 1.3472                 1.5144
 Frc consts  --      1.4920                 1.5302                 1.7427
 IR Inten    --     13.8706                13.0708                18.2706

                     70                     71                     72
                      A                      A                      A
 Frequencies --   1411.2214              1428.6072              1429.2699
 Red. masses --      1.4426                 1.3178                 1.3201
 Frc consts  --      1.6927                 1.5846                 1.5889
 IR Inten    --     39.8371                14.6783                13.4425

                     73                     74                     75
                      A                      A                      A
 Frequencies --   1442.1604              1442.6664              1450.2419
 Red. masses --      1.2653                 1.2550                 1.3604
 Frc consts  --      1.5504                 1.5390                 1.6858
 IR Inten    --     17.5771                 1.6524                 4.3090

                     76                     77                     78
                      A                      A                      A
 Frequencies --   1469.9683              1503.7734              1510.0813
 Red. masses --      1.9603                 1.1878                 1.1476
 Frc consts  --      2.4956                 1.5826                 1.5418
 IR Inten    --     54.7851                12.8695                17.8824

                     79                     80                     81
                      A                      A                      A
 Frequencies --   1512.1308              1514.5028              1517.9145
 Red. masses --      1.0501                 1.0561                 1.0493
 Frc consts  --      1.4147                 1.4272                 1.4245
 IR Inten    --      1.4307                 0.9382                 1.1398

                     82                     83                     84
                      A                      A                      A
 Frequencies --   1520.7773              1524.3264              1527.2779
 Red. masses --      1.0677                 1.1312                 1.0593
 Frc consts  --      1.4549                 1.5487                 1.4558
 IR Inten    --      4.3399                 6.8441                 2.3030

                     85                     86                     87
                      A                      A                      A
 Frequencies --   1537.4084              1540.3373              1541.8903
 Red. masses --      1.0693                 1.0979                 1.0630
 Frc consts  --      1.4891                 1.5347                 1.4889
 IR Inten    --      3.2329                10.6225                13.3535

                     88                     89                     90
                      A                      A                      A
 Frequencies --   1553.3915              1563.3650              1781.3253
 Red. masses --      1.0831                 1.1011                10.6747
 Frc consts  --      1.5398                 1.5856                19.9570
 IR Inten    --     12.2206                 3.5772               255.8062

                     91                     92                     93
                      A                      A                      A
 Frequencies --   2927.5344              2993.4181              3004.0418
 Red. masses --      1.0787                 1.0823                 1.0717
 Frc consts  --      5.4467                 5.7137                 5.6982
 IR Inten    --     52.8181                20.8459               102.0890

                     94                     95                     96
                      A                      A                      A
 Frequencies --   3031.5402              3036.5974              3048.4501
 Red. masses --      1.0402                 1.0427                 1.0363
 Frc consts  --      5.6322                 5.6647                 5.6741
 IR Inten    --     18.9725                42.0601                15.7204

                     97                     98                     99
                      A                      A                      A
 Frequencies --   3051.9427              3056.4953              3071.7955
 Red. masses --      1.0578                 1.0357                 1.0655
 Frc consts  --      5.8048                 5.7008                 5.9235
 IR Inten    --     33.1314                18.6799                16.5378

                    100                    101                    102
                      A                      A                      A
 Frequencies --   3075.0838              3090.1920              3094.4142
 Red. masses --      1.0597                 1.1020                 1.0924
 Frc consts  --      5.9039                 6.2001                 6.1630
 IR Inten    --     30.6181                38.1907                31.1545

                    103                    104                    105
                      A                      A                      A
 Frequencies --   3097.2968              3097.6846              3113.9098
 Red. masses --      1.0937                 1.0937                 1.1014
 Frc consts  --      6.1818                 6.1833                 6.2922
 IR Inten    --     15.8165                10.4522                44.2515

                    106                    107                    108
                      A                      A                      A
 Frequencies --   3114.5195              3125.7439              3126.0083
 Red. masses --      1.1021                 1.1011                 1.0934
 Frc consts  --      6.2987                 6.3385                 6.2953
 IR Inten    --     16.3748                31.3003                41.8894

                    109                    110                    111
                      A                      A                      A
 Frequencies --   3126.2735              3127.3306              3132.5482
 Red. masses --      1.1044                 1.1056                 1.1013
 Frc consts  --      6.3598                 6.3711                 6.3675
 IR Inten    --     27.9353                22.7669                20.6317

                    112                    113                    114
                      A                      A                      A
 Frequencies --   3136.4120              3136.9938              3452.8413
 Red. masses --      1.1031                 1.1016                 1.0734
 Frc consts  --      6.3933                 6.3872                 7.5400
 IR Inten    --     24.8282                26.2875                 1.9705

 - Thermochemistry -
 -------------------
 Temperature   298.150 Kelvin.  Pressure   1.00000 Atm.
 Atom     1 has atomic number  6 and mass  12.00000

 Molecular mass:   228.18378 amu.
 Principal axes and moments of inertia in atomic units:
                           1         2         3
     Eigenvalues --  2144.163026222.102296825.49519
           X            1.00000  -0.00151  -0.00142
           Y            0.00152   1.00000   0.00074
           Z            0.00142  -0.00074   1.00000
 This molecule is an asymmetric top.
 Rotational symmetry number  1.
 Warning -- assumption of classical behavior for rotation
           may cause significant error
 Rotational temperatures (Kelvin)      0.04040     0.01392     0.01269
 Rotational constants (GHZ):           0.84170     0.29005     0.26441
 Zero-point vibrational energy     949254.7 (Joules/Mol)
                                  226.87732 (Kcal/Mol)
 Warning -- explicit consideration of  28 degrees of freedom as
           vibrations may cause significant error
 Vibrational temperatures:     33.20    36.74    80.84    84.48    97.16
          (Kelvin)            123.71   160.61   212.51   244.99   281.47
                              327.68   333.79   341.77   358.06   402.54
                              427.20   428.28   463.44   483.44   525.51
                              589.81   611.60   631.56   665.01   702.32
                              711.63   779.04   868.45   895.43  1042.49
                             1097.83  1165.12  1178.17  1251.06  1266.36
                             1313.72  1336.60  1353.39  1360.84  1371.81
                             1376.27  1385.63  1402.96  1427.99  1454.25
                             1500.86  1597.98  1621.40  1639.97  1663.61
                             1671.44  1676.70  1701.76  1727.29  1735.48
                             1747.22  1764.67  1790.87  1797.63  1855.83
                             1888.79  1906.09  1916.39  1962.31  1990.42
                             1992.98  1994.88  1997.72  2010.76  2030.43
                             2055.45  2056.40  2074.95  2075.68  2086.57
                             2114.96  2163.59  2172.67  2175.62  2179.03
                             2183.94  2188.06  2193.17  2197.41  2211.99
                             2216.20  2218.44  2234.98  2249.33  2562.93
                             4212.07  4306.86  4322.15  4361.71  4368.99
                             4386.04  4391.06  4397.62  4419.63  4424.36
                             4446.10  4452.17  4456.32  4456.88  4480.22
                             4481.10  4497.25  4497.63  4498.01  4499.53
                             4507.04  4512.60  4513.43  4967.87

 Zero-point correction=                           0.361552 (Hartree/Particle)
 Thermal correction to Energy=                    0.379762
 Thermal correction to Enthalpy=                  0.380706
 Thermal correction to Gibbs Free Energy=         0.314120
 Sum of electronic and zero-point Energies=           -731.397688
 Sum of electronic and thermal Energies=              -731.379478
 Sum of electronic and thermal Enthalpies=            -731.378534
 Sum of electronic and thermal Free Energies=         -731.445119

                     E (Thermal)             CV                S
                      KCal/Mol        Cal/Mol-Kelvin    Cal/Mol-Kelvin
 Total                  238.304             67.701            140.141
 Electronic               0.000              0.000              0.000
 Translational            0.889              2.981             42.177
 Rotational               0.889              2.981             32.876
 Vibrational            236.527             61.739             65.088
 Vibration     1          0.593              1.985              6.351
 Vibration     2          0.593              1.985              6.149
 Vibration     3          0.596              1.975              4.587
 Vibration     4          0.596              1.974              4.500
 Vibration     5          0.598              1.970              4.224
 Vibration     6          0.601              1.959              3.749
 Vibration     7          0.607              1.940              3.240
 Vibration     8          0.617              1.905              2.702
 Vibration     9          0.625              1.879              2.432
 Vibration    10          0.636              1.846              2.174
 Vibration    11          0.651              1.799              1.897
 Vibration    12          0.653              1.792              1.863
 Vibration    13          0.656              1.783              1.821
 Vibration    14          0.662              1.765              1.739
 Vibration    15          0.680              1.711              1.535
 Vibration    16          0.691              1.679              1.434
 Vibration    17          0.691              1.678              1.430
 Vibration    18          0.707              1.631              1.299
 Vibration    19          0.717              1.604              1.231
 Vibration    20          0.738              1.544              1.100
 Vibration    21          0.774              1.449              0.927
 Vibration    22          0.787              1.416              0.875
 Vibration    23          0.799              1.385              0.830
 Vibration    24          0.820              1.334              0.760
 Vibration    25          0.844              1.276              0.688
 Vibration    26          0.850              1.262              0.672
 Vibration    27          0.897              1.158              0.562
 Vibration    28          0.962              1.024              0.444

                           ! Non-Optimized Parameters !
 Normal termination of Gaussian 16 at Thu Dec 10 21:52:45 2020.

 ----------------------------------------------------------------------
 # B3LYP/6-311++G(d,p) empiricaldispersion=gd3bj scf=xqc pop=npa geom=c
 heck
 ----------------------------------------------------------------------

 ---------------------------------------
 CID_104766138_JID_6000_Energie_neutraal
 ---------------------------------------
 Structure from the checkpoint file:  "JID_6000.chk"
 Charge =  0 Multiplicity = 1

 SCF Done:  E(RB3LYP) =  -731.970863989     A.U. after   15 cycles
 Normal termination of Gaussian 16 at Thu Dec 10 21:59:14 2020.

 ----------------------------------------------------------------------
 # B3LYP/6-311++G(d,p) empiricaldispersion=gd3bj scf=xqc pop=npa geom=c
 heck
 ----------------------------------------------------------------------

 -------------------------------------
 CID_104766138_JID_6000_Energie_kation
 -------------------------------------
 Structure from the checkpoint file:  "JID_6000.chk"
 Charge =  1 Multiplicity = 2

 SCF Done:  E(UB3LYP) =  -731.678453251     A.U. after   29 cycles
 Normal termination of Gaussian 16 at Thu Dec 10 22:15:54 2020.
 Gaussian 16:  ES64L-G16RevA.03 25-Dec-2016

 ----------------------------------------------------------------------
 # B3LYP/6-311++G(d,p) empiricaldispersion=gd3bj scf=xqc pop=npa geom=c
 heck
 ----------------------------------------------------------------------

 ------------------------------------
 CID_104766138_JID_6000_Energie_anion
 ------------------------------------
 Structure from the checkpoint file:  "JID_6000.chk"
 Charge = -1 Multiplicity = 2

                         Standard orientation:
 ---------------------------------------------------------------------
 Center     Atomic      Atomic             Coordinates (Angstroms)
 Number     Number       Type             X           Y           Z
 ---------------------------------------------------------------------
      1          6           0        4.765649   -0.258608   -0.640196
      2          6           0        3.312456   -0.649268   -0.370811
      3          6           0        3.212631   -2.094330    0.142329
      4          7           0        2.735599    0.350978    0.548003
      5          6           0        1.296263    0.283388    0.749780
      6          6           0        0.817775    1.229557    1.859171
      7          6           0       -0.602216    1.626073    1.423271
      8          7           0       -0.520620    1.546505   -0.031459
      9          6           0        0.496831    0.753783   -0.475812
     10          8           0        0.677431    0.438252   -1.648197
     11          6           0       -1.613507    1.938829   -0.904967
     12          6           0       -2.480406    0.749849   -1.307902
     13          8           0       -2.986653    0.134662   -0.133395
     14          6           0       -3.142250   -1.285706   -0.221244
     15          6           0       -1.796245   -1.993019   -0.047970
     16          6           0       -4.143031   -1.676647    0.858010
     17          1           0        5.359972   -0.304030    0.283116
     18          1           0        4.819605    0.762582   -1.028301
     19          1           0        5.227559   -0.938316   -1.364777
     20          1           0        2.743917   -0.563640   -1.300216
     21          1           0        3.767508   -2.212538    1.083287
     22          1           0        2.173968   -2.393721    0.320444
     23          1           0        3.635570   -2.797178   -0.584706
     24          1           0        3.190563    0.256141    1.456961
     25          1           0        0.926378   -0.738587    0.963282
     26          1           0        0.838797    0.777667    2.854858
     27          1           0        1.469757    2.109788    1.858367
     28          1           0       -1.366937    0.935611    1.799352
     29          1           0       -0.874148    2.639563    1.738247
     30          1           0       -2.212115    2.687893   -0.378204
     31          1           0       -1.197623    2.398223   -1.807881
     32          1           0       -3.307989    1.091251   -1.950246
     33          1           0       -1.864446    0.055137   -1.887995
     34          1           0       -3.561091   -1.537777   -1.208736
     35          1           0       -1.393568   -1.785055    0.950344
     36          1           0       -1.912708   -3.077751   -0.152191
     37          1           0       -1.062899   -1.659105   -0.788588
     38          1           0       -5.094780   -1.159335    0.704199
     39          1           0       -4.322582   -2.756957    0.848760
     40          1           0       -3.757490   -1.398967    1.845612
 ---------------------------------------------------------------------

 SCF Done:  E(UB3LYP) =  -731.957313526     A.U. after   33 cycles
 SCF Done:  E(UB3LYP) =  -731.957313526     a.u. after    1 cycles

 The electronic state is 2-A.
 Alpha  occ. eigenvalues --  -19.02908 -18.99224 -14.24611 -14.20295 -10.16787
 Alpha  occ. eigenvalues --  -10.13061 -10.12462 -10.11673 -10.11113 -10.10993
 Alpha  occ. eigenvalues --  -10.09767 -10.07873 -10.06562 -10.06523 -10.06319
 Alpha  occ. eigenvalues --  -10.06149  -0.94712  -0.93965  -0.85439  -0.81492
 Alpha  occ. eigenvalues --   -0.71609  -0.68960  -0.66306  -0.62939  -0.60564
 Alpha  occ. eigenvalues --   -0.59653  -0.59179  -0.54542  -0.51433  -0.49308
 Alpha  occ. eigenvalues --   -0.48777  -0.43953  -0.42553  -0.40889  -0.40287
 Alpha  occ. eigenvalues --   -0.38080  -0.37320  -0.36413  -0.35970  -0.35227
 Alpha  occ. eigenvalues --   -0.33765  -0.33279  -0.32764  -0.31353  -0.30280
 Alpha  occ. eigenvalues --   -0.29854  -0.29689  -0.29464  -0.29169  -0.28799
 Alpha  occ. eigenvalues --   -0.28356  -0.27959  -0.26246  -0.26084  -0.25878
 Alpha  occ. eigenvalues --   -0.24887  -0.24093  -0.23833  -0.22347  -0.17184
 Alpha  occ. eigenvalues --   -0.16302  -0.14964  -0.13033   0.04231
 Alpha virt. eigenvalues --    0.06110   0.06516   0.06989   0.08068   0.08138
 Alpha virt. eigenvalues --    0.08641   0.09242   0.09329   0.10208   0.10668
 Alpha virt. eigenvalues --    0.10836   0.10926   0.11290   0.11506   0.12315

  Beta  occ. eigenvalues --  -19.02899 -18.99218 -14.24608 -14.20281 -10.16777
  Beta  occ. eigenvalues --  -10.13052 -10.12452 -10.11665 -10.11096 -10.10987
  Beta  occ. eigenvalues --  -10.09765 -10.07844 -10.06550 -10.06494 -10.06295
  Beta  occ. eigenvalues --  -10.06123  -0.94698  -0.93952  -0.85424  -0.81472
  Beta  occ. eigenvalues --   -0.71584  -0.68935  -0.66282  -0.62903  -0.60524
  Beta  occ. eigenvalues --   -0.59603  -0.59142  -0.54506  -0.51385  -0.49261
  Beta  occ. eigenvalues --   -0.48732  -0.43923  -0.42522  -0.40862  -0.40253
  Beta  occ. eigenvalues --   -0.38047  -0.37297  -0.36376  -0.35944  -0.35200
  Beta  occ. eigenvalues --   -0.33732  -0.33254  -0.32732  -0.31326  -0.30250
  Beta  occ. eigenvalues --   -0.29821  -0.29658  -0.29432  -0.29144  -0.28765
  Beta  occ. eigenvalues --   -0.28321  -0.27923  -0.26217  -0.26060  -0.25843
  Beta  occ. eigenvalues --   -0.24858  -0.24069  -0.23804  -0.22308  -0.17161
  Beta  occ. eigenvalues --   -0.16284  -0.14937  -0.13015
  Beta virt. eigenvalues --    0.06267   0.06727   0.07183   0.07571   0.08358
  Beta virt. eigenvalues --    0.08636   0.08947   0.09558   0.09735   0.10331
  Beta virt. eigenvalues --    0.10864   0.11064   0.11221   0.11635   0.11679

 Mulliken charges and spin densities:
               1          2
     1  C   -0.212552  -0.278291
     2  C   -0.440175   0.324478
     3  C    0.436611  -0.927191
     4  N    0.104721   0.077087
     5  C   -0.239934  -0.189118
     6  C    0.339022  -0.586876
     7  C   -0.037249  -0.341392
     8  N    0.130320   0.162854
     9  C   -0.373408  -0.029880
    10  O   -0.338079   0.012750
    11  C    0.016256  -0.165131
    12  C   -0.107546  -0.090144
    13  O   -0.020332   0.010477
    14  C   -0.527251   0.253907
    15  C    0.092385  -0.484195
    16  C    0.723537  -1.185981
    17  H    0.000050   0.123802
    18  H    0.067440   0.091915
    19  H    0.046339   0.079581
    20  H    0.289405  -0.080086
    21  H   -0.172342   0.313829
    22  H   -0.329894   0.476713
    23  H    0.019674   0.112716
    24  H    0.082386   0.133256
    25  H    0.878925  -0.718728
    26  H   -1.045141   1.244213
    27  H    0.190064  -0.025565
    28  H    0.672066  -0.477680
    29  H   -0.384740   0.559413
    30  H   -0.068221   0.240538
    31  H    0.120992   0.053879
    32  H   -0.285958   0.444286
    33  H    0.218490  -0.023797
    34  H   -0.040827   0.167330
    35  H   -0.095373   0.275832
    36  H   -0.140326   0.289109
    37  H   -0.005925   0.159806
    38  H   -0.126257   0.275035
    39  H   -0.169393   0.309237
    40  H   -0.267761   0.412010
 Sum of Mulliken charges =  -1.00000   1.00000

 Dipole moment (field-independent basis, Debye):
    X=              0.9525    Y=              1.8408    Z=             -3.8630  Tot=              4.3839
 Quadrupole moment (field-independent basis, Debye-Ang):
   XX=           -176.4353   YY=           -145.7264   ZZ=           -148.5469
   XY=             -2.3126   XZ=             -0.3993   YZ=              2.0177

 Summary of Natural Population Analysis:

                                       Natural Population
                Natural  -----------------------------------------------
    Atom  No    Charge         Core      Valence    Rydberg      Total
 -----------------------------------------------------------------------
      C    1   -0.28367      0.99965     2.27911    0.00491     3.28367
      C    2   -0.02411      0.99961     2.01326    0.01124     3.02411
      C    3   -0.29421      0.99965     2.28914    0.00543     3.29421
      N    4   -0.33647      0.99972     2.82497    0.01178     3.83647
      C    5   -0.04822      0.99954     2.03604    0.01263     3.04822
      C    6   -0.19280      0.99962     2.18386    0.00932     3.19280
      C    7   -0.07487      0.99962     2.06536    0.00989     3.07487
      N    8   -0.25122      0.99963     2.74045    0.01115     3.75122
      C    9    0.35446      0.99961     1.62258    0.02335     2.64554
      O   10   -0.33223      0.99988     3.32744    0.00492     4.33223
      C   11   -0.09276      0.99961     2.08119    0.01197     3.09276
      C   12   -0.01581      0.99957     2.00485    0.01139     3.01581
      O   13   -0.31273      0.99987     3.30193    0.01093     4.31273
      C   14    0.06689      0.99958     1.92048    0.01304     2.93311
      C   15   -0.30123      0.99963     2.29513    0.00646     3.30123
      C   16   -0.28774      0.99964     2.28288    0.00522     3.28774
      H   17    0.09347      0.00000     0.40563    0.00090     0.40653
      H   18    0.10319      0.00000     0.39592    0.00089     0.39681
      H   19    0.09610      0.00000     0.40321    0.00070     0.40390
      H   20    0.10800      0.00000     0.38978    0.00222     0.39200
      H   21    0.09527      0.00000     0.40345    0.00128     0.40473
      H   22    0.10112      0.00000     0.39758    0.00130     0.39888
      H   23    0.09807      0.00000     0.40119    0.00074     0.40193
      H   24    0.17149      0.00000     0.32570    0.00281     0.32851
      H   25    0.09400      0.00000     0.40278    0.00323     0.40600
      H   26    0.10689      0.00000     0.39066    0.00244     0.39311
      H   27    0.10165      0.00000     0.39672    0.00163     0.39835
      H   28    0.09951      0.00000     0.39849    0.00200     0.40049
      H   29    0.09473      0.00000     0.40395    0.00132     0.40527
      H   30    0.09959      0.00000     0.39924    0.00117     0.40041
      H   31    0.10533      0.00000     0.39378    0.00089     0.39467
      H   32    0.08108      0.00000     0.41773    0.00119     0.41892
      H   33    0.09276      0.00000     0.40557    0.00167     0.40724
      H   34    0.07515      0.00000     0.42290    0.00195     0.42485
      H   35    0.10035      0.00000     0.39812    0.00153     0.39965
      H   36    0.10120      0.00000     0.39786    0.00094     0.39880
      H   37    0.10461      0.00000     0.39395    0.00144     0.39539
      H   38    0.10172      0.00000     0.39695    0.00134     0.39828
      H   39    0.09975      0.00000     0.39912    0.00113     0.40025
      H   40    0.10168      0.00000     0.39689    0.00143     0.39832
 =======================================================================
   * Total *    0.00000     15.99443    46.80582    0.19975    63.00000

 Normal termination of Gaussian 16 at Thu Dec 10 22:36:33 2020.
