 Gaussian 16, Revision A.03,

 -----------------------------------------------------------
 # opt freq B3LYP/6-31G(d) empiricaldispersion=gd3bj scf=xqc
 -----------------------------------------------------------

 ------------------------------
 CID_64456347_JID_8115_neutraal
 ------------------------------
 Symbolic Z-matrix:
 Charge =  0 Multiplicity = 1

 SCF Done:  E(RB3LYP) =  -1108.61207330     A.U. after   15 cycles
 SCF Done:  E(RB3LYP) =  -1108.61617904     A.U. after   12 cycles
 SCF Done:  E(RB3LYP) =  -1108.61742384     A.U. after   12 cycles
 SCF Done:  E(RB3LYP) =  -1108.61828486     A.U. after   14 cycles
 SCF Done:  E(RB3LYP) =  -1108.61874685     A.U. after   12 cycles
 SCF Done:  E(RB3LYP) =  -1108.61907182     A.U. after   11 cycles
 SCF Done:  E(RB3LYP) =  -1108.61924668     A.U. after   12 cycles
 SCF Done:  E(RB3LYP) =  -1108.61934173     A.U. after   11 cycles
 SCF Done:  E(RB3LYP) =  -1108.61955211     A.U. after   12 cycles
 SCF Done:  E(RB3LYP) =  -1108.61958367     A.U. after   12 cycles
 SCF Done:  E(RB3LYP) =  -1108.62026992     A.U. after    9 cycles
 SCF Done:  E(RB3LYP) =  -1108.62027030     A.U. after    8 cycles
 SCF Done:  E(RB3LYP) =  -1108.62027061     A.U. after    8 cycles
 SCF Done:  E(RB3LYP) =  -1108.62027070     A.U. after    7 cycles
 SCF Done:  E(RB3LYP) =  -1108.62027074     A.U. after    7 cycles
 Optimization completed.
    -- Stationary point found.
 Normal termination of Gaussian 16 at Fri Dec 11 19:03:51 2020.

 --------------------------------------------------------------------
 #N Geom=AllCheck Guess=TCheck SCRF=Check GenChk RB3LYP/6-31G(d) Freq
 --------------------------------------------------------------------

 Structure from the checkpoint file:  "JID_8115.chk"
 ------------------------------
 CID_64456347_JID_8115_neutraal
 ------------------------------
 Charge =  0 Multiplicity = 1

 SCF Done:  E(RB3LYP) =  -1108.62027074     A.U. after    1 cycles

  Exact polarizability: 200.031  -1.106 150.417  -1.111 -13.719 160.107
 Approx polarizability: 306.371  -8.606 213.444  -2.260 -32.881 270.476

                      1                      2                      3
                      A                      A                      A
 Frequencies --     17.3623                27.2412                34.0139
 Red. masses --      4.3848                 4.0226                 3.0739
 Frc consts  --      0.0008                 0.0018                 0.0021
 IR Inten    --      0.0602                 0.0841                 0.0468

                      4                      5                      6
                      A                      A                      A
 Frequencies --     36.8173                51.4198                59.1185
 Red. masses --      5.0012                 4.8391                 4.1993
 Frc consts  --      0.0040                 0.0075                 0.0086
 IR Inten    --      0.0461                 0.0958                 0.5586

                      7                      8                      9
                      A                      A                      A
 Frequencies --    105.9039               118.4797               135.2329
 Red. masses --      4.4034                 4.8887                 2.7601
 Frc consts  --      0.0291                 0.0404                 0.0297
 IR Inten    --      1.6420                 1.0889                 0.0696

                     10                     11                     12
                      A                      A                      A
 Frequencies --    177.6701               210.0640               230.3617
 Red. masses --      3.4059                 2.2456                 1.6399
 Frc consts  --      0.0633                 0.0584                 0.0513
 IR Inten    --      1.0245                 3.5897                 0.7135

                     13                     14                     15
                      A                      A                      A
 Frequencies --    240.1455               255.9036               271.7729
 Red. masses --      2.1910                 1.2282                 2.5710
 Frc consts  --      0.0744                 0.0474                 0.1119
 IR Inten    --      0.3472                 0.4729                 3.1407

                     16                     17                     18
                      A                      A                      A
 Frequencies --    299.7492               335.3428               371.6095
 Red. masses --      2.4617                 2.3262                 2.2594
 Frc consts  --      0.1303                 0.1541                 0.1838
 IR Inten    --      1.0119                 0.7437                 1.2145

                     19                     20                     21
                      A                      A                      A
 Frequencies --    389.7115               435.6417               442.4476
 Red. masses --      2.4204                 3.2720                 2.1551
 Frc consts  --      0.2166                 0.3659                 0.2486
 IR Inten    --      2.0881                 3.0720                 3.1256

                     22                     23                     24
                      A                      A                      A
 Frequencies --    445.5712               512.3661               533.1003
 Red. masses --      2.8666                 4.5834                 3.7847
 Frc consts  --      0.3353                 0.7089                 0.6337
 IR Inten    --      1.1355                 6.6169                 2.6234

                     25                     26                     27
                      A                      A                      A
 Frequencies --    564.4702               603.7626               631.0083
 Red. masses --      3.7038                 3.2947                 4.2914
 Frc consts  --      0.6953                 0.7076                 1.0068
 IR Inten    --      2.6069                 2.7067                 1.2840

                     28                     29                     30
                      A                      A                      A
 Frequencies --    657.9123               665.7632               680.2886
 Red. masses --      4.5073                 4.7489                 3.8088
 Frc consts  --      1.1495                 1.2402                 1.0386
 IR Inten    --      1.0259                 2.6811                 1.9998

                     31                     32                     33
                      A                      A                      A
 Frequencies --    702.3524               741.6975               752.6120
 Red. masses --      1.1916                 2.1282                 5.4766
 Frc consts  --      0.3463                 0.6898                 1.8277
 IR Inten    --     55.0031                44.1857                 6.1935

                     34                     35                     36
                      A                      A                      A
 Frequencies --    782.0197               820.6369               832.4288
 Red. masses --      1.2557                 1.9034                 1.3662
 Frc consts  --      0.4525                 0.7552                 0.5578
 IR Inten    --     33.1181                75.6646                17.8648

                     37                     38                     39
                      A                      A                      A
 Frequencies --    835.3419               862.3560               873.3493
 Red. masses --      2.3540                 3.9550                 1.2966
 Frc consts  --      0.9678                 1.7329                 0.5827
 IR Inten    --      6.2666                12.7884                 2.3690

                     40                     41                     42
                      A                      A                      A
 Frequencies --    902.9270               919.2144               937.4705
 Red. masses --      1.3348                 1.8380                 2.1772
 Frc consts  --      0.6412                 0.9150                 1.1273
 IR Inten    --      0.9893                 3.9923                 2.3902

                     43                     44                     45
                      A                      A                      A
 Frequencies --    941.3653               943.1167               947.5085
 Red. masses --      1.5931                 1.2056                 2.4044
 Frc consts  --      0.8318                 0.6318                 1.2718
 IR Inten    --     17.0587                 1.4357                 8.7384

                     46                     47                     48
                      A                      A                      A
 Frequencies --    958.2189               979.1957               994.6333
 Red. masses --      3.3580                 1.5000                 1.9259
 Frc consts  --      1.8166                 0.8474                 1.1226
 IR Inten    --      6.1106                 0.2857                 2.7836

                     49                     50                     51
                      A                      A                      A
 Frequencies --   1026.7030              1054.5284              1071.5684
 Red. masses --      2.5279                 2.1193                 1.8104
 Frc consts  --      1.5700                 1.3885                 1.2248
 IR Inten    --      4.1936                10.0755                 5.8258

                     52                     53                     54
                      A                      A                      A
 Frequencies --   1076.7641              1101.0781              1120.5015
 Red. masses --      1.5180                 1.7387                 1.2521
 Frc consts  --      1.0369                 1.2420                 0.9263
 IR Inten    --      1.5054                 9.8477                 5.5582

                     55                     56                     57
                      A                      A                      A
 Frequencies --   1153.8145              1162.1491              1182.6784
 Red. masses --      3.5064                 2.0317                 2.0690
 Frc consts  --      2.7504                 1.6168                 1.7051
 IR Inten    --     42.6458                 6.3870                 4.2442

                     58                     59                     60
                      A                      A                      A
 Frequencies --   1195.6497              1207.2716              1226.6945
 Red. masses --      2.3045                 1.7144                 2.1415
 Frc consts  --      1.9411                 1.4722                 1.8986
 IR Inten    --      7.6856                 1.6440                 2.2121

                     61                     62                     63
                      A                      A                      A
 Frequencies --   1241.8575              1250.6820              1274.2164
 Red. masses --      1.5026                 1.5508                 1.3334
 Frc consts  --      1.3653                 1.4292                 1.2756
 IR Inten    --      1.9216                 2.7143                 6.2457

                     64                     65                     66
                      A                      A                      A
 Frequencies --   1291.9245              1326.8286              1339.3156
 Red. masses --      1.3385                 1.3580                 1.9904
 Frc consts  --      1.3162                 1.4086                 2.1036
 IR Inten    --     11.6803                 4.5917                10.9247

                     67                     68                     69
                      A                      A                      A
 Frequencies --   1352.2367              1368.8117              1375.1170
 Red. masses --      1.3693                 2.3772                 1.6383
 Frc consts  --      1.4752                 2.6242                 1.8253
 IR Inten    --      2.3345                24.4982                11.0667

                     70                     71                     72
                      A                      A                      A
 Frequencies --   1390.3999              1396.0308              1409.5075
 Red. masses --      1.3980                 1.4774                 1.8343
 Frc consts  --      1.5923                 1.6965                 2.1471
 IR Inten    --      4.7068                 1.3857                 8.5472

                     73                     74                     75
                      A                      A                      A
 Frequencies --   1415.1034              1420.8613              1431.0311
 Red. masses --      1.5252                 1.4098                 1.3235
 Frc consts  --      1.7995                 1.6770                 1.5969
 IR Inten    --     14.2245                 9.1893                 1.3193

                     76                     77                     78
                      A                      A                      A
 Frequencies --   1448.5847              1452.1853              1499.1610
 Red. masses --      2.2563                 1.5441                 1.1544
 Frc consts  --      2.7896                 1.9185                 1.5286
 IR Inten    --     20.4663                20.3290                 1.5902

                     79                     80                     81
                      A                      A                      A
 Frequencies --   1503.2796              1507.5862              1509.4646
 Red. masses --      1.7258                 1.2643                 1.8877
 Frc consts  --      2.2979                 1.6931                 2.5341
 IR Inten    --      4.1410                 5.7128                 1.0213

                     82                     83                     84
                      A                      A                      A
 Frequencies --   1517.2142              1517.4551              1524.0597
 Red. masses --      1.1501                 1.0575                 2.1483
 Frc consts  --      1.5598                 1.4348                 2.9400
 IR Inten    --     21.6101                 1.2880                 8.4358

                     85                     86                     87
                      A                      A                      A
 Frequencies --   1530.5721              1536.6851              1542.4116
 Red. masses --      1.1669                 1.0844                 1.0883
 Frc consts  --      1.6106                 1.5087                 1.5254
 IR Inten    --     12.8958                10.5167                10.3026

                     88                     89                     90
                      A                      A                      A
 Frequencies --   1550.4606              1583.5046              1609.2593
 Red. masses --      1.0725                 4.9838                 5.5009
 Frc consts  --      1.5191                 7.3629                 8.3933
 IR Inten    --     13.3998                 5.8675                 0.6792

                     91                     92                     93
                      A                      A                      A
 Frequencies --   2961.4507              3034.2315              3036.5770
 Red. masses --      1.0685                 1.0784                 1.0371
 Frc consts  --      5.5213                 5.8498                 5.6341
 IR Inten    --     55.2918                16.2347                31.5364

                     94                     95                     96
                      A                      A                      A
 Frequencies --   3041.9612              3046.3928              3047.0291
 Red. masses --      1.0450                 1.0770                 1.0664
 Frc consts  --      5.6974                 5.8888                 5.8335
 IR Inten    --     17.9152                 1.3910                16.4469

                     97                     98                     99
                      A                      A                      A
 Frequencies --   3048.0733              3081.0427              3092.1117
 Red. masses --      1.0703                 1.0739                 1.0917
 Frc consts  --      5.8586                 6.0063                 6.1500
 IR Inten    --     68.3375                34.8503                39.7728

                    100                    101                    102
                      A                      A                      A
 Frequencies --   3100.3226              3101.5517              3106.3895
 Red. masses --      1.1008                 1.0979                 1.1003
 Frc consts  --      6.2338                 6.2224                 6.2559
 IR Inten    --     17.7305                 9.5446                59.4209

                    103                    104                    105
                      A                      A                      A
 Frequencies --   3110.8543              3115.1520              3151.6817
 Red. masses --      1.1022                 1.1014                 1.1007
 Frc consts  --      6.2845                 6.2974                 6.4419
 IR Inten    --     19.0889                70.9461                 9.1449

                    106                    107                    108
                      A                      A                      A
 Frequencies --   3218.9520              3234.8223              3250.9246
 Red. masses --      1.0883                 1.0949                 1.0911
 Frc consts  --      6.6440                 6.7502                 6.7942
 IR Inten    --      6.9733                 4.6385                 8.1218

                    109                    110                    111
                      A                      A                      A
 Frequencies --   3267.3525              3271.9625              3501.0493
 Red. masses --      1.1020                 1.0971                 1.0732
 Frc consts  --      6.9312                 6.9200                 7.7501
 IR Inten    --      6.8547                 1.5153                 0.4876

 - Thermochemistry -
 -------------------
 Temperature   298.150 Kelvin.  Pressure   1.00000 Atm.
 Atom     1 has atomic number  6 and mass  12.00000

 Molecular mass:   263.14562 amu.
 Principal axes and moments of inertia in atomic units:
                           1         2         3
     Eigenvalues --  3539.707876885.492068496.23505
           X            0.99958  -0.02846   0.00457
           Y            0.02856   0.99933  -0.02298
           Z           -0.00391   0.02310   0.99973
 This molecule is an asymmetric top.
 Rotational symmetry number  1.
 Warning -- assumption of classical behavior for rotation
           may cause significant error
 Rotational temperatures (Kelvin)      0.02447     0.01258     0.01019
 Rotational constants (GHZ):           0.50986     0.26211     0.21242
 Zero-point vibrational energy     883931.4 (Joules/Mol)
                                  211.26468 (Kcal/Mol)
 Warning -- explicit consideration of  26 degrees of freedom as
           vibrations may cause significant error
 Vibrational temperatures:     24.98    39.19    48.94    52.97    73.98
          (Kelvin)             85.06   152.37   170.47   194.57   255.63
                              302.24   331.44   345.52   368.19   391.02
                              431.27   482.48   534.66   560.71   626.79
                              636.58   641.08   737.18   767.01   812.15
                              868.68   907.88   946.59   957.88   978.78
                             1010.53  1067.14  1082.84  1125.15  1180.71
                             1197.68  1201.87  1240.74  1256.55  1299.11
                             1322.54  1348.81  1354.41  1356.93  1363.25
                             1378.66  1408.84  1431.06  1477.20  1517.23
                             1541.75  1549.22  1584.21  1612.15  1660.08
                             1672.07  1701.61  1720.27  1736.99  1764.94
                             1786.76  1799.45  1833.31  1858.79  1909.01
                             1926.98  1945.57  1969.41  1978.49  2000.48
                             2008.58  2027.97  2036.02  2044.30  2058.93
                             2084.19  2089.37  2156.96  2162.88  2169.08
                             2171.78  2182.93  2183.28  2192.78  2202.15
                             2210.95  2219.19  2230.77  2278.31  2315.37
                             4260.87  4365.58  4368.96  4376.70  4383.08
                             4384.00  4385.50  4432.93  4448.86  4460.67
                             4462.44  4469.40  4475.83  4482.01  4534.57
                             4631.35  4654.19  4677.36  4700.99  4707.62
                             5037.23

 Zero-point correction=                           0.336672 (Hartree/Particle)
 Thermal correction to Energy=                    0.355010
 Thermal correction to Enthalpy=                  0.355955
 Thermal correction to Gibbs Free Energy=         0.287010
 Sum of electronic and zero-point Energies=          -1108.283599
 Sum of electronic and thermal Energies=             -1108.265260
 Sum of electronic and thermal Enthalpies=           -1108.264316
 Sum of electronic and thermal Free Energies=        -1108.333261

                     E (Thermal)             CV                S
                      KCal/Mol        Cal/Mol-Kelvin    Cal/Mol-Kelvin
 Total                  222.772             68.908            145.106
 Electronic               0.000              0.000              0.000
 Translational            0.889              2.981             42.602
 Rotational               0.889              2.981             33.693
 Vibrational            220.995             62.946             68.812
 Vibration     1          0.593              1.986              6.915
 Vibration     2          0.593              1.984              6.021
 Vibration     3          0.594              1.983              5.580
 Vibration     4          0.594              1.982              5.423
 Vibration     5          0.596              1.977              4.762
 Vibration     6          0.596              1.974              4.486
 Vibration     7          0.605              1.945              3.343
 Vibration     8          0.609              1.934              3.125
 Vibration     9          0.613              1.918              2.870
 Vibration    10          0.628              1.870              2.353
 Vibration    11          0.642              1.825              2.043
 Vibration    12          0.652              1.795              1.876
 Vibration    13          0.657              1.779              1.802
 Vibration    14          0.666              1.753              1.690
 Vibration    15          0.675              1.725              1.585
 Vibration    16          0.692              1.674              1.418
 Vibration    17          0.716              1.605              1.234
 Vibration    18          0.743              1.530              1.073
 Vibration    19          0.758              1.492              1.001
 Vibration    20          0.796              1.393              0.840
 Vibration    21          0.802              1.378              0.819
 Vibration    22          0.805              1.371              0.809
 Vibration    23          0.867              1.223              0.628
 Vibration    24          0.888              1.177              0.580
 Vibration    25          0.920              1.108              0.515
 Vibration    26          0.962              1.024              0.443

 Optimization completed.
    -- Stationary point found.
 Normal termination of Gaussian 16 at Fri Dec 11 19:25:09 2020.

 ----------------------------------------------------------------------
 # B3LYP/6-311++G(d,p) empiricaldispersion=gd3bj scf=xqc pop=npa geom=c
 heck
 ----------------------------------------------------------------------

 --------------------------------------
 CID_64456347_JID_8115_Energie_neutraal
 --------------------------------------
 Structure from the checkpoint file:  "JID_8115.chk"
 Charge =  0 Multiplicity = 1

 SCF Done:  E(RB3LYP) =  -1108.84025813     A.U. after   16 cycles
 Normal termination of Gaussian 16 at Fri Dec 11 19:35:55 2020.

 ----------------------------------------------------------------------
 # B3LYP/6-311++G(d,p) empiricaldispersion=gd3bj scf=xqc pop=npa geom=c
 heck
 ----------------------------------------------------------------------

 ------------------------------------
 CID_64456347_JID_8115_Energie_kation
 ------------------------------------
 Structure from the checkpoint file:  "JID_8115.chk"
 Charge =  1 Multiplicity = 2

 SCF Done:  E(UB3LYP) =  -1108.55189180     A.U. after   31 cycles
 Normal termination of Gaussian 16 at Fri Dec 11 20:05:33 2020.
 Gaussian 16:  ES64L-G16RevA.03 25-Dec-2016

 ----------------------------------------------------------------------
 # B3LYP/6-311++G(d,p) empiricaldispersion=gd3bj scf=xqc pop=npa geom=c
 heck
 ----------------------------------------------------------------------

 -----------------------------------
 CID_64456347_JID_8115_Energie_anion
 -----------------------------------
 Structure from the checkpoint file:  "JID_8115.chk"
 Charge = -1 Multiplicity = 2

                         Standard orientation:
 ---------------------------------------------------------------------
 Center     Atomic      Atomic             Coordinates (Angstroms)
 Number     Number       Type             X           Y           Z
 ---------------------------------------------------------------------
      1          6           0        4.342295   -1.034639    0.977268
      2          6           0        3.570078   -1.370493   -0.305637
      3          6           0        3.054307   -2.814046   -0.263993
      4          6           0        2.396935   -0.410743   -0.533386
      5          7           0        2.829015    0.974472   -0.709546
      6          6           0        1.722390    1.900499   -0.955179
      7          6           0        0.669740    1.949260    0.127163
      8          6           0        0.819557    2.066995    1.501107
      9          6           0       -0.493177    2.062470    2.015889
     10          7           0       -1.402090    1.955477    1.049108
     11          7           0       -0.677563    1.890718   -0.096545
     12          6           0       -1.382459    1.654829   -1.343155
     13          6           0       -1.392307    0.168975   -1.758619
     14          6           0       -1.953363   -0.742243   -0.710513
     15          6           0       -1.274301   -1.610242    0.102310
     16          6           0       -2.112679   -2.282713    1.043441
     17          6           0       -3.424501   -1.916138    0.936625
     18         16           0       -3.655288   -0.739889   -0.318719
     19          1           0        3.674591   -1.048746    1.848849
     20          1           0        4.816924   -0.048187    0.926154
     21          1           0        5.138548   -1.765912    1.155887
     22          1           0        4.253536   -1.263119   -1.158660
     23          1           0        2.366004   -2.959413    0.578783
     24          1           0        2.517092   -3.074238   -1.183647
     25          1           0        3.879206   -3.525010   -0.143700
     26          1           0        1.872033   -0.705201   -1.452961
     27          1           0        1.673416   -0.525308    0.294249
     28          1           0        3.321343    1.278012    0.128169
     29          1           0        2.155045    2.899470   -1.092447
     30          1           0        1.265732    1.629336   -1.913661
     31          1           0        1.749088    2.152394    2.046806
     32          1           0       -0.816407    2.140692    3.045582
     33          1           0       -2.400880    2.011497   -1.179705
     34          1           0       -0.932293    2.261722   -2.135139
     35          1           0       -1.955667    0.090423   -2.697769
     36          1           0       -0.368579   -0.152610   -1.977414
     37          1           0       -0.203136   -1.760303    0.030711
     38          1           0       -1.751695   -3.007220    1.765059
     39          1           0       -4.269913   -2.265353    1.513312
 ---------------------------------------------------------------------

 SCF Done:  E(UB3LYP) =  -1108.82924312     A.U. after   33 cycles
 SCF Done:  E(UB3LYP) =  -1108.82924312     a.u. after    1 cycles

 The electronic state is 2-A.
 Alpha  occ. eigenvalues --  -88.77433 -14.29269 -14.23013 -14.21058 -10.12226
 Alpha  occ. eigenvalues --  -10.11571 -10.11503 -10.10327 -10.09943 -10.09584
 Alpha  occ. eigenvalues --  -10.09417 -10.09254 -10.08249 -10.08057 -10.07363
 Alpha  occ. eigenvalues --  -10.06971 -10.06886 -10.06808  -7.86069  -5.82354
 Alpha  occ. eigenvalues --   -5.81991  -5.81671  -0.95348  -0.82259  -0.78543
 Alpha  occ. eigenvalues --   -0.75505  -0.71543  -0.69553  -0.67431  -0.63620
 Alpha  occ. eigenvalues --   -0.61468  -0.60808  -0.59669  -0.55919  -0.55028
 Alpha  occ. eigenvalues --   -0.50575  -0.47595  -0.47216  -0.45883  -0.43975
 Alpha  occ. eigenvalues --   -0.42799  -0.40721  -0.40231  -0.38421  -0.36816
 Alpha  occ. eigenvalues --   -0.36608  -0.35990  -0.34184  -0.33416  -0.32878
 Alpha  occ. eigenvalues --   -0.32014  -0.31513  -0.30902  -0.30229  -0.29719
 Alpha  occ. eigenvalues --   -0.29498  -0.28516  -0.28011  -0.27560  -0.27188
 Alpha  occ. eigenvalues --   -0.26428  -0.24637  -0.24254  -0.23955  -0.23470
 Alpha  occ. eigenvalues --   -0.20073  -0.16113  -0.15667  -0.15204  -0.14202
 Alpha  occ. eigenvalues --   -0.13593   0.04080
 Alpha virt. eigenvalues --    0.05695   0.06551   0.06976   0.07239   0.07886
 Alpha virt. eigenvalues --    0.08281   0.08513   0.08860   0.09474   0.09886
 Alpha virt. eigenvalues --    0.10094   0.10778   0.11014   0.11285   0.11761

  Beta  occ. eigenvalues --  -88.77424 -14.29270 -14.23011 -14.21047 -10.12196
  Beta  occ. eigenvalues --  -10.11549 -10.11502 -10.10262 -10.09877 -10.09574
  Beta  occ. eigenvalues --  -10.09415 -10.09235 -10.08241 -10.08060 -10.07348
  Beta  occ. eigenvalues --  -10.06963 -10.06857 -10.06786  -7.86060  -5.82350
  Beta  occ. eigenvalues --   -5.81987  -5.81641  -0.95344  -0.82238  -0.78468
  Beta  occ. eigenvalues --   -0.75484  -0.71519  -0.69529  -0.67362  -0.63565
  Beta  occ. eigenvalues --   -0.61395  -0.60770  -0.59617  -0.55869  -0.54978
  Beta  occ. eigenvalues --   -0.50562  -0.47550  -0.47145  -0.45836  -0.43905
  Beta  occ. eigenvalues --   -0.42760  -0.40675  -0.40197  -0.38375  -0.36785
  Beta  occ. eigenvalues --   -0.36560  -0.35953  -0.34156  -0.33386  -0.32839
  Beta  occ. eigenvalues --   -0.31978  -0.31467  -0.30874  -0.30177  -0.29688
  Beta  occ. eigenvalues --   -0.29456  -0.28486  -0.27979  -0.27499  -0.27037
  Beta  occ. eigenvalues --   -0.26392  -0.24595  -0.24214  -0.23921  -0.23438
  Beta  occ. eigenvalues --   -0.20065  -0.16081  -0.15521  -0.15190  -0.14176
  Beta  occ. eigenvalues --   -0.13289
  Beta virt. eigenvalues --    0.06097   0.06877   0.06901   0.07168   0.07881
  Beta virt. eigenvalues --    0.08093   0.08558   0.08844   0.09158   0.09811
  Beta virt. eigenvalues --    0.10040   0.10348   0.10974   0.11353   0.11480

 Mulliken charges and spin densities:
               1          2
     1  C    0.328414  -0.989074
     2  C   -0.694805   0.993962
     3  C    0.442231  -1.104247
     4  C   -0.019050  -0.606258
     5  N    0.034892   0.075622
     6  C    0.370193  -1.254035
     7  C   -0.348405   0.290353
     8  C   -0.131137   0.304081
     9  C   -0.373392   0.023672
    10  N   -0.153521  -0.039608
    11  N    0.446206   0.080186
    12  C    0.746571  -1.289218
    13  C   -0.451673   0.339493
    14  C    0.438693   0.091928
    15  C    0.235865  -0.570127
    16  C   -0.299273   0.146739
    17  C   -0.253876  -0.116649
    18  S   -0.079624  -0.056895
    19  H   -0.059933   0.210877
    20  H   -0.216190   0.341556
    21  H   -0.192848   0.344406
    22  H   -0.034044   0.219915
    23  H    0.024039   0.114832
    24  H   -0.073480   0.208797
    25  H   -0.174846   0.329124
    26  H   -0.119487   0.303004
    27  H    0.546439  -0.388075
    28  H    0.279407  -0.075542
    29  H   -0.287491   0.505401
    30  H   -0.064086   0.223458
    31  H   -0.146531   0.303655
    32  H    0.073791   0.066858
    33  H    0.145681   0.033860
    34  H   -0.539664   0.719010
    35  H   -0.676398   0.905016
    36  H   -0.078125   0.227559
    37  H    0.157822  -0.074359
    38  H   -0.007189   0.149125
    39  H    0.204825   0.011599
 Sum of Mulliken charges =  -1.00000   1.00000

 Dipole moment (field-independent basis, Debye):
    X=             -3.3202    Y=             -0.3741    Z=              4.3862  Tot=              5.5138
 Quadrupole moment (field-independent basis, Debye-Ang):
   XX=           -190.9659   YY=           -166.8766   ZZ=           -164.3417
   XY=              9.7206   XZ=             -7.0308   YZ=              4.0633

 Summary of Natural Population Analysis:

                                       Natural Population
                Natural  -----------------------------------------------
    Atom  No    Charge         Core      Valence    Rydberg      Total
 -----------------------------------------------------------------------
      C    1   -0.28792      0.99965     2.28216    0.00612     3.28792
      C    2   -0.11703      0.99961     2.10777    0.00965     3.11703
      C    3   -0.28428      0.99965     2.27851    0.00612     3.28428
      C    4   -0.08879      0.99959     2.07867    0.01054     3.08879
      N    5   -0.32959      0.99975     2.81917    0.01068     3.82959
      C    6   -0.10405      0.99959     2.09270    0.01176     3.10405
      C    7    0.07911      0.99951     1.90928    0.01210     2.92089
      C    8   -0.16793      0.99950     2.15970    0.00873     3.16793
      C    9   -0.01354      0.99963     2.00028    0.01363     3.01354
      N   10   -0.15111      0.99974     2.64058    0.01079     3.65111
      N   11   -0.11272      0.99961     2.59868    0.01443     3.61272
      C   12   -0.07958      0.99960     2.06744    0.01255     3.07958
      C   13   -0.21170      0.99956     2.20049    0.01165     3.21170
      C   14   -0.08514      0.99949     2.07182    0.01384     3.08514
      C   15   -0.12779      0.99944     2.11756    0.01078     3.12779
      C   16   -0.12710      0.99953     2.11836    0.00921     3.12710
      C   17   -0.18794      0.99954     2.17787    0.01053     3.18794
      S   18    0.20455      4.99939     2.77557    0.02049     7.79545
      H   19    0.09648      0.00000     0.40249    0.00103     0.40352
      H   20    0.09815      0.00000     0.40083    0.00102     0.40185
      H   21    0.10126      0.00000     0.39776    0.00098     0.39874
      H   22    0.09611      0.00000     0.40213    0.00176     0.40389
      H   23    0.09585      0.00000     0.40299    0.00116     0.40415
      H   24    0.10067      0.00000     0.39830    0.00103     0.39933
      H   25    0.09982      0.00000     0.39934    0.00084     0.40018
      H   26    0.09203      0.00000     0.40591    0.00206     0.40797
      H   27    0.08226      0.00000     0.41484    0.00290     0.41774
      H   28    0.17095      0.00000     0.32571    0.00334     0.32905
      H   29    0.10416      0.00000     0.39478    0.00105     0.39584
      H   30    0.10115      0.00000     0.39702    0.00184     0.39885
      H   31    0.10695      0.00000     0.39211    0.00094     0.39305
      H   32    0.09550      0.00000     0.40373    0.00077     0.40450
      H   33    0.10919      0.00000     0.38909    0.00172     0.39081
      H   34    0.10494      0.00000     0.39280    0.00226     0.39506
      H   35    0.11224      0.00000     0.38500    0.00276     0.38776
      H   36    0.10763      0.00000     0.38965    0.00272     0.39237
      H   37    0.10786      0.00000     0.39038    0.00176     0.39214
      H   38    0.10423      0.00000     0.39492    0.00085     0.39577
      H   39    0.10512      0.00000     0.39415    0.00073     0.39488
 =======================================================================
   * Total *    0.00000     21.99239    48.77054    0.23708    71.00000

 Normal termination of Gaussian 16 at Fri Dec 11 20:37:12 2020.
