 Gaussian 16, Revision A.03,

 -----------------------------------------------------------
 # opt freq B3LYP/6-31G(d) empiricaldispersion=gd3bj scf=xqc
 -----------------------------------------------------------

 -------------------------------
 CID_132145776_JID_2141_neutraal
 -------------------------------
 Symbolic Z-matrix:
 Charge =  0 Multiplicity = 1

 SCF Done:  E(RB3LYP) =  -537.317929014     A.U. after   15 cycles
 SCF Done:  E(RB3LYP) =  -537.322285316     A.U. after   14 cycles
 SCF Done:  E(RB3LYP) =  -537.322472591     A.U. after   12 cycles
 SCF Done:  E(RB3LYP) =  -537.322735313     A.U. after   13 cycles
 SCF Done:  E(RB3LYP) =  -537.323673349     A.U. after   12 cycles
 SCF Done:  E(RB3LYP) =  -537.324004895     A.U. after   13 cycles
 SCF Done:  E(RB3LYP) =  -537.324649910     A.U. after   13 cycles
 SCF Done:  E(RB3LYP) =  -537.325549071     A.U. after   12 cycles
 SCF Done:  E(RB3LYP) =  -537.327536037     A.U. after   13 cycles
 SCF Done:  E(RB3LYP) =  -537.327959904     A.U. after   12 cycles
 SCF Done:  E(RB3LYP) =  -537.328391532     A.U. after   11 cycles
 SCF Done:  E(RB3LYP) =  -537.328410649     A.U. after   11 cycles
 SCF Done:  E(RB3LYP) =  -537.328415624     A.U. after    9 cycles
 SCF Done:  E(RB3LYP) =  -537.328418767     A.U. after   10 cycles
 SCF Done:  E(RB3LYP) =  -537.328419366     A.U. after    8 cycles
 SCF Done:  E(RB3LYP) =  -537.328419587     A.U. after    8 cycles
 Optimization completed.
    -- Stationary point found.
 Normal termination of Gaussian 16 at Wed Dec  9 16:54:29 2020.

 --------------------------------------------------------------------
 #N Geom=AllCheck Guess=TCheck SCRF=Check GenChk RB3LYP/6-31G(d) Freq
 --------------------------------------------------------------------

 Structure from the checkpoint file:  "JID_2141.chk"
 -------------------------------
 CID_132145776_JID_2141_neutraal
 -------------------------------
 Charge =  0 Multiplicity = 1

 SCF Done:  E(RB3LYP) =  -537.328419587     A.U. after    1 cycles

  Exact polarizability: 131.222   5.031 114.970   0.423   3.928  82.225
 Approx polarizability: 157.628  14.833 192.604   2.911  18.273 127.024

                      1                      2                      3
                      A                      A                      A
 Frequencies --     35.4885                65.8868                82.7327
 Red. masses --      3.9350                 3.5428                 3.2928
 Frc consts  --      0.0029                 0.0091                 0.0133
 IR Inten    --      1.2301                 0.5466                 0.7169

                      4                      5                      6
                      A                      A                      A
 Frequencies --    114.7430               188.3982               210.6684
 Red. masses --      3.2187                 3.3482                 1.5008
 Frc consts  --      0.0250                 0.0700                 0.0392
 IR Inten    --      0.1752                 2.8558                 0.4237

                      7                      8                      9
                      A                      A                      A
 Frequencies --    224.0940               267.2441               271.3644
 Red. masses --      1.9406                 2.7068                 1.9909
 Frc consts  --      0.0574                 0.1139                 0.0864
 IR Inten    --      2.3414                13.8629                 0.4291

                     10                     11                     12
                      A                      A                      A
 Frequencies --    322.2095               342.9955               404.1404
 Red. masses --      3.5771                 3.2497                 2.0122
 Frc consts  --      0.2188                 0.2252                 0.1936
 IR Inten    --      0.5499                 4.4462                 5.8905

                     13                     14                     15
                      A                      A                      A
 Frequencies --    423.4740               466.4288               489.8329
 Red. masses --      2.5372                 3.2381                 2.6829
 Frc consts  --      0.2681                 0.4151                 0.3793
 IR Inten    --      5.3288                 0.6236                 3.0838

                     16                     17                     18
                      A                      A                      A
 Frequencies --    517.6082               587.2353               599.4069
 Red. masses --      3.0690                 2.0282                 2.5617
 Frc consts  --      0.4845                 0.4121                 0.5423
 IR Inten    --      3.2392                13.0982                 3.0347

                     19                     20                     21
                      A                      A                      A
 Frequencies --    696.0270               748.0998               786.3454
 Red. masses --      1.8462                 1.7871                 3.5798
 Frc consts  --      0.5270                 0.5893                 1.3042
 IR Inten    --      4.1891                23.4875                 5.9487

                     22                     23                     24
                      A                      A                      A
 Frequencies --    809.7653               823.6307               828.4909
 Red. masses --      2.6908                 1.2359                 2.1213
 Frc consts  --      1.0396                 0.4940                 0.8579
 IR Inten    --      1.9119                 1.3078               135.3087

                     25                     26                     27
                      A                      A                      A
 Frequencies --    852.7372               864.3329               918.8723
 Red. masses --      1.5702                 1.3827                 1.6484
 Frc consts  --      0.6727                 0.6086                 0.8200
 IR Inten    --      1.6616                40.0001                38.8703

                     28                     29                     30
                      A                      A                      A
 Frequencies --    942.0651               971.0793              1012.8106
 Red. masses --      2.2957                 2.0548                 2.2625
 Frc consts  --      1.2004                 1.1417                 1.3674
 IR Inten    --      1.6589                31.8437                17.7481

                     31                     32                     33
                      A                      A                      A
 Frequencies --   1039.1700              1044.4901              1047.3036
 Red. masses --      2.1853                 2.2354                 1.5553
 Frc consts  --      1.3904                 1.4368                 1.0051
 IR Inten    --     57.0868                 5.8449                 5.6520

                     34                     35                     36
                      A                      A                      A
 Frequencies --   1089.8574              1115.7391              1153.9119
 Red. masses --      1.7590                 1.9359                 3.7650
 Frc consts  --      1.2310                 1.4199                 2.9537
 IR Inten    --      9.3028                 7.3286                33.4469

                     37                     38                     39
                      A                      A                      A
 Frequencies --   1167.3306              1190.8736              1211.2403
 Red. masses --      2.0170                 2.2547                 2.2536
 Frc consts  --      1.6194                 1.8839                 1.9480
 IR Inten    --     31.8562                62.7399                47.7280

                     40                     41                     42
                      A                      A                      A
 Frequencies --   1222.7477              1285.7788              1305.9738
 Red. masses --      1.3651                 1.3104                 1.3572
 Frc consts  --      1.2025                 1.2764                 1.3639
 IR Inten    --      4.6865                53.2691                29.6103

                     43                     44                     45
                      A                      A                      A
 Frequencies --   1319.6110              1355.0060              1366.8714
 Red. masses --      1.3458                 1.5266                 1.3098
 Frc consts  --      1.3808                 1.6514                 1.4419
 IR Inten    --     27.8047                 4.6976                 4.1441

                     46                     47                     48
                      A                      A                      A
 Frequencies --   1378.6324              1393.1320              1405.1669
 Red. masses --      1.2607                 1.4579                 2.0467
 Frc consts  --      1.4118                 1.6671                 2.3810
 IR Inten    --      3.9679                 1.4991                17.3140

                     49                     50                     51
                      A                      A                      A
 Frequencies --   1421.3521              1432.1196              1435.9590
 Red. masses --      1.3560                 1.3067                 1.4763
 Frc consts  --      1.6140                 1.5790                 1.7936
 IR Inten    --      0.1105                25.2115                30.9471

                     52                     53                     54
                      A                      A                      A
 Frequencies --   1475.1304              1499.2739              1503.4028
 Red. masses --      1.3145                 1.0771                 1.1593
 Frc consts  --      1.6853                 1.4265                 1.5439
 IR Inten    --     21.6463                 0.4619                 9.3728

                     55                     56                     57
                      A                      A                      A
 Frequencies --   1511.0171              1515.7813              1523.3426
 Red. masses --      1.1075                 1.1219                 1.0747
 Frc consts  --      1.4898                 1.5188                 1.4694
 IR Inten    --      7.1013                 2.4066                 2.7169

                     58                     59                     60
                      A                      A                      A
 Frequencies --   1524.8373              1528.8079              1540.8380
 Red. masses --      1.1000                 1.0588                 1.0738
 Frc consts  --      1.5069                 1.4581                 1.5021
 IR Inten    --      6.2019                 6.9740                 7.3305

                     61                     62                     63
                      A                      A                      A
 Frequencies --   1671.4892              1771.3625              2926.0175
 Red. masses --      3.9699                11.3399                 1.0728
 Frc consts  --      6.5348                20.9641                 5.4115
 IR Inten    --     97.9629               137.9295                35.8004

                     64                     65                     66
                      A                      A                      A
 Frequencies --   2939.8925              3051.2383              3058.3358
 Red. masses --      1.0741                 1.0602                 1.0598
 Frc consts  --      5.4697                 5.8158                 5.8405
 IR Inten    --    103.2523                37.6579                39.4455

                     67                     68                     69
                      A                      A                      A
 Frequencies --   3058.7991              3081.5647              3091.5758
 Red. masses --      1.0350                 1.0601                 1.0873
 Frc consts  --      5.7052                 5.9312                 6.1231
 IR Inten    --     22.2758                11.8998                28.8501

                     70                     71                     72
                      A                      A                      A
 Frequencies --   3099.8204              3105.0298              3119.5697
 Red. masses --      1.1063                 1.1066                 1.1030
 Frc consts  --      6.2629                 6.2859                 6.3245
 IR Inten    --     33.4072                38.3363                 2.5808

                     73                     74                     75
                      A                      A                      A
 Frequencies --   3130.3480              3141.6610              3177.5371
 Red. masses --      1.1033                 1.1044                 1.0876
 Frc consts  --      6.3700                 6.4223                 6.4702
 IR Inten    --     31.3447                29.4755                 7.0983

                     76                     77                     78
                      A                      A                      A
 Frequencies --   3211.4776              3290.1746              3456.3440
 Red. masses --      1.0599                 1.1143                 1.0734
 Frc consts  --      6.4407                 7.1073                 7.5551
 IR Inten    --      3.3190                 8.7890                 3.4909

 - Thermochemistry -
 -------------------
 Temperature   298.150 Kelvin.  Pressure   1.00000 Atm.
 Atom     1 has atomic number  6 and mass  12.00000

 Molecular mass:   168.12626 amu.
 Principal axes and moments of inertia in atomic units:
                           1         2         3
     Eigenvalues --   857.788193507.951774008.30062
           X            0.99998   0.00612  -0.00278
           Y           -0.00617   0.99983  -0.01714
           Z            0.00268   0.01715   0.99985
 This molecule is an asymmetric top.
 Rotational symmetry number  1.
 Warning -- assumption of classical behavior for rotation
           may cause significant error
 Rotational temperatures (Kelvin)      0.10097     0.02469     0.02161
 Rotational constants (GHZ):           2.10395     0.51447     0.45025
 Zero-point vibrational energy     653490.9 (Joules/Mol)
                                  156.18807 (Kcal/Mol)
 Warning -- explicit consideration of  18 degrees of freedom as
           vibrations may cause significant error
 Vibrational temperatures:     51.06    94.80   119.03   165.09   271.06
          (Kelvin)            303.10   322.42   384.50   390.43   463.59
                              493.49   581.47   609.28   671.09   704.76
                              744.72   844.90   862.41  1001.43  1076.35
                             1131.38  1165.07  1185.02  1192.01  1226.90
                             1243.58  1322.05  1355.42  1397.17  1457.21
                             1495.13  1502.79  1506.84  1568.06  1605.30
                             1660.22  1679.53  1713.40  1742.70  1759.26
                             1849.95  1879.00  1898.63  1949.55  1966.62
                             1983.54  2004.41  2021.72  2045.01  2060.50
                             2066.02  2122.38  2157.12  2163.06  2174.02
                             2180.87  2191.75  2193.90  2199.61  2216.92
                             2404.90  2548.60  4209.89  4229.85  4390.05
                             4400.26  4400.93  4433.68  4448.09  4459.95
                             4467.45  4488.37  4503.87  4520.15  4571.77
                             4620.60  4733.83  4972.91

 Zero-point correction=                           0.248902 (Hartree/Particle)
 Thermal correction to Energy=                    0.260998
 Thermal correction to Enthalpy=                  0.261942
 Thermal correction to Gibbs Free Energy=         0.210314
 Sum of electronic and zero-point Energies=           -537.079518
 Sum of electronic and thermal Energies=              -537.067422
 Sum of electronic and thermal Enthalpies=            -537.066478
 Sum of electronic and thermal Free Energies=         -537.118105

                     E (Thermal)             CV                S
                      KCal/Mol        Cal/Mol-Kelvin    Cal/Mol-Kelvin
 Total                  163.778             46.295            108.659
 Electronic               0.000              0.000              0.000
 Translational            0.889              2.981             41.267
 Rotational               0.889              2.981             30.868
 Vibrational            162.001             40.333             36.525
 Vibration     1          0.594              1.982              5.496
 Vibration     2          0.597              1.971              4.273
 Vibration     3          0.600              1.961              3.825
 Vibration     4          0.608              1.937              3.187
 Vibration     5          0.633              1.856              2.244
 Vibration     6          0.643              1.825              2.038
 Vibration     7          0.649              1.804              1.926
 Vibration     8          0.672              1.733              1.614
 Vibration     9          0.675              1.726              1.588
 Vibration    10          0.707              1.631              1.299
 Vibration    11          0.722              1.590              1.198
 Vibration    12          0.769              1.461              0.948
 Vibration    13          0.786              1.419              0.880
 Vibration    14          0.824              1.325              0.748
 Vibration    15          0.846              1.273              0.684
 Vibration    16          0.873              1.211              0.616
 Vibration    17          0.944              1.059              0.472
 Vibration    18          0.957              1.033              0.451

 Optimization completed.
    -- Stationary point found.
 Normal termination of Gaussian 16 at Wed Dec  9 17:00:53 2020.

 ----------------------------------------------------------------------
 # B3LYP/6-311++G(d,p) empiricaldispersion=gd3bj scf=xqc pop=npa geom=c
 heck
 ----------------------------------------------------------------------

 ---------------------------------------
 CID_132145776_JID_2141_Energie_neutraal
 ---------------------------------------
 Structure from the checkpoint file:  "JID_2141.chk"
 Charge =  0 Multiplicity = 1

 SCF Done:  E(RB3LYP) =  -537.483899139     A.U. after   14 cycles
 Normal termination of Gaussian 16 at Wed Dec  9 17:03:48 2020.

 ----------------------------------------------------------------------
 # B3LYP/6-311++G(d,p) empiricaldispersion=gd3bj scf=xqc pop=npa geom=c
 heck
 ----------------------------------------------------------------------

 -------------------------------------
 CID_132145776_JID_2141_Energie_kation
 -------------------------------------
 Structure from the checkpoint file:  "JID_2141.chk"
 Charge =  1 Multiplicity = 2

 SCF Done:  E(UB3LYP) =  -537.200084409     A.U. after   21 cycles
 Normal termination of Gaussian 16 at Wed Dec  9 17:10:42 2020.
 Gaussian 16:  ES64L-G16RevA.03 25-Dec-2016

 ----------------------------------------------------------------------
 # B3LYP/6-311++G(d,p) empiricaldispersion=gd3bj scf=xqc pop=npa geom=c
 heck
 ----------------------------------------------------------------------

 ------------------------------------
 CID_132145776_JID_2141_Energie_anion
 ------------------------------------
 Structure from the checkpoint file:  "JID_2141.chk"
 Charge = -1 Multiplicity = 2

                         Standard orientation:
 ---------------------------------------------------------------------
 Center     Atomic      Atomic             Coordinates (Angstroms)
 Number     Number       Type             X           Y           Z
 ---------------------------------------------------------------------
      1          6           0        3.999723    0.164497   -0.724013
      2          6           0        3.165678   -0.349872    0.462775
      3          6           0        1.709898   -0.553252    0.058320
      4          8           0        1.380406   -1.594908   -0.488019
      5          6           0        0.708741    0.554836    0.285426
      6          6           0        1.144241    1.800689    0.577238
      7          7           0       -0.625826    0.231715    0.025490
      8          6           0       -1.570815    1.333277   -0.109698
      9          6           0       -2.864920    0.840606   -0.772165
     10          7           0       -3.477221   -0.312174   -0.112791
     11          6           0       -2.486198   -1.376979    0.061745
     12          6           0       -1.202523   -0.911023    0.750798
     13          1           0        3.910480   -0.521577   -1.572009
     14          1           0        5.056907    0.237047   -0.449062
     15          1           0        3.662580    1.153453   -1.051684
     16          1           0        3.536328   -1.334748    0.763136
     17          1           0        3.257594    0.320026    1.321761
     18          1           0        0.467530    2.636134    0.708565
     19          1           0        2.199371    2.026106    0.647103
     20          1           0       -1.803621    1.788150    0.873639
     21          1           0       -1.113298    2.110326   -0.730819
     22          1           0       -2.637058    0.550142   -1.805326
     23          1           0       -3.592418    1.659302   -0.809969
     24          1           0       -3.814229   -0.024708    0.806985
     25          1           0       -2.228891   -1.765174   -0.931206
     26          1           0       -2.939340   -2.194150    0.633889
     27          1           0       -0.474857   -1.719923    0.775256
     28          1           0       -1.431943   -0.614592    1.792452
 ---------------------------------------------------------------------

 SCF Done:  E(UB3LYP) =  -537.484908915     A.U. after   32 cycles

 The electronic state is 2-A.
 Alpha  occ. eigenvalues --  -18.91998 -14.18856 -14.18503 -10.07994 -10.07637
 Alpha  occ. eigenvalues --  -10.07334 -10.06532 -10.06370 -10.04608 -10.03554
 Alpha  occ. eigenvalues --  -10.02795  -9.99770  -0.86464  -0.82242  -0.77707
 Alpha  occ. eigenvalues --   -0.64561  -0.64213  -0.61429  -0.54929  -0.52602
 Alpha  occ. eigenvalues --   -0.50528  -0.47686  -0.44019  -0.40486  -0.35297
 Alpha  occ. eigenvalues --   -0.34751  -0.33969  -0.33438  -0.32749  -0.31449
 Alpha  occ. eigenvalues --   -0.29551  -0.29053  -0.27627  -0.26834  -0.25564
 Alpha  occ. eigenvalues --   -0.24580  -0.23577  -0.23229  -0.22888  -0.22499
 Alpha  occ. eigenvalues --   -0.21171  -0.20406  -0.14870  -0.12001  -0.08126
 Alpha  occ. eigenvalues --   -0.07472   0.05192
 Alpha virt. eigenvalues --    0.07238   0.08650   0.08888   0.10039   0.10470
 Alpha virt. eigenvalues --    0.11234   0.11698   0.12315   0.12574   0.13147
 Alpha virt. eigenvalues --    0.13209   0.14400   0.14847   0.15532   0.15783

  Beta  occ. eigenvalues --  -18.91491 -14.18846 -14.18511 -10.07984 -10.07635
  Beta  occ. eigenvalues --  -10.07328 -10.06523 -10.06023 -10.04555 -10.03515
  Beta  occ. eigenvalues --  -10.02824  -9.99438  -0.85579  -0.82174  -0.77651
  Beta  occ. eigenvalues --   -0.64520  -0.63931  -0.61184  -0.54718  -0.52502
  Beta  occ. eigenvalues --   -0.50254  -0.47455  -0.43580  -0.40181  -0.35219
  Beta  occ. eigenvalues --   -0.34655  -0.33917  -0.33210  -0.32667  -0.31405
  Beta  occ. eigenvalues --   -0.29235  -0.28861  -0.27536  -0.26327  -0.25248
  Beta  occ. eigenvalues --   -0.24428  -0.23524  -0.23044  -0.22738  -0.22336
  Beta  occ. eigenvalues --   -0.20998  -0.18840  -0.13734  -0.11783  -0.07692
  Beta  occ. eigenvalues --   -0.06439
  Beta virt. eigenvalues --    0.07531   0.08552   0.09006   0.09913   0.10530
  Beta virt. eigenvalues --    0.10859   0.11564   0.11993   0.12391   0.12695
  Beta virt. eigenvalues --    0.13195   0.13332   0.14337   0.14798   0.15457

 Mulliken charges and spin densities:
               1          2
     1  C   -0.230193  -0.346537
     2  C   -0.274105   0.169268
     3  C    0.241713   0.002853
     4  O   -0.386353   0.181351
     5  C   -0.155424   0.042634
     6  C   -0.711945   0.393439
     7  N    0.334960  -0.005759
     8  C   -0.211636   0.189805
     9  C   -0.038084  -0.644129
    10  N   -0.176716   0.076377
    11  C   -0.233898  -0.225722
    12  C   -0.270793   0.002873
    13  H    0.150572   0.002043
    14  H   -0.128452   0.251780
    15  H    0.134151  -0.014518
    16  H    0.065837   0.088108
    17  H    0.027958   0.098845
    18  H    0.088117  -0.007956
    19  H    0.126404   0.005530
    20  H    0.098679  -0.001594
    21  H    0.002230   0.128122
    22  H    0.144205   0.017651
    23  H   -0.167832   0.333855
    24  H    0.065163   0.149035
    25  H    0.151818   0.021995
    26  H    0.102288   0.038468
    27  H    0.246649  -0.036178
    28  H    0.004686   0.088360
 Sum of Mulliken charges =  -1.00000   1.00000

 Dipole moment (field-independent basis, Debye):
    X=             -2.4709    Y=              0.5433    Z=              0.7117  Tot=              2.6281
 Quadrupole moment (field-independent basis, Debye-Ang):
   XX=           -128.8697   YY=            -96.6830   ZZ=            -89.0758
   XY=              3.4308   XZ=             -2.4740   YZ=             -3.8159

 Summary of Natural Population Analysis:

                                       Natural Population
                Natural  -----------------------------------------------
    Atom  No    Charge         Core      Valence    Rydberg      Total
 -----------------------------------------------------------------------
      C    1   -0.27999      0.99966     2.27462    0.00571     3.27999
      C    2   -0.23363      0.99962     2.22460    0.00942     3.23363
      C    3    0.30688      0.99962     1.67051    0.02299     2.69312
      O    4   -0.26169      0.99988     3.25550    0.00631     4.26169
      C    5    0.05430      0.99946     1.93350    0.01274     2.94570
      C    6   -0.16186      0.99957     2.15483    0.00746     3.16186
      N    7   -0.26590      0.99964     2.75399    0.01227     3.76590
      C    8   -0.09458      0.99962     2.08254    0.01242     3.09458
      C    9   -0.09327      0.99962     2.08039    0.01325     3.09327
      N   10   -0.34040      0.99976     2.82668    0.01396     3.84040
      C   11   -0.09413      0.99963     2.08200    0.01250     3.09413
      C   12   -0.09167      0.99961     2.08180    0.01026     3.09167
      H   13    0.09812      0.00000     0.40100    0.00088     0.40188
      H   14    0.08970      0.00000     0.40899    0.00132     0.41030
      H   15    0.09601      0.00000     0.40311    0.00089     0.40399
      H   16    0.10125      0.00000     0.39703    0.00172     0.39875
      H   17    0.09746      0.00000     0.40109    0.00145     0.40254
      H   18    0.08353      0.00000     0.41555    0.00092     0.41647
      H   19    0.08914      0.00000     0.41005    0.00080     0.41086
      H   20    0.07595      0.00000     0.42159    0.00246     0.42405
      H   21    0.10293      0.00000     0.39574    0.00133     0.39707
      H   22    0.09097      0.00000     0.40773    0.00130     0.40903
      H   23    0.09123      0.00000     0.40762    0.00115     0.40877
      H   24    0.16593      0.00000     0.33154    0.00253     0.33407
      H   25    0.09472      0.00000     0.40400    0.00128     0.40528
      H   26    0.08941      0.00000     0.40977    0.00081     0.41059
      H   27    0.11823      0.00000     0.38058    0.00118     0.38177
      H   28    0.07137      0.00000     0.42667    0.00196     0.42863
 =======================================================================
   * Total *   -0.00000     11.99569    33.84300    0.16131    46.00000

 Normal termination of Gaussian 16 at Wed Dec  9 17:19:58 2020.
