 Gaussian 16, Revision A.03,

 -----------------------------------------------------------
 # opt freq B3LYP/6-31G(d) empiricaldispersion=gd3bj scf=xqc
 -----------------------------------------------------------

 ------------------------------
 CID_65957142_JID_7924_neutraal
 ------------------------------
 Symbolic Z-matrix:
 Charge =  0 Multiplicity = 1

 SCF Done:  E(RB3LYP) =  -1142.23806455     A.U. after   14 cycles
 SCF Done:  E(RB3LYP) =  -1142.24645491     A.U. after   12 cycles
 SCF Done:  E(RB3LYP) =  -1142.24814383     A.U. after   12 cycles
 SCF Done:  E(RB3LYP) =  -1142.24882480     A.U. after   12 cycles
 SCF Done:  E(RB3LYP) =  -1142.24909529     A.U. after   12 cycles
 SCF Done:  E(RB3LYP) =  -1142.24932180     A.U. after   12 cycles
 SCF Done:  E(RB3LYP) =  -1142.24940362     A.U. after   11 cycles
 SCF Done:  E(RB3LYP) =  -1142.24943147     A.U. after   11 cycles
 SCF Done:  E(RB3LYP) =  -1142.24943746     A.U. after   10 cycles
 SCF Done:  E(RB3LYP) =  -1142.24943880     A.U. after    8 cycles
 SCF Done:  E(RB3LYP) =  -1142.24943891     A.U. after    7 cycles
 SCF Done:  E(RB3LYP) =  -1142.24943893     A.U. after    7 cycles
 Optimization completed.
    -- Stationary point found.
 Normal termination of Gaussian 16 at Mon Dec 14 16:41:12 2020.

 --------------------------------------------------------------------
 #N Geom=AllCheck Guess=TCheck SCRF=Check GenChk RB3LYP/6-31G(d) Freq
 --------------------------------------------------------------------

 Structure from the checkpoint file:  "JID_7924.chk"
 ------------------------------
 CID_65957142_JID_7924_neutraal
 ------------------------------
 Charge =  0 Multiplicity = 1

 SCF Done:  E(RB3LYP) =  -1142.24943893     A.U. after    1 cycles

  Exact polarizability: 193.074 -15.732 128.954   0.369   2.803 137.063
 Approx polarizability: 259.139 -24.915 175.631  -0.393   6.133 254.272

 ******    1 imaginary frequencies (negative Signs) ******

                      1                      2                      3
                      A                      A                      A
 Frequencies --     -8.5614                23.7492                42.3158
 Red. masses --      4.9838                 4.7125                 3.6067
 Frc consts  --      0.0002                 0.0016                 0.0038
 IR Inten    --      0.1087                 1.2850                 2.9246

                      4                      5                      6
                      A                      A                      A
 Frequencies --     54.7373                91.2115                95.8465
 Red. masses --      2.8208                 5.0340                 1.3761
 Frc consts  --      0.0050                 0.0247                 0.0074
 IR Inten    --      0.7593                 2.3147                31.4721

                      7                      8                      9
                      A                      A                      A
 Frequencies --    108.7890               136.7897               169.3681
 Red. masses --      3.1843                 5.5208                 3.7690
 Frc consts  --      0.0222                 0.0609                 0.0637
 IR Inten    --      4.6215                 1.6799                 0.1951

                     10                     11                     12
                      A                      A                      A
 Frequencies --    198.7286               211.5565               246.5317
 Red. masses --      2.4319                 4.2924                 1.3142
 Frc consts  --      0.0566                 0.1132                 0.0471
 IR Inten    --      2.0402                 0.6411                 0.2350

                     13                     14                     15
                      A                      A                      A
 Frequencies --    255.1066               276.0257               331.9298
 Red. masses --      3.3326                 3.4868                 3.5825
 Frc consts  --      0.1278                 0.1565                 0.2326
 IR Inten    --      2.1740                 0.1686                 5.9076

                     16                     17                     18
                      A                      A                      A
 Frequencies --    353.9917               356.6695               408.8175
 Red. masses --      4.4384                 3.4378                 3.0544
 Frc consts  --      0.3277                 0.2577                 0.3008
 IR Inten    --      5.8055                 2.3368                 1.5803

                     19                     20                     21
                      A                      A                      A
 Frequencies --    414.6715               435.7123               455.4247
 Red. masses --      3.0477                 4.7622                 3.5382
 Frc consts  --      0.3088                 0.5327                 0.4324
 IR Inten    --      0.7354                 1.2330                 3.2321

                     22                     23                     24
                      A                      A                      A
 Frequencies --    502.3818               507.2891               564.0388
 Red. masses --      4.6191                 3.5048                 4.1717
 Frc consts  --      0.6869                 0.5314                 0.7819
 IR Inten    --     15.3629                 7.8842                98.7301

                     25                     26                     27
                      A                      A                      A
 Frequencies --    578.1423               644.8519               655.7015
 Red. masses --      2.7129                 4.7107                 3.8302
 Frc consts  --      0.5343                 1.1541                 0.9703
 IR Inten    --     20.4077                 6.8217                 7.0209

                     28                     29                     30
                      A                      A                      A
 Frequencies --    674.5030               680.8757               734.2151
 Red. masses --      2.7584                 2.0284                 2.6236
 Frc consts  --      0.7394                 0.5540                 0.8333
 IR Inten    --    235.6431                88.4399                34.0236

                     31                     32                     33
                      A                      A                      A
 Frequencies --    758.2319               806.3201               836.2967
 Red. masses --      3.0822                 2.9781                 1.6371
 Frc consts  --      1.0440                 1.1408                 0.6746
 IR Inten    --     75.8435                25.3508                 6.7043

                     34                     35                     36
                      A                      A                      A
 Frequencies --    852.5165               857.0471               883.6610
 Red. masses --      1.4496                 1.4414                 2.2548
 Frc consts  --      0.6207                 0.6238                 1.0373
 IR Inten    --     11.0700                10.3909               165.2704

                     37                     38                     39
                      A                      A                      A
 Frequencies --    907.5910               932.5542               956.4258
 Red. masses --      1.4754                 2.8262                 1.8065
 Frc consts  --      0.7160                 1.4481                 0.9736
 IR Inten    --     12.6316                24.9977                21.9766

                     40                     41                     42
                      A                      A                      A
 Frequencies --    973.0502               975.0957               983.3934
 Red. masses --      1.3173                 1.3301                 1.8229
 Frc consts  --      0.7348                 0.7451                 1.0387
 IR Inten    --      0.5280                 0.2431                 1.9557

                     43                     44                     45
                      A                      A                      A
 Frequencies --   1018.8660              1037.6510              1047.5401
 Red. masses --      2.6384                 3.6586                 2.1591
 Frc consts  --      1.6137                 2.3210                 1.3959
 IR Inten    --     13.8372                11.4463                 7.5808

                     46                     47                     48
                      A                      A                      A
 Frequencies --   1054.4253              1082.8481              1097.9117
 Red. masses --      1.8446                 2.0683                 4.6788
 Frc consts  --      1.2083                 1.4289                 3.3229
 IR Inten    --     14.3545                10.8495                67.0708

                     49                     50                     51
                      A                      A                      A
 Frequencies --   1107.1235              1109.8667              1133.3562
 Red. masses --      1.4159                 1.8687                 1.1874
 Frc consts  --      1.0225                 1.3562                 0.8986
 IR Inten    --      2.7787                 2.8532                23.0130

                     52                     53                     54
                      A                      A                      A
 Frequencies --   1148.3532              1152.1567              1165.8390
 Red. masses --      2.8524                 1.9960                 2.3996
 Frc consts  --      2.2162                 1.5611                 1.9216
 IR Inten    --    127.1767                74.4319                37.8429

                     55                     56                     57
                      A                      A                      A
 Frequencies --   1199.7497              1219.5303              1225.7133
 Red. masses --      1.6508                 1.1896                 1.5651
 Frc consts  --      1.4000                 1.0424                 1.3854
 IR Inten    --      7.3429                 1.5174                 5.2871

                     58                     59                     60
                      A                      A                      A
 Frequencies --   1230.5550              1256.2181              1280.7519
 Red. masses --      1.7525                 2.1804                 1.3118
 Frc consts  --      1.5636                 2.0273                 1.2678
 IR Inten    --     23.9811                 7.4820                 6.1534

                     61                     62                     63
                      A                      A                      A
 Frequencies --   1315.2229              1335.2216              1344.9835
 Red. masses --      1.7592                 1.4132                 3.1744
 Frc consts  --      1.7929                 1.4844                 3.3833
 IR Inten    --     19.6953                20.7810                80.0324

                     64                     65                     66
                      A                      A                      A
 Frequencies --   1352.5219              1361.1436              1386.7266
 Red. masses --      2.9272                 1.4816                 1.3796
 Frc consts  --      3.1550                 1.6173                 1.5631
 IR Inten    --     59.4723                 0.0370                13.5352

                     67                     68                     69
                      A                      A                      A
 Frequencies --   1390.5128              1415.2811              1436.0084
 Red. masses --      1.9523                 1.3700                 1.2598
 Frc consts  --      2.2240                 1.6168                 1.5306
 IR Inten    --      2.2516                 7.5954                 4.4044

                     70                     71                     72
                      A                      A                      A
 Frequencies --   1462.5689              1507.8945              1525.3690
 Red. masses --      2.2945                 1.1439                 1.1006
 Frc consts  --      2.8918                 1.5324                 1.5088
 IR Inten    --     21.5404                20.7271                18.9657

                     73                     74                     75
                      A                      A                      A
 Frequencies --   1530.3944              1532.0888              1543.1066
 Red. masses --      1.0756                 1.1082                 2.1661
 Frc consts  --      1.4842                 1.5326                 3.0389
 IR Inten    --      3.5673                10.2103                 4.1018

                     76                     77                     78
                      A                      A                      A
 Frequencies --   1557.9830              1618.4290              1635.6388
 Red. masses --      1.1164                 1.0970                 6.5075
 Frc consts  --      1.5966                 1.6930                10.2574
 IR Inten    --      8.0056                29.3600                 1.6225

                     79                     80                     81
                      A                      A                      A
 Frequencies --   1657.2322              2998.8995              3007.3926
 Red. masses --      5.5960                 1.0686                 1.0687
 Frc consts  --      9.0551                 5.6624                 5.6951
 IR Inten    --     12.3795                63.8969                80.2809

                     82                     83                     84
                      A                      A                      A
 Frequencies --   3039.5454              3056.5187              3082.3167
 Red. masses --      1.0841                 1.0374                 1.0985
 Frc consts  --      5.9014                 5.7104                 6.1489
 IR Inten    --     17.2942                18.6605                34.4007

                     85                     86                     87
                      A                      A                      A
 Frequencies --   3096.6461              3116.8951              3121.6747
 Red. masses --      1.0875                 1.0938                 1.0994
 Frc consts  --      6.1439                 6.2607                 6.3121
 IR Inten    --     35.6340                35.7344                30.3358

                     88                     89                     90
                      A                      A                      A
 Frequencies --   3145.2388              3186.4870              3193.2513
 Red. masses --      1.1037                 1.0893                 1.0885
 Frc consts  --      6.4327                 6.5166                 6.5396
 IR Inten    --     23.6153                11.6623                10.2361

                     91                     92                     93
                      A                      A                      A
 Frequencies --   3228.7084              3229.4255              3481.3323
 Red. masses --      1.0924                 1.0929                 1.0735
 Frc consts  --      6.7093                 6.7155                 7.6656
 IR Inten    --      1.4255                 0.8571                 0.4801

                     94                     95                     96
                      A                      A                      A
 Frequencies --   3495.4703              3501.5059              3607.3920
 Red. masses --      1.0467                 1.0760                 1.0980
 Frc consts  --      7.5353                 7.7726                 8.4189
 IR Inten    --     37.8747                 4.1000                34.1339

 - Thermochemistry -
 -------------------
 Temperature   298.150 Kelvin.  Pressure   1.00000 Atm.
 Atom     1 has atomic number  6 and mass  12.00000

 Molecular mass:   255.10415 amu.
 Principal axes and moments of inertia in atomic units:
                           1         2         3
     Eigenvalues --  2311.625178196.489769289.58760
           X            0.99997  -0.00731   0.00086
           Y            0.00729   0.99986   0.01511
           Z           -0.00097  -0.01511   0.99989
 This molecule is an asymmetric top.
 Rotational symmetry number  1.
 Warning -- assumption of classical behavior for rotation
           may cause significant error
 Rotational temperatures (Kelvin)      0.03747     0.01057     0.00932
 Rotational constants (GHZ):           0.78072     0.22018     0.19428
    1 imaginary frequencies ignored.
 Zero-point vibrational energy     741670.6 (Joules/Mol)
                                  177.26353 (Kcal/Mol)
 Warning -- explicit consideration of  24 degrees of freedom as
           vibrations may cause significant error
 Vibrational temperatures:     34.17    60.88    78.75   131.23   137.90
          (Kelvin)            156.52   196.81   243.68   285.93   304.38
                              354.70   367.04   397.14   477.57   509.32
                              513.17   588.20   596.62   626.89   655.25
                              722.82   729.88   811.53   831.82   927.80
                              943.41   970.46   979.63  1056.37  1090.93
                             1160.11  1203.24  1226.58  1233.10  1271.39
                             1305.82  1341.74  1376.08  1400.00  1402.95
                             1414.88  1465.92  1492.95  1507.18  1517.08
                             1557.98  1579.65  1592.90  1596.85  1630.65
                             1652.22  1657.70  1677.38  1726.17  1754.63
                             1763.53  1770.49  1807.42  1842.72  1892.31
                             1921.09  1935.13  1945.98  1958.38  1995.19
                             2000.64  2036.27  2066.10  2104.31  2169.52
                             2194.67  2201.90  2204.33  2220.19  2241.59
                             2328.56  2353.32  2384.39  4314.75  4326.97
                             4373.23  4397.65  4434.77  4455.38  4484.52
                             4491.39  4525.30  4584.64  4594.38  4645.39
                             4646.42  5008.86  5029.20  5037.89  5190.23

 Zero-point correction=                           0.282487 (Hartree/Particle)
 Thermal correction to Energy=                    0.298733
 Thermal correction to Enthalpy=                  0.299677
 Thermal correction to Gibbs Free Energy=         0.237396
 Sum of electronic and zero-point Energies=          -1141.966952
 Sum of electronic and thermal Energies=             -1141.950706
 Sum of electronic and thermal Enthalpies=           -1141.949762
 Sum of electronic and thermal Free Energies=        -1142.012043

                     E (Thermal)             CV                S
                      KCal/Mol        Cal/Mol-Kelvin    Cal/Mol-Kelvin
 Total                  187.458             62.260            131.081
 Electronic               0.000              0.000              0.000
 Translational            0.889              2.981             42.510
 Rotational               0.889              2.981             33.531
 Vibrational            185.680             56.298             55.040
 Vibration     1          0.593              1.985              6.293
 Vibration     2          0.595              1.980              5.148
 Vibration     3          0.596              1.976              4.638
 Vibration     4          0.602              1.955              3.634
 Vibration     5          0.603              1.952              3.537
 Vibration     6          0.606              1.942              3.290
 Vibration     7          0.614              1.917              2.848
 Vibration     8          0.625              1.880              2.442
 Vibration     9          0.637              1.842              2.145
 Vibration    10          0.643              1.823              2.030
 Vibration    11          0.661              1.769              1.755
 Vibration    12          0.665              1.754              1.695
 Vibration    13          0.678              1.718              1.558
 Vibration    14          0.714              1.612              1.251
 Vibration    15          0.730              1.567              1.148
 Vibration    16          0.732              1.562              1.137
 Vibration    17          0.773              1.451              0.931
 Vibration    18          0.778              1.438              0.910
 Vibration    19          0.796              1.392              0.840
 Vibration    20          0.814              1.349              0.780
 Vibration    21          0.858              1.245              0.652
 Vibration    22          0.862              1.234              0.640
 Vibration    23          0.920              1.109              0.516
 Vibration    24          0.935              1.079              0.489

                           ! Non-Optimized Parameters !
 Normal termination of Gaussian 16 at Mon Dec 14 16:55:09 2020.

 ----------------------------------------------------------------------
 # B3LYP/6-311++G(d,p) empiricaldispersion=gd3bj scf=xqc pop=npa geom=c
 heck
 ----------------------------------------------------------------------

 --------------------------------------
 CID_65957142_JID_7924_Energie_neutraal
 --------------------------------------
 Structure from the checkpoint file:  "JID_7924.chk"
 Charge =  0 Multiplicity = 1

 SCF Done:  E(RB3LYP) =  -1142.49490701     A.U. after   16 cycles
 Normal termination of Gaussian 16 at Mon Dec 14 17:02:43 2020.

 ----------------------------------------------------------------------
 # B3LYP/6-311++G(d,p) empiricaldispersion=gd3bj scf=xqc pop=npa geom=c
 heck
 ----------------------------------------------------------------------

 ------------------------------------
 CID_65957142_JID_7924_Energie_kation
 ------------------------------------
 Structure from the checkpoint file:  "JID_7924.chk"
 Charge =  1 Multiplicity = 2

 SCF Done:  E(UB3LYP) =  -1142.19739057     A.U. after   25 cycles
 Normal termination of Gaussian 16 at Mon Dec 14 17:20:01 2020.
 Gaussian 16:  ES64L-G16RevA.03 25-Dec-2016

 ----------------------------------------------------------------------
 # B3LYP/6-311++G(d,p) empiricaldispersion=gd3bj scf=xqc pop=npa geom=c
 heck
 ----------------------------------------------------------------------

 -----------------------------------
 CID_65957142_JID_7924_Energie_anion
 -----------------------------------
 Structure from the checkpoint file:  "JID_7924.chk"
 Charge = -1 Multiplicity = 2

                         Standard orientation:
 ---------------------------------------------------------------------
 Center     Atomic      Atomic             Coordinates (Angstroms)
 Number     Number       Type             X           Y           Z
 ---------------------------------------------------------------------
      1          6           0       -2.699213    2.873850    0.432823
      2          6           0       -2.381885    1.572301   -0.308183
      3          6           0       -0.905929    1.195526   -0.217769
      4          6           0       -0.182036    0.893403   -1.375539
      5          6           0        1.144074    0.469373   -1.308271
      6          6           0        1.748136    0.349884   -0.059313
      7          6           0        1.058046    0.663424    1.113170
      8          6           0       -0.264724    1.082135    1.024403
      9         16           0        3.437583   -0.215431    0.045456
     10          8           0        4.069329    0.015733   -1.257259
     11          8           0        4.004658    0.296260    1.296848
     12          7           0        3.275598   -1.897846    0.227471
     13          7           0       -3.295285    0.522847    0.156896
     14          6           0       -3.238872   -0.736429   -0.562737
     15          6           0       -2.163344   -1.797996   -0.154531
     16          7           0       -3.178126   -2.424259    0.726602
     17          6           0       -4.267967   -1.763367   -0.029004
     18          1           0       -2.530839    2.769699    1.511175
     19          1           0       -3.749756    3.136475    0.281316
     20          1           0       -2.066270    3.691750    0.074437
     21          1           0       -2.612987    1.721835   -1.371103
     22          1           0       -0.664374    0.988632   -2.345053
     23          1           0        1.710119    0.245390   -2.205636
     24          1           0        1.560569    0.589563    2.071254
     25          1           0       -0.806425    1.316148    1.936562
     26          1           0        3.733602   -2.360453   -0.555226
     27          1           0        3.697693   -2.176470    1.111016
     28          1           0       -3.162158    0.352590    1.153599
     29          1           0       -3.293992   -0.516858   -1.632868
     30          1           0       -1.858815   -2.412911   -1.016235
     31          1           0       -1.266246   -1.446734    0.362577
     32          1           0       -3.194722   -3.441915    0.721604
     33          1           0       -5.075940   -1.354985    0.589316
     34          1           0       -4.705711   -2.368619   -0.837830
 ---------------------------------------------------------------------

 SCF Done:  E(UB3LYP) =  -1142.49224391     A.U. after   33 cycles
 SCF Done:  E(UB3LYP) =  -1142.49224391     a.u. after    1 cycles

 The electronic state is 2-A.
 Alpha  occ. eigenvalues --  -88.92506 -18.98505 -18.98466 -14.20937 -14.20604
 Alpha  occ. eigenvalues --  -14.19587 -10.10552 -10.10335 -10.09473 -10.08817
 Alpha  occ. eigenvalues --  -10.06105 -10.04803 -10.04649 -10.04341 -10.04146
 Alpha  occ. eigenvalues --  -10.04018 -10.03090  -7.98697  -5.95007  -5.94983
 Alpha  occ. eigenvalues --   -5.94724  -0.98671  -0.88005  -0.84676  -0.79512
 Alpha  occ. eigenvalues --   -0.77847  -0.72923  -0.66575  -0.62443  -0.61909
 Alpha  occ. eigenvalues --   -0.59387  -0.57886  -0.54523  -0.50330  -0.48230
 Alpha  occ. eigenvalues --   -0.46846  -0.45261  -0.42728  -0.40717  -0.40189
 Alpha  occ. eigenvalues --   -0.38823  -0.37923  -0.36080  -0.34654  -0.33231
 Alpha  occ. eigenvalues --   -0.32251  -0.31770  -0.31443  -0.30824  -0.30159
 Alpha  occ. eigenvalues --   -0.29686  -0.29237  -0.27359  -0.26005  -0.25163
 Alpha  occ. eigenvalues --   -0.24548  -0.23587  -0.22854  -0.22297  -0.21488
 Alpha  occ. eigenvalues --   -0.19647  -0.18613  -0.18239  -0.17058  -0.14282
 Alpha  occ. eigenvalues --   -0.13561  -0.13228  -0.11611   0.05166
 Alpha virt. eigenvalues --    0.06167   0.07475   0.07739   0.08278   0.09237
 Alpha virt. eigenvalues --    0.10175   0.10224   0.10843   0.10929   0.11208
 Alpha virt. eigenvalues --    0.12187   0.12710   0.12910   0.13728   0.14195

  Beta  occ. eigenvalues --  -88.92480 -18.98463 -18.98417 -14.20818 -14.20600
  Beta  occ. eigenvalues --  -14.19537 -10.10551 -10.10335 -10.09502 -10.08817
  Beta  occ. eigenvalues --  -10.06084 -10.04597 -10.04482 -10.04402 -10.04147
  Beta  occ. eigenvalues --  -10.03844 -10.02655  -7.98671  -5.94965  -5.94923
  Beta  occ. eigenvalues --   -5.94716  -0.98545  -0.87922  -0.84652  -0.79412
  Beta  occ. eigenvalues --   -0.77632  -0.72505  -0.66308  -0.62048  -0.61573
  Beta  occ. eigenvalues --   -0.59349  -0.57876  -0.54093  -0.50227  -0.48138
  Beta  occ. eigenvalues --   -0.46820  -0.44838  -0.42687  -0.40543  -0.40048
  Beta  occ. eigenvalues --   -0.38790  -0.37675  -0.35924  -0.34516  -0.33053
  Beta  occ. eigenvalues --   -0.32067  -0.31696  -0.31428  -0.30727  -0.30115
  Beta  occ. eigenvalues --   -0.29610  -0.29148  -0.27331  -0.25817  -0.25094
  Beta  occ. eigenvalues --   -0.23887  -0.23476  -0.22671  -0.21971  -0.21362
  Beta  occ. eigenvalues --   -0.19442  -0.18382  -0.18113  -0.16709  -0.14254
  Beta  occ. eigenvalues --   -0.12810  -0.12369  -0.10473
  Beta virt. eigenvalues --    0.06127   0.07683   0.08148   0.08277   0.09181
  Beta virt. eigenvalues --    0.10104   0.10226   0.10593   0.10994   0.11124
  Beta virt. eigenvalues --    0.11271   0.12474   0.12726   0.12967   0.13651

 Mulliken charges and spin densities:
               1          2
     1  C   -0.636875   0.005850
     2  C   -0.582506  -0.031860
     3  C    1.170421   0.259784
     4  C   -0.485989   0.018428
     5  C   -0.385642   0.159914
     6  C   -0.202281   0.313060
     7  C   -0.601186   0.122802
     8  C   -0.593891   0.092679
     9  S    0.901314  -0.637563
    10  O   -0.261098   0.019576
    11  O   -0.271668   0.019836
    12  N   -0.272198  -0.015366
    13  N    0.136403  -0.006371
    14  C   -0.262162   0.020301
    15  C   -0.439202  -0.073394
    16  N   -0.143982   0.015708
    17  C   -0.347506  -0.025812
    18  H    0.135085  -0.001063
    19  H    0.138511   0.004348
    20  H    0.128439   0.000165
    21  H    0.149595   0.003343
    22  H    0.096436   0.005669
    23  H    0.202012   0.007535
    24  H    0.201375   0.012586
    25  H    0.093435  -0.000812
    26  H   -0.034017   0.323896
    27  H   -0.021951   0.309869
    28  H    0.234668   0.001436
    29  H    0.171491  -0.001618
    30  H    0.094861   0.009534
    31  H    0.260173   0.028440
    32  H    0.197495   0.020886
    33  H    0.141942   0.001393
    34  H    0.088502   0.016822
 Sum of Mulliken charges =  -1.00000   1.00000

 Dipole moment (field-independent basis, Debye):
    X=             -8.8791    Y=             -0.3424    Z=             -1.0542  Tot=              8.9480
 Quadrupole moment (field-independent basis, Debye-Ang):
   XX=           -184.5474   YY=           -131.8464   ZZ=           -123.7989
   XY=              6.1817   XZ=              3.4329   YZ=              3.2745

 Summary of Natural Population Analysis:

                                       Natural Population
                Natural  -----------------------------------------------
    Atom  No    Charge         Core      Valence    Rydberg      Total
 -----------------------------------------------------------------------
      C    1   -0.27889      0.99965     2.27441    0.00483     3.27889
      C    2   -0.01473      0.99957     2.00405    0.01110     3.01473
      C    3    0.04647      0.99949     1.94151    0.01253     2.95353
      C    4   -0.11930      0.99952     2.11170    0.00808     3.11930
      C    5   -0.06083      0.99951     2.05198    0.00933     3.06083
      C    6   -0.09300      0.99936     2.07672    0.01692     3.09300
      C    7   -0.07929      0.99952     2.07035    0.00943     3.07929
      C    8   -0.11364      0.99952     2.10589    0.00823     3.11364
      S    9    1.10458      4.99926     1.79611    0.10005     6.89542
      O   10   -0.47366      0.99991     3.46790    0.00585     4.47366
      O   11   -0.47325      0.99991     3.46747    0.00587     4.47325
      N   12   -0.51372      0.99979     3.00248    0.01145     4.01372
      N   13   -0.33843      0.99972     2.82433    0.01438     3.83843
      C   14   -0.01004      0.99960     1.99944    0.01101     3.01004
      C   15   -0.09601      0.99965     2.08589    0.01047     3.09601
      N   16   -0.34733      0.99976     2.83636    0.01121     3.84733
      C   17   -0.08689      0.99965     2.07734    0.00990     3.08689
      H   18    0.09403      0.00000     0.40508    0.00089     0.40597
      H   19    0.09630      0.00000     0.40269    0.00101     0.40370
      H   20    0.10100      0.00000     0.39833    0.00066     0.39900
      H   21    0.08733      0.00000     0.41109    0.00158     0.41267
      H   22    0.09162      0.00000     0.40734    0.00104     0.40838
      H   23    0.10524      0.00000     0.39368    0.00108     0.39476
      H   24    0.10586      0.00000     0.39316    0.00098     0.39414
      H   25    0.09171      0.00000     0.40697    0.00132     0.40829
      H   26    0.19264      0.00000     0.30427    0.00309     0.30736
      H   27    0.19262      0.00000     0.30437    0.00301     0.30738
      H   28    0.17385      0.00000     0.32406    0.00210     0.32615
      H   29    0.09207      0.00000     0.40697    0.00096     0.40793
      H   30    0.08193      0.00000     0.41708    0.00098     0.41807
      H   31    0.10666      0.00000     0.39193    0.00141     0.39334
      H   32    0.16759      0.00000     0.32896    0.00345     0.33241
      H   33    0.08805      0.00000     0.40955    0.00241     0.41195
      H   34    0.07948      0.00000     0.41876    0.00176     0.42052
 =======================================================================
   * Total *    0.00000     20.99339    46.71822    0.28839    68.00000

 Normal termination of Gaussian 16 at Mon Dec 14 17:43:01 2020.
