 Gaussian 16, Revision A.03,

 -----------------------------------------------------------
 # opt freq B3LYP/6-31G(d) empiricaldispersion=gd3bj scf=xqc
 -----------------------------------------------------------

 ------------------------------
 CID_79630230_JID_2899_neutraal
 ------------------------------
 Symbolic Z-matrix:
 Charge =  0 Multiplicity = 1

 SCF Done:  E(RB3LYP) =  -918.528886710     A.U. after   14 cycles
 SCF Done:  E(RB3LYP) =  -918.531003832     A.U. after   12 cycles
 SCF Done:  E(RB3LYP) =  -918.524301422     A.U. after   14 cycles
 SCF Done:  E(RB3LYP) =  -918.530807904     A.U. after   12 cycles
 SCF Done:  E(RB3LYP) =  -918.532006056     A.U. after    9 cycles
 SCF Done:  E(RB3LYP) =  -918.531971932     A.U. after   12 cycles
 SCF Done:  E(RB3LYP) =  -918.532343026     A.U. after   12 cycles
 SCF Done:  E(RB3LYP) =  -918.532614730     A.U. after   11 cycles
 SCF Done:  E(RB3LYP) =  -918.532899268     A.U. after   11 cycles
 SCF Done:  E(RB3LYP) =  -918.532849752     A.U. after   12 cycles
 SCF Done:  E(RB3LYP) =  -918.537055590     A.U. after   10 cycles
 SCF Done:  E(RB3LYP) =  -918.537070137     A.U. after   10 cycles
 SCF Done:  E(RB3LYP) =  -918.537073397     A.U. after    8 cycles
 SCF Done:  E(RB3LYP) =  -918.537076462     A.U. after    9 cycles
 SCF Done:  E(RB3LYP) =  -918.537076873     A.U. after    8 cycles
 SCF Done:  E(RB3LYP) =  -918.537076908     A.U. after    7 cycles
 Optimization completed.
    -- Stationary point found.
 Normal termination of Gaussian 16 at Wed Dec  9 18:06:32 2020.

 --------------------------------------------------------------------
 #N Geom=AllCheck Guess=TCheck SCRF=Check GenChk RB3LYP/6-31G(d) Freq
 --------------------------------------------------------------------

 Structure from the checkpoint file:  "JID_2899.chk"
 ------------------------------
 CID_79630230_JID_2899_neutraal
 ------------------------------
 Charge =  0 Multiplicity = 1

 SCF Done:  E(RB3LYP) =  -918.537076908     A.U. after    1 cycles

  Exact polarizability: 129.323  -1.005 108.979   2.013  -0.735  99.340
 Approx polarizability: 164.559   2.134 157.851   1.796  -0.942 159.895

                      1                      2                      3
                      A                      A                      A
 Frequencies --     32.3574                46.9024                58.1408
 Red. masses --      4.7251                 5.6401                 5.5782
 Frc consts  --      0.0029                 0.0073                 0.0111
 IR Inten    --      0.1051                 0.4480                 0.2747

                      4                      5                      6
                      A                      A                      A
 Frequencies --     80.5089               100.0765               156.3248
 Red. masses --      3.8091                 4.1481                 4.1369
 Frc consts  --      0.0145                 0.0245                 0.0596
 IR Inten    --      0.5982                 2.3636                 0.4386

                      7                      8                      9
                      A                      A                      A
 Frequencies --    177.8919               215.0648               237.8136
 Red. masses --      2.6333                 2.0822                 2.4306
 Frc consts  --      0.0491                 0.0567                 0.0810
 IR Inten    --      9.8488                10.4690                 0.6105

                     10                     11                     12
                      A                      A                      A
 Frequencies --    239.7424               253.9469               281.3333
 Red. masses --      1.1475                 2.5004                 1.4541
 Frc consts  --      0.0389                 0.0950                 0.0678
 IR Inten    --      0.6022                10.1217                15.6309

                     13                     14                     15
                      A                      A                      A
 Frequencies --    286.2275               304.9406               335.1032
 Red. masses --      1.1832                 2.2543                 3.0014
 Frc consts  --      0.0571                 0.1235                 0.1986
 IR Inten    --      5.0542                 1.2518                 0.5001

                     16                     17                     18
                      A                      A                      A
 Frequencies --    368.8649               399.4546               420.9352
 Red. masses --      2.4595                 1.9219                 2.6537
 Frc consts  --      0.1972                 0.1807                 0.2770
 IR Inten    --      4.3053                11.1274                 1.2488

                     19                     20                     21
                      A                      A                      A
 Frequencies --    486.6602               511.6885               560.5366
 Red. masses --      2.3455                 3.8074                 3.8539
 Frc consts  --      0.3273                 0.5873                 0.7134
 IR Inten    --      1.5564                10.4448                19.5718

                     22                     23                     24
                      A                      A                      A
 Frequencies --    617.4525               655.7261               714.3579
 Red. masses --      1.2494                 4.2145                 4.1088
 Frc consts  --      0.2806                 1.0677                 1.2354
 IR Inten    --     88.1162                 4.9470                12.9452

                     25                     26                     27
                      A                      A                      A
 Frequencies --    757.7634               770.3677               783.0373
 Red. masses --      3.6189                 2.0653                 2.6555
 Frc consts  --      1.2243                 0.7221                 0.9593
 IR Inten    --      8.4227                11.8852                21.5517

                     28                     29                     30
                      A                      A                      A
 Frequencies --    847.4172               853.3752               866.8304
 Red. masses --      1.7586                 1.9613                 1.5571
 Frc consts  --      0.7441                 0.8415                 0.6893
 IR Inten    --     62.2662                15.0377                96.8460

                     31                     32                     33
                      A                      A                      A
 Frequencies --    914.9239               946.4351               960.6651
 Red. masses --      1.8963                 1.8001                 1.6476
 Frc consts  --      0.9353                 0.9500                 0.8959
 IR Inten    --      7.5633                14.5497                 1.2343

                     34                     35                     36
                      A                      A                      A
 Frequencies --    988.3957              1032.5342              1042.9427
 Red. masses --      1.7034                 1.7228                 1.3298
 Frc consts  --      0.9805                 1.0822                 0.8522
 IR Inten    --      2.3364                 9.3347                 1.6746

                     37                     38                     39
                      A                      A                      A
 Frequencies --   1066.8374              1122.5780              1138.7028
 Red. masses --      2.0721                 2.0585                 1.8553
 Frc consts  --      1.3895                 1.5284                 1.4173
 IR Inten    --     10.1874                 7.5006                57.8434

                     40                     41                     42
                      A                      A                      A
 Frequencies --   1155.2133              1182.5050              1190.1988
 Red. masses --      1.4384                 1.7443                 1.7804
 Frc consts  --      1.1310                 1.4371                 1.4859
 IR Inten    --     97.9466                81.0777                 5.4677

                     43                     44                     45
                      A                      A                      A
 Frequencies --   1220.5081              1258.7530              1279.6991
 Red. masses --      1.1948                 2.8207                 1.3205
 Frc consts  --      1.0486                 2.6332                 1.2741
 IR Inten    --      5.0193                 7.0645                 3.5226

                     46                     47                     48
                      A                      A                      A
 Frequencies --   1301.8042              1318.9147              1339.9295
 Red. masses --      1.4497                 1.3273                 1.3022
 Frc consts  --      1.4475                 1.3603                 1.3775
 IR Inten    --      8.7593                13.9482                 5.4698

                     49                     50                     51
                      A                      A                      A
 Frequencies --   1365.8657              1383.0985              1404.6341
 Red. masses --      1.1312                 2.3958                 1.4050
 Frc consts  --      1.2434                 2.7003                 1.6332
 IR Inten    --      9.7986                24.5050                 4.5539

                     52                     53                     54
                      A                      A                      A
 Frequencies --   1425.7906              1445.3472              1447.7983
 Red. masses --      1.2669                 1.2323                 1.4541
 Frc consts  --      1.5174                 1.5167                 1.7958
 IR Inten    --      3.7045                15.8629                 5.1285

                     55                     56                     57
                      A                      A                      A
 Frequencies --   1487.1190              1496.9170              1502.8123
 Red. masses --      1.0943                 1.0845                 1.0908
 Frc consts  --      1.4259                 1.4318                 1.4515
 IR Inten    --      2.7524                 3.5594                 5.4591

                     58                     59                     60
                      A                      A                      A
 Frequencies --   1514.6134              1521.4528              1528.9637
 Red. masses --      1.0557                 1.0477                 1.0512
 Frc consts  --      1.4269                 1.4289                 1.4478
 IR Inten    --      3.0716                 1.0740                 8.7244

                     61                     62                     63
                      A                      A                      A
 Frequencies --   1544.2195              1547.1574              1699.3107
 Red. masses --      1.0656                 1.0814                 1.0883
 Frc consts  --      1.4971                 1.5252                 1.8517
 IR Inten    --     18.4768                 1.5497                20.3125

                     64                     65                     66
                      A                      A                      A
 Frequencies --   1846.5760              2979.4717              3045.2859
 Red. masses --     10.0116                 1.0728                 1.0614
 Frc consts  --     20.1135                 5.6113                 5.7997
 IR Inten    --    246.6545                52.5633                23.1893

                     67                     68                     69
                      A                      A                      A
 Frequencies --   3052.3312              3057.9919              3078.8207
 Red. masses --      1.0361                 1.0411                 1.0861
 Frc consts  --      5.6874                 5.7361                 6.0661
 IR Inten    --     16.8732                22.8188                50.5600

                     70                     71                     72
                      A                      A                      A
 Frequencies --   3082.3713              3093.7337              3095.6230
 Red. masses --      1.0671                 1.0991                 1.0598
 Frc consts  --      5.9732                 6.1981                 5.9836
 IR Inten    --     16.0865                26.0854                12.4682

                     73                     74                     75
                      A                      A                      A
 Frequencies --   3121.3289              3131.4615              3133.8390
 Red. masses --      1.1019                 1.1030                 1.0958
 Frc consts  --      6.3254                 6.3724                 6.3408
 IR Inten    --     17.1848                19.6811                17.3148

                     76                     77                     78
                      A                      A                      A
 Frequencies --   3137.2593              3148.9002              3156.5783
 Red. masses --      1.1026                 1.1052                 1.1025
 Frc consts  --      6.3938                 6.4566                 6.4721
 IR Inten    --     18.4928                 8.0851                15.2382

                     79                     80                     81
                      A                      A                      A
 Frequencies --   3475.0114              3559.1640              3690.4169
 Red. masses --      1.0494                 1.0922                 1.0641
 Frc consts  --      7.4661                 8.1515                 8.5387
 IR Inten    --      2.2518                 0.9230                58.2230

 - Thermochemistry -
 -------------------
 Temperature   298.150 Kelvin.  Pressure   1.00000 Atm.
 Atom     1 has atomic number  6 and mass  12.00000

 Molecular mass:   191.09800 amu.
 Principal axes and moments of inertia in atomic units:
                           1         2         3
     Eigenvalues --  1346.319673974.125544424.78211
           X            0.99992  -0.01258   0.00218
           Y            0.01263   0.99966  -0.02297
           Z           -0.00189   0.02300   0.99973
 This molecule is an asymmetric top.
 Rotational symmetry number  1.
 Warning -- assumption of classical behavior for rotation
           may cause significant error
 Rotational temperatures (Kelvin)      0.06433     0.02179     0.01957
 Rotational constants (GHZ):           1.34050     0.45412     0.40787
 Zero-point vibrational energy     664427.8 (Joules/Mol)
                                  158.80205 (Kcal/Mol)
 Warning -- explicit consideration of  22 degrees of freedom as
           vibrations may cause significant error
 Vibrational temperatures:     46.56    67.48    83.65   115.83   143.99
          (Kelvin)            224.92   255.95   309.43   342.16   344.94
                              365.37   404.78   411.82   438.74   482.14
                              530.71   574.73   605.63   700.20   736.21
                              806.49   888.38   943.44  1027.80  1090.25
                             1108.39  1126.62  1219.24  1227.82  1247.18
                             1316.37  1361.71  1382.18  1422.08  1485.59
                             1500.56  1534.94  1615.14  1638.34  1662.09
                             1701.36  1712.43  1756.04  1811.06  1841.20
                             1873.01  1897.62  1927.86  1965.18  1989.97
                             2020.96  2051.39  2079.53  2083.06  2139.63
                             2153.73  2162.21  2179.19  2189.03  2199.84
                             2221.79  2226.01  2444.93  2656.81  4286.80
                             4381.49  4391.62  4399.77  4429.74  4434.84
                             4451.19  4453.91  4490.90  4505.47  4508.90
                             4513.82  4530.57  4541.61  4999.77  5120.84
                             5309.69

 Zero-point correction=                           0.253067 (Hartree/Particle)
 Thermal correction to Energy=                    0.267804
 Thermal correction to Enthalpy=                  0.268748
 Thermal correction to Gibbs Free Energy=         0.210810
 Sum of electronic and zero-point Energies=           -918.284010
 Sum of electronic and thermal Energies=              -918.269273
 Sum of electronic and thermal Enthalpies=            -918.268329
 Sum of electronic and thermal Free Energies=         -918.326267

                     E (Thermal)             CV                S
                      KCal/Mol        Cal/Mol-Kelvin    Cal/Mol-Kelvin
 Total                  168.050             54.009            121.941
 Electronic               0.000              0.000              0.000
 Translational            0.889              2.981             41.648
 Rotational               0.889              2.981             31.538
 Vibrational            166.272             48.047             48.755
 Vibration     1          0.594              1.983              5.679
 Vibration     2          0.595              1.979              4.944
 Vibration     3          0.596              1.974              4.519
 Vibration     4          0.600              1.962              3.878
 Vibration     5          0.604              1.949              3.453
 Vibration     6          0.620              1.896              2.594
 Vibration     7          0.628              1.870              2.350
 Vibration     8          0.645              1.818              2.000
 Vibration     9          0.656              1.783              1.819
 Vibration    10          0.657              1.780              1.805
 Vibration    11          0.665              1.756              1.703
 Vibration    12          0.681              1.708              1.526
 Vibration    13          0.684              1.699              1.496
 Vibration    14          0.696              1.664              1.390
 Vibration    15          0.716              1.605              1.235
 Vibration    16          0.741              1.536              1.085
 Vibration    17          0.766              1.471              0.965
 Vibration    18          0.783              1.425              0.889
 Vibration    19          0.843              1.280              0.692
 Vibration    20          0.867              1.224              0.630
 Vibration    21          0.916              1.117              0.523
 Vibration    22          0.977              0.995              0.421

                           ! Non-Optimized Parameters !
 Normal termination of Gaussian 16 at Wed Dec  9 18:13:27 2020.

 ----------------------------------------------------------------------
 # B3LYP/6-311++G(d,p) empiricaldispersion=gd3bj scf=xqc pop=npa geom=c
 heck
 ----------------------------------------------------------------------

 --------------------------------------
 CID_79630230_JID_2899_Energie_neutraal
 --------------------------------------
 Structure from the checkpoint file:  "JID_2899.chk"
 Charge =  0 Multiplicity = 1

 SCF Done:  E(RB3LYP) =  -918.733500500     A.U. after   14 cycles
 Normal termination of Gaussian 16 at Wed Dec  9 18:16:52 2020.

 ----------------------------------------------------------------------
 # B3LYP/6-311++G(d,p) empiricaldispersion=gd3bj scf=xqc pop=npa geom=c
 heck
 ----------------------------------------------------------------------

 ------------------------------------
 CID_79630230_JID_2899_Energie_kation
 ------------------------------------
 Structure from the checkpoint file:  "JID_2899.chk"
 Charge =  1 Multiplicity = 2

 SCF Done:  E(UB3LYP) =  -918.429859069     A.U. after   21 cycles
 Normal termination of Gaussian 16 at Wed Dec  9 18:22:29 2020.
 Gaussian 16:  ES64L-G16RevA.03 25-Dec-2016

 ----------------------------------------------------------------------
 # B3LYP/6-311++G(d,p) empiricaldispersion=gd3bj scf=xqc pop=npa geom=c
 heck
 ----------------------------------------------------------------------

 -----------------------------------
 CID_79630230_JID_2899_Energie_anion
 -----------------------------------
 Structure from the checkpoint file:  "JID_2899.chk"
 Charge = -1 Multiplicity = 2

                         Standard orientation:
 ---------------------------------------------------------------------
 Center     Atomic      Atomic             Coordinates (Angstroms)
 Number     Number       Type             X           Y           Z
 ---------------------------------------------------------------------
      1          6           0       -1.028683    0.985153    1.538281
      2          6           0       -1.405371    0.714652    0.078250
      3          6           0       -1.943265    2.007231   -0.578086
      4          6           0       -0.200167    0.221207   -0.750665
      5         16           0        0.462165   -1.427185   -0.277085
      6          6           0        1.828805   -1.026334    0.892481
      7          6           0        3.201727   -0.822271    0.241159
      8          6           0        3.310926    0.394297   -0.677238
      9          7           0        3.132298    1.643675    0.074702
     10          6           0       -2.528155   -0.320638    0.044652
     11          8           0       -3.210814   -0.654223    0.986056
     12          8           0       -2.730459   -0.813464   -1.205085
     13          1           0       -0.231424    1.736404    1.587677
     14          1           0       -0.688308    0.071325    2.030992
     15          1           0       -1.891048    1.358563    2.095543
     16          1           0       -1.167979    2.781721   -0.563211
     17          1           0       -2.238461    1.832558   -1.616968
     18          1           0       -2.811393    2.387692   -0.029699
     19          1           0       -0.490904    0.126570   -1.798985
     20          1           0        0.600287    0.963861   -0.700325
     21          1           0        1.539492   -0.167182    1.503345
     22          1           0        1.869459   -1.884966    1.570061
     23          1           0        3.943402   -0.718541    1.044109
     24          1           0        3.456188   -1.721276   -0.332374
     25          1           0        4.319216    0.416676   -1.106311
     26          1           0        2.612250    0.268423   -1.522035
     27          1           0        3.253497    2.442342   -0.545166
     28          1           0        2.183124    1.709315    0.437323
     29          1           0       -3.462839   -1.452540   -1.124303
 ---------------------------------------------------------------------

 SCF Done:  E(UB3LYP) =  -918.721095807     A.U. after   31 cycles

 The electronic state is 2-A.
 Alpha  occ. eigenvalues --  -88.74050 -19.07310 -19.02021 -14.19153 -10.20862
 Alpha  occ. eigenvalues --  -10.10768 -10.10515 -10.10243 -10.09299 -10.07666
 Alpha  occ. eigenvalues --  -10.06960 -10.06595  -7.82663  -5.79063  -5.78683
 Alpha  occ. eigenvalues --   -5.78033  -1.01445  -0.92547  -0.78472  -0.74459
 Alpha  occ. eigenvalues --   -0.70147  -0.64411  -0.60020  -0.58829  -0.56437
 Alpha  occ. eigenvalues --   -0.52547  -0.47358  -0.46438  -0.40468  -0.39974
 Alpha  occ. eigenvalues --   -0.38979  -0.38545  -0.36862  -0.34712  -0.34207
 Alpha  occ. eigenvalues --   -0.33197  -0.32810  -0.32248  -0.30801  -0.29380
 Alpha  occ. eigenvalues --   -0.28883  -0.27127  -0.26795  -0.26157  -0.25695
 Alpha  occ. eigenvalues --   -0.25052  -0.23393  -0.22983  -0.20697  -0.18463
 Alpha  occ. eigenvalues --   -0.14692  -0.12925   0.04469
 Alpha virt. eigenvalues --    0.06272   0.07110   0.07692   0.08901   0.08968
 Alpha virt. eigenvalues --    0.09487   0.09844   0.10436   0.10847   0.11686
 Alpha virt. eigenvalues --    0.12297   0.12841   0.12917   0.13612   0.13828

  Beta  occ. eigenvalues --  -88.74046 -19.07270 -19.02009 -14.19099 -10.20862
  Beta  occ. eigenvalues --  -10.10763 -10.10507 -10.10216 -10.09278 -10.07660
  Beta  occ. eigenvalues --  -10.06915 -10.06573  -7.82659  -5.79057  -5.78676
  Beta  occ. eigenvalues --   -5.78031  -1.01399  -0.92506  -0.78392  -0.74432
  Beta  occ. eigenvalues --   -0.70115  -0.64369  -0.59964  -0.58761  -0.56356
  Beta  occ. eigenvalues --   -0.52489  -0.47307  -0.46359  -0.40420  -0.39941
  Beta  occ. eigenvalues --   -0.38933  -0.38503  -0.36814  -0.34671  -0.34173
  Beta  occ. eigenvalues --   -0.33158  -0.32758  -0.32204  -0.30772  -0.29334
  Beta  occ. eigenvalues --   -0.28853  -0.27078  -0.26762  -0.26121  -0.25664
  Beta  occ. eigenvalues --   -0.25017  -0.23361  -0.22952  -0.20663  -0.18412
  Beta  occ. eigenvalues --   -0.14646  -0.12909
  Beta virt. eigenvalues --    0.06772   0.07292   0.07946   0.08062   0.09024
  Beta virt. eigenvalues --    0.09482   0.09813   0.09999   0.10780   0.11165
  Beta virt. eigenvalues --    0.11927   0.12841   0.12945   0.13150   0.13895

 Mulliken charges and spin densities:
               1          2
     1  C    0.230323  -0.983236
     2  C   -0.466053   1.172714
     3  C    0.609912  -1.169818
     4  C    0.049221  -0.603412
     5  S   -0.079133   0.148121
     6  C   -0.467705   0.187401
     7  C    0.083074  -0.447592
     8  C    0.343381  -0.775741
     9  N   -0.336926  -0.025308
    10  C    0.260068  -0.486488
    11  O   -0.278174   0.015957
    12  O   -0.201037   0.077060
    13  H   -0.068284   0.226963
    14  H    0.074733   0.098050
    15  H    0.089756   0.091918
    16  H   -0.575013   0.741414
    17  H   -0.294421   0.455724
    18  H   -0.071824   0.225658
    19  H    0.063614   0.235420
    20  H    0.455856  -0.272526
    21  H    0.027233   0.089781
    22  H    0.136423   0.077533
    23  H   -0.011339   0.167461
    24  H    0.090223   0.030805
    25  H   -0.230990   0.409030
    26  H   -0.211467   0.339934
    27  H   -0.379681   0.640083
    28  H    0.356685  -0.163043
    29  H   -0.198453   0.496137
 Sum of Mulliken charges =  -1.00000   1.00000

 Dipole moment (field-independent basis, Debye):
    X=              0.1092    Y=             -4.7239    Z=              2.5580  Tot=              5.3732
 Quadrupole moment (field-independent basis, Debye-Ang):
   XX=           -152.6753   YY=           -130.4364   ZZ=           -115.3547
   XY=            -15.4042   XZ=              1.3368   YZ=              3.0368

 Summary of Natural Population Analysis:

                                       Natural Population
                Natural  -----------------------------------------------
    Atom  No    Charge         Core      Valence    Rydberg      Total
 -----------------------------------------------------------------------
      C    1   -0.28682      0.99963     2.27888    0.00831     3.28682
      C    2   -0.09036      0.99951     2.07603    0.01483     3.09036
      C    3   -0.28114      0.99962     2.27353    0.00799     3.28114
      C    4   -0.25166      0.99953     2.23902    0.01311     3.25166
      S    5    0.08382      4.99962     2.90045    0.01611     7.91618
      C    6   -0.25204      0.99958     2.24328    0.00919     3.25204
      C    7   -0.19760      0.99961     2.18926    0.00873     3.19760
      C    8   -0.09431      0.99963     2.08225    0.01243     3.09431
      N    9   -0.42446      0.99977     2.91356    0.01112     3.92446
      C   10    0.41895      0.99963     1.55378    0.02765     2.58105
      O   11   -0.30636      0.99987     3.30017    0.00633     4.30636
      O   12   -0.34725      0.99987     3.33996    0.00741     4.34725
      H   13    0.09888      0.00000     0.39977    0.00135     0.40112
      H   14    0.10594      0.00000     0.39308    0.00098     0.39406
      H   15    0.10822      0.00000     0.39093    0.00085     0.39178
      H   16    0.10698      0.00000     0.39082    0.00221     0.39302
      H   17    0.10725      0.00000     0.39102    0.00173     0.39275
      H   18    0.10313      0.00000     0.39560    0.00127     0.39687
      H   19    0.11641      0.00000     0.38174    0.00185     0.38359
      H   20    0.10809      0.00000     0.38907    0.00285     0.39191
      H   21    0.10360      0.00000     0.39490    0.00151     0.39640
      H   22    0.10450      0.00000     0.39458    0.00092     0.39550
      H   23    0.09974      0.00000     0.39890    0.00137     0.40026
      H   24    0.09808      0.00000     0.40064    0.00128     0.40192
      H   25    0.09244      0.00000     0.40626    0.00130     0.40756
      H   26    0.08213      0.00000     0.41587    0.00200     0.41787
      H   27    0.18214      0.00000     0.31315    0.00471     0.31786
      H   28    0.17009      0.00000     0.32693    0.00298     0.32991
      H   29    0.24162      0.00000     0.25064    0.00774     0.25838
 =======================================================================
   * Total *    0.00000     15.99587    35.82407    0.18006    52.00000

 Normal termination of Gaussian 16 at Wed Dec  9 18:30:28 2020.
