 Gaussian 16, Revision A.03,

 -----------------------------------------------------------
 # opt freq B3LYP/6-31G(d) empiricaldispersion=gd3bj scf=xqc
 -----------------------------------------------------------

 ------------------------------
 CID_35767405_JID_1611_neutraal
 ------------------------------
 Symbolic Z-matrix:
 Charge =  0 Multiplicity = 1

 SCF Done:  E(RB3LYP) =  -531.555703588     A.U. after   15 cycles
 SCF Done:  E(RB3LYP) =  -531.561408382     A.U. after   13 cycles
 SCF Done:  E(RB3LYP) =  -531.562813050     A.U. after   13 cycles
 SCF Done:  E(RB3LYP) =  -531.565414937     A.U. after   15 cycles
 SCF Done:  E(RB3LYP) =  -531.566245523     A.U. after   13 cycles
 SCF Done:  E(RB3LYP) =  -531.564126274     A.U. after   14 cycles
 SCF Done:  E(RB3LYP) =  -531.567243663     A.U. after   12 cycles
 SCF Done:  E(RB3LYP) =  -531.567824936     A.U. after   12 cycles
 SCF Done:  E(RB3LYP) =  -531.568138355     A.U. after   12 cycles
 SCF Done:  E(RB3LYP) =  -531.568201897     A.U. after   12 cycles
 SCF Done:  E(RB3LYP) =  -531.568815971     A.U. after   12 cycles
 SCF Done:  E(RB3LYP) =  -531.568844384     A.U. after   12 cycles
 SCF Done:  E(RB3LYP) =  -531.568851577     A.U. after   10 cycles
 SCF Done:  E(RB3LYP) =  -531.568853997     A.U. after   10 cycles
 SCF Done:  E(RB3LYP) =  -531.568854091     A.U. after    9 cycles
 SCF Done:  E(RB3LYP) =  -531.568854348     A.U. after    9 cycles
 Optimization completed.
    -- Stationary point found.
 Normal termination of Gaussian 16 at Tue Dec  8 19:45:16 2020.

 --------------------------------------------------------------------
 #N Geom=AllCheck Guess=TCheck SCRF=Check GenChk RB3LYP/6-31G(d) Freq
 --------------------------------------------------------------------

 Structure from the checkpoint file:  "JID_1611.chk"
 ------------------------------
 CID_35767405_JID_1611_neutraal
 ------------------------------
 Charge =  0 Multiplicity = 1

 SCF Done:  E(RB3LYP) =  -531.568854348     A.U. after    1 cycles

  Exact polarizability: 107.729  -2.783 101.323   9.615   2.196  51.019
 Approx polarizability: 155.923  -6.484 192.086  20.333  -0.598  77.006

                      1                      2                      3
                      A                      A                      A
 Frequencies --     53.4405                77.0281               109.3434
 Red. masses --      8.7656                 5.3673                 4.2326
 Frc consts  --      0.0147                 0.0188                 0.0298
 IR Inten    --      4.1373                 3.8166                 1.9007

                      4                      5                      6
                      A                      A                      A
 Frequencies --    210.0714               271.1676               292.3357
 Red. masses --      6.5584                 5.0891                 5.6126
 Frc consts  --      0.1705                 0.2205                 0.2826
 IR Inten    --     13.8683                 1.1668                 6.6123

                      7                      8                      9
                      A                      A                      A
 Frequencies --    425.1708               434.9075               463.7945
 Red. masses --      3.4204                 2.4786                 1.8798
 Frc consts  --      0.3643                 0.2762                 0.2382
 IR Inten    --     11.7408                18.9194                24.6806

                     10                     11                     12
                      A                      A                      A
 Frequencies --    510.3421               525.9221               556.2089
 Red. masses --      1.9173                 2.8509                 3.2139
 Frc consts  --      0.2942                 0.4646                 0.5858
 IR Inten    --    210.1719                13.2975                30.3575

                     13                     14                     15
                      A                      A                      A
 Frequencies --    568.8383               602.5706               680.3263
 Red. masses --      4.7470                 6.0031                 2.0931
 Frc consts  --      0.9050                 1.2842                 0.5708
 IR Inten    --     26.0309                 2.0267                31.5123

                     16                     17                     18
                      A                      A                      A
 Frequencies --    736.1155               753.0151               766.0903
 Red. masses --      2.5241                 1.7073                 1.5524
 Frc consts  --      0.8059                 0.5704                 0.5368
 IR Inten    --      2.2311                 6.9656                50.2717

                     19                     20                     21
                      A                      A                      A
 Frequencies --    803.7084               856.6113               888.1142
 Red. masses --      3.6662                 1.5947                 4.2299
 Frc consts  --      1.3953                 0.6894                 1.9657
 IR Inten    --      2.7890                13.4823                 1.3260

                     22                     23                     24
                      A                      A                      A
 Frequencies --    901.1622               932.5257               972.5415
 Red. masses --      5.1619                 1.3219                 2.1929
 Frc consts  --      2.4698                 0.6773                 1.2220
 IR Inten    --      8.6244                 0.3233                12.5967

                     25                     26                     27
                      A                      A                      A
 Frequencies --   1002.8509              1048.2667              1124.0329
 Red. masses --      1.2825                 2.3843                 1.9733
 Frc consts  --      0.7599                 1.5437                 1.4690
 IR Inten    --      0.0779                 1.4461                 3.2789

                     28                     29                     30
                      A                      A                      A
 Frequencies --   1164.5432              1176.6640              1199.1926
 Red. masses --      1.7550                 1.4118                 1.9947
 Frc consts  --      1.4023                 1.1517                 1.6901
 IR Inten    --      5.7783                15.4843                13.2708

                     31                     32                     33
                      A                      A                      A
 Frequencies --   1231.3790              1265.4448              1356.2606
 Red. masses --      1.4300                 1.9364                 1.5363
 Frc consts  --      1.2775                 1.8270                 1.6650
 IR Inten    --     15.2494                 6.1674                16.6414

                     34                     35                     36
                      A                      A                      A
 Frequencies --   1382.1588              1401.5720              1441.3752
 Red. masses --      1.6409                 2.1801                 2.0598
 Frc consts  --      1.8470                 2.5232                 2.5214
 IR Inten    --     26.3581                43.0533                 9.2751

                     37                     38                     39
                      A                      A                      A
 Frequencies --   1489.7837              1514.8349              1592.1708
 Red. masses --      1.2067                 1.9548                 5.7957
 Frc consts  --      1.5779                 2.6429                 8.6563
 IR Inten    --     13.1408                 9.9092                81.2930

                     40                     41                     42
                      A                      A                      A
 Frequencies --   1640.4072              1667.0090              1743.9806
 Red. masses --      1.6115                 3.0492                 6.6638
 Frc consts  --      2.5550                 4.9925                11.9414
 IR Inten    --    274.7244                30.9515               306.3696

                     43                     44                     45
                      A                      A                      A
 Frequencies --   1819.3614              3116.4366              3182.1206
 Red. masses --      9.1663                 1.0585                 1.1088
 Frc consts  --     17.8764                 6.0572                 6.6154
 IR Inten    --    335.6221                10.1382                 2.2073

                     46                     47                     48
                      A                      A                      A
 Frequencies --   3197.1995              3230.1666              3237.2756
 Red. masses --      1.0893                 1.0890                 1.0936
 Frc consts  --      6.5605                 6.6945                 6.7523
 IR Inten    --     12.5191                 0.1886                 3.5315

                     49                     50                     51
                      A                      A                      A
 Frequencies --   3247.2993              3484.9633              3669.3263
 Red. masses --      1.0983                 1.0552                 1.0970
 Frc consts  --      6.8238                 7.5506                 8.7025
 IR Inten    --      3.5105               136.8758                75.5492

 - Thermochemistry -
 -------------------
 Temperature   298.150 Kelvin.  Pressure   1.00000 Atm.
 Atom     1 has atomic number  6 and mass  12.00000

 Molecular mass:   152.05858 amu.
 Principal axes and moments of inertia in atomic units:
                           1         2         3
     Eigenvalues --   876.577072074.927862645.41934
           X            0.99970  -0.02306   0.00849
           Y            0.02285   0.99943   0.02465
           Z           -0.00905  -0.02445   0.99966
 This molecule is an asymmetric top.
 Rotational symmetry number  1.
 Warning -- assumption of classical behavior for rotation
           may cause significant error
 Rotational temperatures (Kelvin)      0.09881     0.04174     0.03274
 Rotational constants (GHZ):           2.05885     0.86979     0.68221
 Zero-point vibrational energy     394871.9 (Joules/Mol)
                                   94.37665 (Kcal/Mol)
 Warning -- explicit consideration of  14 degrees of freedom as
           vibrations may cause significant error
 Vibrational temperatures:     76.89   110.83   157.32   302.25   390.15
          (Kelvin)            420.61   611.73   625.73   667.30   734.27
                              756.68   800.26   818.43   866.96   978.84
                             1059.11  1083.42  1102.23  1156.36  1232.47
                             1277.80  1296.57  1341.70  1399.27  1442.88
                             1508.22  1617.23  1675.52  1692.96  1725.37
                             1771.68  1820.69  1951.36  1988.62  2016.55
                             2073.82  2143.47  2179.51  2290.78  2360.18
                             2398.45  2509.20  2617.66  4483.86  4578.36
                             4600.06  4647.49  4657.72  4672.14  5014.08
                             5279.34

 Zero-point correction=                           0.150399 (Hartree/Particle)
 Thermal correction to Energy=                    0.159712
 Thermal correction to Enthalpy=                  0.160656
 Thermal correction to Gibbs Free Energy=         0.115211
 Sum of electronic and zero-point Energies=           -531.418456
 Sum of electronic and thermal Energies=              -531.409142
 Sum of electronic and thermal Enthalpies=            -531.408198
 Sum of electronic and thermal Free Energies=         -531.453644

                     E (Thermal)             CV                S
                      KCal/Mol        Cal/Mol-Kelvin    Cal/Mol-Kelvin
 Total                  100.221             35.795             95.648
 Electronic               0.000              0.000              0.000
 Translational            0.889              2.981             40.967
 Rotational               0.889              2.981             29.955
 Vibrational             98.443             29.833             24.727
 Vibration     1          0.596              1.976              4.686
 Vibration     2          0.599              1.964              3.965
 Vibration     3          0.606              1.942              3.281
 Vibration     4          0.642              1.825              2.043
 Vibration     5          0.675              1.726              1.589
 Vibration     6          0.688              1.688              1.460
 Vibration     7          0.787              1.415              0.875
 Vibration     8          0.796              1.394              0.843
 Vibration     9          0.821              1.330              0.755
 Vibration    10          0.865              1.227              0.633
 Vibration    11          0.881              1.193              0.596
 Vibration    12          0.912              1.126              0.531
 Vibration    13          0.925              1.099              0.506
 Vibration    14          0.961              1.026              0.445

 Optimization completed.
    -- Stationary point found.
 Normal termination of Gaussian 16 at Tue Dec  8 19:48:45 2020.

 ----------------------------------------------------------------------
 # B3LYP/6-311++G(d,p) empiricaldispersion=gd3bj scf=xqc pop=npa geom=c
 heck
 ----------------------------------------------------------------------

 --------------------------------------
 CID_35767405_JID_1611_Energie_neutraal
 --------------------------------------
 Structure from the checkpoint file:  "JID_1611.chk"
 Charge =  0 Multiplicity = 1

 SCF Done:  E(RB3LYP) =  -531.729878690     A.U. after   15 cycles
 Normal termination of Gaussian 16 at Tue Dec  8 19:50:38 2020.

 ----------------------------------------------------------------------
 # B3LYP/6-311++G(d,p) empiricaldispersion=gd3bj scf=xqc pop=npa geom=c
 heck
 ----------------------------------------------------------------------

 ------------------------------------
 CID_35767405_JID_1611_Energie_kation
 ------------------------------------
 Structure from the checkpoint file:  "JID_1611.chk"
 Charge =  1 Multiplicity = 2

 SCF Done:  E(UB3LYP) =  -531.418431363     A.U. after   22 cycles
 Normal termination of Gaussian 16 at Tue Dec  8 19:53:20 2020.
 Gaussian 16:  ES64L-G16RevA.03 25-Dec-2016

 ----------------------------------------------------------------------
 # B3LYP/6-311++G(d,p) empiricaldispersion=gd3bj scf=xqc pop=npa geom=c
 heck
 ----------------------------------------------------------------------

 -----------------------------------
 CID_35767405_JID_1611_Energie_anion
 -----------------------------------
 Structure from the checkpoint file:  "JID_1611.chk"
 Charge = -1 Multiplicity = 2

                         Standard orientation:
 ---------------------------------------------------------------------
 Center     Atomic      Atomic             Coordinates (Angstroms)
 Number     Number       Type             X           Y           Z
 ---------------------------------------------------------------------
      1          6           0        2.814364   -0.192556    0.491444
      2          6           0        2.154027    0.983733    0.266209
      3          6           0        0.793932    1.011846   -0.207984
      4          8           0        0.107507    2.031669   -0.373539
      5          7           0        0.243237   -0.259778   -0.488764
      6          6           0        0.904587   -1.429508   -0.241267
      7          6           0        2.180042   -1.438637    0.244395
      8          6           0       -1.126045   -0.294186   -1.017046
      9          6           0       -2.162428   -0.276916    0.121479
     10          8           0       -2.754264   -1.293600    0.454774
     11          7           0       -2.325375    0.945485    0.687080
     12          1           0        3.833537   -0.176311    0.868167
     13          1           0        2.608467    1.948988    0.456450
     14          1           0        0.345479   -2.332997   -0.455180
     15          1           0        2.682868   -2.380000    0.427555
     16          1           0       -1.244292    0.571014   -1.671680
     17          1           0       -1.262312   -1.217698   -1.578522
     18          1           0       -1.671353    1.689477    0.451831
     19          1           0       -2.894250    1.010355    1.519913
 ---------------------------------------------------------------------

 SCF Done:  E(UB3LYP) =  -531.730996290     A.U. after   30 cycles

 The electronic state is 2-A.
 Alpha  occ. eigenvalues --  -18.96992 -18.92776 -14.20647 -14.20565 -10.14917
 Alpha  occ. eigenvalues --  -10.10682 -10.07963 -10.04431 -10.01615 -10.00938
 Alpha  occ. eigenvalues --   -9.99446  -0.91816  -0.88275  -0.80525  -0.78338
 Alpha  occ. eigenvalues --   -0.66488  -0.59405  -0.58492  -0.48601  -0.47993
 Alpha  occ. eigenvalues --   -0.44703  -0.41844  -0.37838  -0.36149  -0.34160
 Alpha  occ. eigenvalues --   -0.32361  -0.30677  -0.29642  -0.27503  -0.26932
 Alpha  occ. eigenvalues --   -0.26690  -0.26301  -0.22755  -0.21110  -0.19122
 Alpha  occ. eigenvalues --   -0.15851  -0.15390  -0.12847  -0.11143  -0.06997
 Alpha  occ. eigenvalues --    0.06015
 Alpha virt. eigenvalues --    0.09251   0.09791   0.10411   0.11271   0.12454
 Alpha virt. eigenvalues --    0.12822   0.13271   0.14899   0.15166   0.15293
 Alpha virt. eigenvalues --    0.16259   0.17207   0.18200   0.19140   0.20235

  Beta  occ. eigenvalues --  -18.96981 -18.92693 -14.20637 -14.20233 -10.14869
  Beta  occ. eigenvalues --  -10.10659 -10.07973 -10.04000 -10.01750 -10.00551
  Beta  occ. eigenvalues --   -9.99217  -0.91769  -0.88031  -0.80025  -0.78283
  Beta  occ. eigenvalues --   -0.66012  -0.58862  -0.58154  -0.48109  -0.47727
  Beta  occ. eigenvalues --   -0.44321  -0.41790  -0.37592  -0.35936  -0.33834
  Beta  occ. eigenvalues --   -0.32048  -0.30436  -0.29384  -0.27372  -0.26703
  Beta  occ. eigenvalues --   -0.26503  -0.25623  -0.22584  -0.20885  -0.18011
  Beta  occ. eigenvalues --   -0.15574  -0.14702  -0.11547  -0.10948  -0.05604
  Beta virt. eigenvalues --    0.09230   0.09703   0.10456   0.11144   0.12492
  Beta virt. eigenvalues --    0.12649   0.12829   0.13796   0.14979   0.15335
  Beta virt. eigenvalues --    0.15405   0.16584   0.17226   0.18169   0.19015

 Mulliken charges and spin densities:
               1          2
     1  C   -0.386958   0.195533
     2  C    0.073537   0.172245
     3  C   -0.241326   0.059229
     4  O   -0.459360   0.021568
     5  N    0.184006   0.102724
     6  C   -0.354403   0.358502
     7  C   -0.002179  -0.131177
     8  C   -0.083933  -0.325637
     9  C    0.158061   0.071598
    10  O   -0.373607   0.009751
    11  N   -0.343189  -0.007761
    12  H    0.093823  -0.025407
    13  H    0.124088  -0.010500
    14  H    0.080012   0.004173
    15  H    0.048579   0.078271
    16  H    0.163430   0.030534
    17  H   -0.210637   0.389675
    18  H    0.276445   0.007516
    19  H    0.253611  -0.000836
 Sum of Mulliken charges =  -1.00000   1.00000

 Dipole moment (field-independent basis, Debye):
    X=             -1.3458    Y=              0.8456    Z=              1.1405  Tot=              1.9563
 Quadrupole moment (field-independent basis, Debye-Ang):
   XX=            -92.6178   YY=            -87.4160   ZZ=            -75.8422
   XY=             -8.5864   XZ=             -0.5747   YZ=              2.3237

 Summary of Natural Population Analysis:

                                       Natural Population
                Natural  -----------------------------------------------
    Atom  No    Charge         Core      Valence    Rydberg      Total
 -----------------------------------------------------------------------
      C    1   -0.01226      0.99957     2.00347    0.00922     3.01226
      C    2   -0.12367      0.99953     2.11473    0.00941     3.12367
      C    3    0.31511      0.99960     1.66135    0.02394     2.68489
      O    4   -0.37160      0.99987     3.36559    0.00613     4.37160
      N    5   -0.18508      0.99962     2.67535    0.01010     3.68508
      C    6    0.10965      0.99957     1.87834    0.01243     2.89035
      C    7   -0.18271      0.99957     2.17364    0.00949     3.18271
      C    8   -0.12734      0.99958     2.11579    0.01197     3.12734
      C    9    0.33495      0.99972     1.63903    0.02631     2.66505
      O   10   -0.32916      0.99987     3.32278    0.00651     4.32916
      N   11   -0.40879      0.99969     2.90278    0.00632     3.90879
      H   12    0.08316      0.00000     0.41521    0.00163     0.41684
      H   13    0.09290      0.00000     0.40573    0.00137     0.40710
      H   14    0.08941      0.00000     0.40954    0.00104     0.41059
      H   15    0.09594      0.00000     0.40315    0.00092     0.40406
      H   16    0.11188      0.00000     0.38660    0.00152     0.38812
      H   17    0.10598      0.00000     0.39231    0.00172     0.39402
      H   18    0.21572      0.00000     0.28259    0.00169     0.28428
      H   19    0.18591      0.00000     0.31269    0.00140     0.31409
 =======================================================================
   * Total *   -0.00000     10.99620    28.86068    0.14312    40.00000

 Normal termination of Gaussian 16 at Tue Dec  8 19:56:29 2020.
