 Gaussian 16, Revision A.03,

 -----------------------------------------------------------
 # opt freq B3LYP/6-31G(d) empiricaldispersion=gd3bj scf=xqc
 -----------------------------------------------------------

 -------------------------------
 CID_110703667_JID_9363_neutraal
 -------------------------------
 Symbolic Z-matrix:
 Charge =  0 Multiplicity = 1

 SCF Done:  E(RB3LYP) =  -910.427730702     A.U. after   15 cycles
 SCF Done:  E(RB3LYP) =  -910.410551245     A.U. after   15 cycles
 SCF Done:  E(RB3LYP) =  -910.434003713     A.U. after   13 cycles
 SCF Done:  E(RB3LYP) =  -910.435735443     A.U. after   13 cycles
 SCF Done:  E(RB3LYP) =  -910.436128687     A.U. after   13 cycles
 SCF Done:  E(RB3LYP) =  -910.436471509     A.U. after   14 cycles
 SCF Done:  E(RB3LYP) =  -910.437178329     A.U. after   12 cycles
 SCF Done:  E(RB3LYP) =  -910.437583044     A.U. after   13 cycles
 SCF Done:  E(RB3LYP) =  -910.437733773     A.U. after   12 cycles
 SCF Done:  E(RB3LYP) =  -910.437934266     A.U. after   12 cycles
 SCF Done:  E(RB3LYP) =  -910.445349638     A.U. after   11 cycles
 SCF Done:  E(RB3LYP) =  -910.445349934     A.U. after    9 cycles
 SCF Done:  E(RB3LYP) =  -910.445349956     A.U. after    9 cycles
 SCF Done:  E(RB3LYP) =  -910.445349949     A.U. after    7 cycles
 Optimization completed.
    -- Stationary point found.
 Normal termination of Gaussian 16 at Sat Dec 12 10:06:05 2020.

 --------------------------------------------------------------------
 #N Geom=AllCheck Guess=TCheck SCRF=Check GenChk RB3LYP/6-31G(d) Freq
 --------------------------------------------------------------------

 Structure from the checkpoint file:  "JID_9363.chk"
 -------------------------------
 CID_110703667_JID_9363_neutraal
 -------------------------------
 Charge =  0 Multiplicity = 1

 SCF Done:  E(RB3LYP) =  -910.445349949     A.U. after    1 cycles

  Exact polarizability: 157.764 -16.573 129.119  -3.440   2.590 139.009
 Approx polarizability: 245.839 -31.660 193.191 -11.936  12.295 255.649

                      1                      2                      3
                      A                      A                      A
 Frequencies --     27.7781                49.8709                53.7619
 Red. masses --      5.4790                 6.5127                 6.0690
 Frc consts  --      0.0025                 0.0095                 0.0103
 IR Inten    --      3.8514                 0.9459                 2.6255

                      4                      5                      6
                      A                      A                      A
 Frequencies --     68.8060                76.6934                97.0781
 Red. masses --      5.4759                 5.6167                 7.8803
 Frc consts  --      0.0153                 0.0195                 0.0438
 IR Inten    --      7.0824                 0.8080                 1.5461

                      7                      8                      9
                      A                      A                      A
 Frequencies --    132.7022               147.6047               193.8506
 Red. masses --      7.6606                 9.3585                 5.1448
 Frc consts  --      0.0795                 0.1201                 0.1139
 IR Inten    --      3.3970                 0.2719                 0.4539

                     10                     11                     12
                      A                      A                      A
 Frequencies --    199.4423               240.9819               264.9710
 Red. masses --      4.0342                 3.8152                 3.8071
 Frc consts  --      0.0945                 0.1305                 0.1575
 IR Inten    --      4.0628                 3.0680                 4.9067

                     13                     14                     15
                      A                      A                      A
 Frequencies --    281.5027               305.4680               334.9213
 Red. masses --      3.2798                 2.4903                 3.1570
 Frc consts  --      0.1531                 0.1369                 0.2086
 IR Inten    --      6.3406                 0.3810                 4.0825

                     16                     17                     18
                      A                      A                      A
 Frequencies --    351.9967               416.4892               426.9196
 Red. masses --      2.9777                 3.1765                 4.7456
 Frc consts  --      0.2174                 0.3246                 0.5096
 IR Inten    --      2.3556                 7.2470                 1.5412

                     19                     20                     21
                      A                      A                      A
 Frequencies --    469.3338               490.4594               508.3350
 Red. masses --      4.2715                 2.4512                 1.9028
 Frc consts  --      0.5544                 0.3474                 0.2897
 IR Inten    --      4.6868                11.6934               108.5829

                     22                     23                     24
                      A                      A                      A
 Frequencies --    513.7459               536.5728               567.8039
 Red. masses --      2.5661                 2.0831                 3.8401
 Frc consts  --      0.3990                 0.3534                 0.7294
 IR Inten    --    143.8154                28.1785                17.8753

                     25                     26                     27
                      A                      A                      A
 Frequencies --    577.7612               624.8916               636.2679
 Red. masses --      4.1523                 3.4744                 5.8741
 Frc consts  --      0.8167                 0.7994                 1.4011
 IR Inten    --     14.4060                 7.8828                 4.7177

                     28                     29                     30
                      A                      A                      A
 Frequencies --    662.9092               681.3986               703.1559
 Red. masses --      4.4401                 5.0961                 4.4199
 Frc consts  --      1.1496                 1.3941                 1.2876
 IR Inten    --      3.0454                36.1480                 4.9798

                     31                     32                     33
                      A                      A                      A
 Frequencies --    729.9931               751.0986               769.0012
 Red. masses --      2.1702                 2.3124                 2.8473
 Frc consts  --      0.6814                 0.7686                 0.9920
 IR Inten    --     38.2523               199.9279                 4.8537

                     34                     35                     36
                      A                      A                      A
 Frequencies --    796.8931               805.9860               835.9131
 Red. masses --      2.2367                 2.0515                 3.0308
 Frc consts  --      0.8369                 0.7852                 1.2477
 IR Inten    --     88.9970                12.5815                 7.1704

                     37                     38                     39
                      A                      A                      A
 Frequencies --    875.7043               879.1506               940.2069
 Red. masses --      2.8871                 3.3421                 1.3991
 Frc consts  --      1.3044                 1.5219                 0.7287
 IR Inten    --     26.2613                 7.0498                 0.7251

                     40                     41                     42
                      A                      A                      A
 Frequencies --    953.4806               972.1437               985.3722
 Red. masses --      1.4410                 2.5566                 1.8348
 Frc consts  --      0.7719                 1.4236                 1.0496
 IR Inten    --      2.4894                 0.6084                 8.3064

                     43                     44                     45
                      A                      A                      A
 Frequencies --    995.2706              1029.4855              1047.0140
 Red. masses --      1.3683                 2.3036                 4.1015
 Frc consts  --      0.7986                 1.4385                 2.6491
 IR Inten    --      0.4098                 0.6366                 9.3637

                     46                     47                     48
                      A                      A                      A
 Frequencies --   1066.6799              1075.0752              1114.8361
 Red. masses --      2.4799                 2.8767                 2.3650
 Frc consts  --      1.6625                 1.9589                 1.7318
 IR Inten    --      4.0286                 0.4917                 4.0083

                     49                     50                     51
                      A                      A                      A
 Frequencies --   1121.5937              1138.4098              1158.1110
 Red. masses --      2.6456                 3.0258                 1.5198
 Frc consts  --      1.9608                 2.3104                 1.2010
 IR Inten    --     13.1736                 6.9657                 2.1986

                     52                     53                     54
                      A                      A                      A
 Frequencies --   1193.3333              1216.3240              1217.0332
 Red. masses --      1.5432                 2.5476                 1.3568
 Frc consts  --      1.2948                 2.2206                 1.1840
 IR Inten    --     27.6105                12.9931                 3.2755

                     55                     56                     57
                      A                      A                      A
 Frequencies --   1226.4664              1249.7814              1272.7211
 Red. masses --      1.9069                 1.7725                 1.5892
 Frc consts  --      1.6900                 1.6312                 1.5167
 IR Inten    --      2.5671                 1.3348                46.3078

                     58                     59                     60
                      A                      A                      A
 Frequencies --   1285.0681              1306.2365              1314.7588
 Red. masses --      1.5588                 2.2677                 2.2027
 Frc consts  --      1.5167                 2.2797                 2.2434
 IR Inten    --      4.8182                24.9329                32.2944

                     61                     62                     63
                      A                      A                      A
 Frequencies --   1333.5453              1351.5326              1379.6315
 Red. masses --      2.0416                 1.8346                 1.3124
 Frc consts  --      2.1391                 1.9744                 1.4718
 IR Inten    --     90.4324                77.3319                 1.7104

                     64                     65                     66
                      A                      A                      A
 Frequencies --   1393.2170              1398.8706              1405.2037
 Red. masses --      1.3617                 1.5006                 1.3209
 Frc consts  --      1.5573                 1.7301                 1.5367
 IR Inten    --      1.2885                23.7842                17.9579

                     67                     68                     69
                      A                      A                      A
 Frequencies --   1435.1841              1451.2591              1477.8672
 Red. masses --      1.6723                 1.4651                 2.1377
 Frc consts  --      2.0295                 1.8180                 2.7509
 IR Inten    --     37.1271                14.4856                32.0187

                     70                     71                     72
                      A                      A                      A
 Frequencies --   1486.2833              1510.0240              1515.7785
 Red. masses --      1.6198                 1.1013                 1.1004
 Frc consts  --      2.1082                 1.4795                 1.4896
 IR Inten    --     35.5356                 3.3721                 8.1890

                     73                     74                     75
                      A                      A                      A
 Frequencies --   1518.3345              1527.2187              1633.4931
 Red. masses --      1.1899                 2.0248                 5.0983
 Frc consts  --      1.6162                 2.7825                 8.0151
 IR Inten    --     42.0775                 7.4796                16.1206

                     76                     77                     78
                      A                      A                      A
 Frequencies --   1649.6608              1797.1467              1830.0605
 Red. masses --      5.3630                 8.3034                11.6177
 Frc consts  --      8.5990                15.8006                22.9246
 IR Inten    --      4.2862               303.6088               478.5611

                     79                     80                     81
                      A                      A                      A
 Frequencies --   1872.2629              3052.7287              3054.5034
 Red. masses --     11.3390                 1.0621                 1.0775
 Frc consts  --     23.4185                 5.8319                 5.9229
 IR Inten    --     60.1304                27.5912                18.3183

                     82                     83                     84
                      A                      A                      A
 Frequencies --   3071.3750              3079.9080              3093.0645
 Red. masses --      1.0623                 1.0606                 1.1028
 Frc consts  --      5.9041                 5.9276                 6.2161
 IR Inten    --     10.8958                11.2358                14.1020

                     85                     86                     87
                      A                      A                      A
 Frequencies --   3117.5866              3132.5019              3179.9020
 Red. masses --      1.1023                 1.1029                 1.0885
 Frc consts  --      6.3122                 6.3763                 6.4848
 IR Inten    --     17.0820                13.7525                 3.3228

                     88                     89                     90
                      A                      A                      A
 Frequencies --   3184.0893              3209.4643              3217.8391
 Red. masses --      1.0905                 1.0909                 1.0960
 Frc consts  --      6.5143                 6.6206                 6.6864
 IR Inten    --     21.0003                 7.0165                11.1665

                     91                     92                     93
                      A                      A                      A
 Frequencies --   3543.6123              3549.6540              3608.8655
 Red. masses --      1.0766                 1.0780                 1.0765
 Frc consts  --      7.9652                 8.0031                 8.2607
 IR Inten    --     31.7985                26.9811                28.5644

 - Thermochemistry -
 -------------------
 Temperature   298.150 Kelvin.  Pressure   1.00000 Atm.
 Atom     1 has atomic number  6 and mass  12.00000

 Molecular mass:   262.10659 amu.
 Principal axes and moments of inertia in atomic units:
                           1         2         3
     Eigenvalues --  3771.199934479.941415984.74154
           X            0.99985   0.00415   0.01700
           Y           -0.00408   0.99998  -0.00391
           Z           -0.01701   0.00384   0.99985
 This molecule is an asymmetric top.
 Rotational symmetry number  1.
 Warning -- assumption of classical behavior for rotation
           may cause significant error
 Rotational temperatures (Kelvin)      0.02297     0.01933     0.01447
 Rotational constants (GHZ):           0.47856     0.40285     0.30156
 Zero-point vibrational energy     694003.3 (Joules/Mol)
                                  165.87076 (Kcal/Mol)
 Warning -- explicit consideration of  25 degrees of freedom as
           vibrations may cause significant error
 Vibrational temperatures:     39.97    71.75    77.35    99.00   110.34
          (Kelvin)            139.67   190.93   212.37   278.91   286.95
                              346.72   381.23   405.02   439.50   481.88
                              506.44   599.23   614.24   675.27   705.66
                              731.38   739.17   772.01   816.94   831.27
                              899.08   915.45   953.78   980.38  1011.68
                             1050.30  1080.66  1106.42  1146.55  1159.63
                             1202.69  1259.94  1264.90  1352.75  1371.85
                             1398.70  1417.73  1431.97  1481.20  1506.42
                             1534.71  1546.79  1604.00  1613.72  1637.92
                             1666.26  1716.94  1750.02  1751.04  1764.61
                             1798.16  1831.16  1848.93  1879.38  1891.64
                             1918.67  1944.55  1984.98  2004.53  2012.66
                             2021.77  2064.91  2088.04  2126.32  2138.43
                             2172.59  2180.87  2184.54  2197.33  2350.23
                             2373.49  2585.69  2633.05  2693.77  4392.20
                             4394.75  4419.02  4431.30  4450.23  4485.51
                             4506.97  4575.17  4581.19  4617.70  4629.75
                             5098.47  5107.16  5192.35

 Zero-point correction=                           0.264332 (Hartree/Particle)
 Thermal correction to Energy=                    0.280988
 Thermal correction to Enthalpy=                  0.281932
 Thermal correction to Gibbs Free Energy=         0.219001
 Sum of electronic and zero-point Energies=           -910.181018
 Sum of electronic and thermal Energies=              -910.164362
 Sum of electronic and thermal Enthalpies=            -910.163418
 Sum of electronic and thermal Free Energies=         -910.226349

                     E (Thermal)             CV                S
                      KCal/Mol        Cal/Mol-Kelvin    Cal/Mol-Kelvin
 Total                  176.323             63.686            132.449
 Electronic               0.000              0.000              0.000
 Translational            0.889              2.981             42.590
 Rotational               0.889              2.981             32.980
 Vibrational            174.545             57.724             56.879
 Vibration     1          0.593              1.984              5.982
 Vibration     2          0.595              1.978              4.822
 Vibration     3          0.596              1.976              4.674
 Vibration     4          0.598              1.969              4.187
 Vibration     5          0.599              1.965              3.974
 Vibration     6          0.603              1.951              3.512
 Vibration     7          0.613              1.921              2.907
 Vibration     8          0.617              1.905              2.703
 Vibration     9          0.635              1.848              2.191
 Vibration    10          0.638              1.841              2.138
 Vibration    11          0.658              1.778              1.796
 Vibration    12          0.671              1.737              1.629
 Vibration    13          0.681              1.708              1.525
 Vibration    14          0.696              1.663              1.387
 Vibration    15          0.716              1.606              1.236
 Vibration    16          0.729              1.571              1.157
 Vibration    17          0.780              1.434              0.904
 Vibration    18          0.789              1.412              0.869
 Vibration    19          0.826              1.318              0.739
 Vibration    20          0.846              1.271              0.682
 Vibration    21          0.864              1.232              0.638
 Vibration    22          0.869              1.220              0.625
 Vibration    23          0.892              1.169              0.573
 Vibration    24          0.924              1.101              0.508
 Vibration    25          0.934              1.079              0.490

 Optimization completed.
    -- Stationary point found.
 Normal termination of Gaussian 16 at Sat Dec 12 10:24:34 2020.

 ----------------------------------------------------------------------
 # B3LYP/6-311++G(d,p) empiricaldispersion=gd3bj scf=xqc pop=npa geom=c
 heck
 ----------------------------------------------------------------------

 ---------------------------------------
 CID_110703667_JID_9363_Energie_neutraal
 ---------------------------------------
 Structure from the checkpoint file:  "JID_9363.chk"
 Charge =  0 Multiplicity = 1

 SCF Done:  E(RB3LYP) =  -910.709593500     A.U. after   16 cycles
 Normal termination of Gaussian 16 at Sat Dec 12 10:32:00 2020.

 ----------------------------------------------------------------------
 # B3LYP/6-311++G(d,p) empiricaldispersion=gd3bj scf=xqc pop=npa geom=c
 heck
 ----------------------------------------------------------------------

 -------------------------------------
 CID_110703667_JID_9363_Energie_kation
 -------------------------------------
 Structure from the checkpoint file:  "JID_9363.chk"
 Charge =  1 Multiplicity = 2

 SCF Done:  E(UB3LYP) =  -910.390368312     A.U. after   33 cycles
 SCF Done:  E(UB3LYP) =  -910.390368313     a.u. after    2 cycles
 Normal termination of Gaussian 16 at Sat Dec 12 11:17:13 2020.
 Gaussian 16:  ES64L-G16RevA.03 25-Dec-2016

 ----------------------------------------------------------------------
 # B3LYP/6-311++G(d,p) empiricaldispersion=gd3bj scf=xqc pop=npa geom=c
 heck
 ----------------------------------------------------------------------

 ------------------------------------
 CID_110703667_JID_9363_Energie_anion
 ------------------------------------
 Structure from the checkpoint file:  "JID_9363.chk"
 Charge = -1 Multiplicity = 2

                         Standard orientation:
 ---------------------------------------------------------------------
 Center     Atomic      Atomic             Coordinates (Angstroms)
 Number     Number       Type             X           Y           Z
 ---------------------------------------------------------------------
      1          6           0        0.362962   -2.843568   -1.140183
      2          6           0       -0.879436   -2.225323   -1.278281
      3          6           0       -1.481797   -1.638929   -0.163598
      4          6           0       -0.803899   -1.732037    1.058854
      5          7           0        0.396343   -2.305005    1.206922
      6          6           0        0.963482   -2.844821    0.117948
      7          6           0       -2.799374   -0.892299   -0.278799
      8          7           0       -2.817562    0.428759    0.333182
      9          6           0       -2.165644    1.574169   -0.056782
     10          8           0       -2.280496    2.608517    0.583070
     11          6           0       -1.323179    1.541073   -1.329511
     12          6           0        0.134450    1.957474   -1.066279
     13          6           0        0.958150    0.878182   -0.356150
     14          6           0        0.981843    0.847451    1.165405
     15          8           0        0.059029    0.958364    1.942008
     16          7           0        2.299632    0.572165    1.559270
     17          7           0        3.111743    0.358412    0.403263
     18          6           0        2.432769    0.822584   -0.725054
     19          8           0        2.960045    1.109786   -1.779132
     20          1           0        0.864666   -3.293902   -1.990686
     21          1           0       -1.366630   -2.176469   -2.249653
     22          1           0       -1.225062   -1.273667    1.948530
     23          1           0        1.944873   -3.291793    0.260926
     24          1           0       -3.080903   -0.824070   -1.336326
     25          1           0       -3.594652   -1.467278    0.208018
     26          1           0       -3.292793    0.536991    1.219699
     27          1           0       -1.347586    0.571977   -1.835829
     28          1           0       -1.775863    2.274406   -2.006234
     29          1           0        0.628013    2.160067   -2.022463
     30          1           0        0.134493    2.883041   -0.483362
     31          1           0        0.564319   -0.109143   -0.635457
     32          1           0        2.372286   -0.175323    2.244742
     33          1           0        4.053171    0.727791    0.506648
 ---------------------------------------------------------------------

 SCF Done:  E(UB3LYP) =  -910.707481318     A.U. after   33 cycles
 SCF Done:  E(UB3LYP) =  -910.707481318     a.u. after    2 cycles

 The electronic state is 2-A.
 Alpha  occ. eigenvalues --  -19.00341 -18.99613 -18.97963 -14.26474 -14.26191
 Alpha  occ. eigenvalues --  -14.23170 -14.15512 -10.17650 -10.17375 -10.16722
 Alpha  occ. eigenvalues --  -10.11427 -10.08776 -10.07973 -10.07888 -10.06580
 Alpha  occ. eigenvalues --  -10.06452 -10.05411 -10.04514 -10.03743  -0.96564
 Alpha  occ. eigenvalues --   -0.94228  -0.93251  -0.89669  -0.81990  -0.80145
 Alpha  occ. eigenvalues --   -0.71774  -0.71523  -0.68139  -0.65194  -0.64066
 Alpha  occ. eigenvalues --   -0.58731  -0.55924  -0.50102  -0.49479  -0.48251
 Alpha  occ. eigenvalues --   -0.47399  -0.45788  -0.44076  -0.40339  -0.40161
 Alpha  occ. eigenvalues --   -0.39430  -0.38626  -0.36401  -0.35695  -0.35145
 Alpha  occ. eigenvalues --   -0.33911  -0.33567  -0.32808  -0.31260  -0.31225
 Alpha  occ. eigenvalues --   -0.29778  -0.29569  -0.29266  -0.29115  -0.26841
 Alpha  occ. eigenvalues --   -0.26684  -0.26222  -0.24837  -0.24657  -0.23332
 Alpha  occ. eigenvalues --   -0.22739  -0.18086  -0.16339  -0.15639  -0.15296
 Alpha  occ. eigenvalues --   -0.15127  -0.13912  -0.13145  -0.12020   0.05092
 Alpha virt. eigenvalues --    0.06871   0.07232   0.07901   0.08307   0.08896
 Alpha virt. eigenvalues --    0.09876   0.10541   0.10841   0.10996   0.11536
 Alpha virt. eigenvalues --    0.11632   0.11944   0.12383   0.12989   0.13365

  Beta  occ. eigenvalues --  -19.00303 -18.99606 -18.97963 -14.26444 -14.26182
  Beta  occ. eigenvalues --  -14.23163 -14.15043 -10.17585 -10.17328 -10.16722
  Beta  occ. eigenvalues --  -10.11428 -10.08788 -10.07956 -10.07878 -10.06507
  Beta  occ. eigenvalues --  -10.06389 -10.05405 -10.04506 -10.03328  -0.96497
  Beta  occ. eigenvalues --   -0.94176  -0.93249  -0.89630  -0.81941  -0.79548
  Beta  occ. eigenvalues --   -0.71712  -0.71482  -0.67682  -0.65124  -0.63750
  Beta  occ. eigenvalues --   -0.58548  -0.55867  -0.49862  -0.49032  -0.48070
  Beta  occ. eigenvalues --   -0.47285  -0.45744  -0.44012  -0.40286  -0.40068
  Beta  occ. eigenvalues --   -0.39369  -0.38436  -0.36341  -0.35606  -0.34978
  Beta  occ. eigenvalues --   -0.33774  -0.33474  -0.32753  -0.31178  -0.31150
  Beta  occ. eigenvalues --   -0.29673  -0.29407  -0.29177  -0.29067  -0.26494
  Beta  occ. eigenvalues --   -0.26198  -0.26081  -0.24775  -0.24146  -0.23137
  Beta  occ. eigenvalues --   -0.22597  -0.18015  -0.15703  -0.15285  -0.15111
  Beta  occ. eigenvalues --   -0.14107  -0.13806  -0.12389  -0.11522
  Beta virt. eigenvalues --    0.07201   0.07990   0.08199   0.08373   0.08807
  Beta virt. eigenvalues --    0.09887   0.10346   0.10688   0.11019   0.11278
  Beta virt. eigenvalues --    0.11561   0.11781   0.11918   0.12494   0.12994

 Mulliken charges and spin densities:
               1          2
     1  C    0.014344  -0.070286
     2  C   -0.812698   0.521873
     3  C    1.406777  -0.131157
     4  C   -1.153965   0.116504
     5  N    0.027939   0.228181
     6  C   -0.320528  -0.057613
     7  C   -0.632596  -0.084734
     8  N   -0.133328   0.008545
     9  C   -0.223361  -0.001875
    10  O   -0.311539  -0.000216
    11  C    0.082855  -0.083575
    12  C   -0.898505   0.032471
    13  C    1.220787   0.013676
    14  C   -0.753612  -0.105144
    15  O   -0.233329   0.002728
    16  N    0.078713  -0.005571
    17  N   -0.107827  -0.174483
    18  C    0.009144  -0.049403
    19  O   -0.332359   0.017319
    20  H    0.081418   0.058835
    21  H    0.038740   0.048886
    22  H    0.148739  -0.001760
    23  H    0.076955   0.052396
    24  H    0.178144   0.016464
    25  H    0.148386  -0.002049
    26  H    0.297771  -0.001137
    27  H    0.059762   0.100660
    28  H    0.166583   0.033446
    29  H    0.180471   0.009488
    30  H    0.215698   0.002208
    31  H    0.430110  -0.095391
    32  H    0.227772   0.076152
    33  H   -0.177458   0.524560
 Sum of Mulliken charges =  -1.00000   1.00000

 Dipole moment (field-independent basis, Debye):
    X=             -4.0961    Y=             -0.2612    Z=             -1.6686  Tot=              4.4306
 Quadrupole moment (field-independent basis, Debye-Ang):
   XX=           -147.8383   YY=           -152.7120   ZZ=           -135.8104
   XY=              3.7486   XZ=              5.1066   YZ=             -2.6484

 Summary of Natural Population Analysis:

                                       Natural Population
                Natural  -----------------------------------------------
    Atom  No    Charge         Core      Valence    Rydberg      Total
 -----------------------------------------------------------------------
      C    1   -0.13085      0.99956     2.12223    0.00906     3.13085
      C    2   -0.02467      0.99952     2.01485    0.01030     3.02467
      C    3   -0.06246      0.99948     2.05359    0.00939     3.06246
      C    4    0.03574      0.99953     1.95079    0.01393     2.96426
      N    5   -0.19156      0.99971     2.67909    0.01276     3.69156
      C    6    0.02692      0.99959     1.95669    0.01679     2.97308
      C    7   -0.09196      0.99958     2.08250    0.00987     3.09196
      N    8   -0.31742      0.99967     2.80716    0.01059     3.81742
      C    9    0.34955      0.99967     1.62786    0.02292     2.65045
      O   10   -0.32519      0.99987     3.31926    0.00606     4.32519
      C   11   -0.23365      0.99958     2.22489    0.00918     3.23365
      C   12   -0.18192      0.99961     2.17330    0.00902     3.18192
      C   13   -0.21435      0.99948     2.20479    0.01008     3.21435
      C   14    0.35844      0.99967     1.61651    0.02538     2.64156
      O   15   -0.29194      0.99987     3.28569    0.00639     4.29194
      N   16   -0.24427      0.99968     2.73118    0.01342     3.74427
      N   17   -0.23580      0.99967     2.72365    0.01248     3.73580
      C   18    0.35872      0.99967     1.61788    0.02373     2.64128
      O   19   -0.30476      0.99987     3.29901    0.00587     4.30476
      H   20    0.09699      0.00000     0.40203    0.00098     0.40301
      H   21    0.08909      0.00000     0.40973    0.00118     0.41091
      H   22    0.09025      0.00000     0.40820    0.00155     0.40975
      H   23    0.08372      0.00000     0.41517    0.00111     0.41628
      H   24    0.09461      0.00000     0.40426    0.00113     0.40539
      H   25    0.09962      0.00000     0.39928    0.00110     0.40038
      H   26    0.19329      0.00000     0.30526    0.00145     0.30671
      H   27    0.10679      0.00000     0.39161    0.00161     0.39321
      H   28    0.10779      0.00000     0.39125    0.00096     0.39221
      H   29    0.10929      0.00000     0.38957    0.00115     0.39071
      H   30    0.10822      0.00000     0.39056    0.00122     0.39178
      H   31    0.14975      0.00000     0.34722    0.00302     0.35025
      H   32    0.19916      0.00000     0.29806    0.00278     0.30084
      H   33    0.19287      0.00000     0.30095    0.00618     0.30713
 =======================================================================
   * Total *    0.00000     18.99330    49.74406    0.26265    69.00000

 Normal termination of Gaussian 16 at Sat Dec 12 12:06:44 2020.
