 Gaussian 16, Revision A.03,

 -----------------------------------------------------------
 # opt freq B3LYP/6-31G(d) empiricaldispersion=gd3bj scf=xqc
 -----------------------------------------------------------

 -------------------------------
 CID_106713870_JID_5730_neutraal
 -------------------------------
 Symbolic Z-matrix:
 Charge =  0 Multiplicity = 1

 SCF Done:  E(RB3LYP) =  -677.603619078     A.U. after   14 cycles
 SCF Done:  E(RB3LYP) =  -677.606965027     A.U. after   12 cycles
 SCF Done:  E(RB3LYP) =  -677.606132426     A.U. after   13 cycles
 SCF Done:  E(RB3LYP) =  -677.608635004     A.U. after   12 cycles
 SCF Done:  E(RB3LYP) =  -677.609785670     A.U. after   12 cycles
 SCF Done:  E(RB3LYP) =  -677.610595846     A.U. after   12 cycles
 SCF Done:  E(RB3LYP) =  -677.610772957     A.U. after   12 cycles
 SCF Done:  E(RB3LYP) =  -677.610830715     A.U. after   12 cycles
 SCF Done:  E(RB3LYP) =  -677.611170569     A.U. after   11 cycles
 SCF Done:  E(RB3LYP) =  -677.611192610     A.U. after   11 cycles
 SCF Done:  E(RB3LYP) =  -677.611204856     A.U. after   10 cycles
 SCF Done:  E(RB3LYP) =  -677.611209328     A.U. after    9 cycles
 SCF Done:  E(RB3LYP) =  -677.611210306     A.U. after    8 cycles
 SCF Done:  E(RB3LYP) =  -677.611210486     A.U. after    7 cycles
 SCF Done:  E(RB3LYP) =  -677.611210538     A.U. after    7 cycles
 Optimization completed.
    -- Stationary point found.
 Normal termination of Gaussian 16 at Thu Dec 10 16:43:01 2020.

 --------------------------------------------------------------------
 #N Geom=AllCheck Guess=TCheck SCRF=Check GenChk RB3LYP/6-31G(d) Freq
 --------------------------------------------------------------------

 Structure from the checkpoint file:  "JID_5730.chk"
 -------------------------------
 CID_106713870_JID_5730_neutraal
 -------------------------------
 Charge =  0 Multiplicity = 1

 SCF Done:  E(RB3LYP) =  -677.611210538     A.U. after    1 cycles

  Exact polarizability: 153.318   0.735 131.671  -0.497   2.432 128.200
 Approx polarizability: 190.813   6.837 191.775   4.186   3.623 190.452

                      1                      2                      3
                      A                      A                      A
 Frequencies --     41.0344                52.5407                58.2622
 Red. masses --      4.0933                 4.1259                 4.1347
 Frc consts  --      0.0041                 0.0067                 0.0083
 IR Inten    --      0.1391                 0.5363                 0.9480

                      4                      5                      6
                      A                      A                      A
 Frequencies --     77.8751               104.0618               110.4316
 Red. masses --      3.9432                 2.8439                 4.1615
 Frc consts  --      0.0141                 0.0181                 0.0299
 IR Inten    --      1.2204                 0.3277                 1.0903

                      7                      8                      9
                      A                      A                      A
 Frequencies --    118.5898               139.2198               167.9458
 Red. masses --      2.4079                 3.2592                 1.9282
 Frc consts  --      0.0200                 0.0372                 0.0320
 IR Inten    --      0.9991                 0.2164                 1.4583

                     10                     11                     12
                      A                      A                      A
 Frequencies --    181.1964               236.5485               252.5639
 Red. masses --      3.2816                 1.1469                 1.2549
 Frc consts  --      0.0635                 0.0378                 0.0472
 IR Inten    --      2.0548                 0.4594                 0.3154

                     13                     14                     15
                      A                      A                      A
 Frequencies --    256.2883               266.4023               285.8509
 Red. masses --      1.7979                 1.9062                 2.1508
 Frc consts  --      0.0696                 0.0797                 0.1035
 IR Inten    --      0.1640                 0.1835                 1.1326

                     16                     17                     18
                      A                      A                      A
 Frequencies --    289.3515               302.8145               317.1255
 Red. masses --      1.2334                 1.6770                 2.1514
 Frc consts  --      0.0608                 0.0906                 0.1275
 IR Inten    --      0.2138                 0.2091                 1.4261

                     19                     20                     21
                      A                      A                      A
 Frequencies --    337.2687               363.7106               372.4978
 Red. masses --      2.3067                 2.6504                 2.4095
 Frc consts  --      0.1546                 0.2066                 0.1970
 IR Inten    --      0.4919                 3.2141                 1.3189

                     22                     23                     24
                      A                      A                      A
 Frequencies --    388.0449               426.9777               475.8816
 Red. masses --      2.1118                 1.7917                 2.0595
 Frc consts  --      0.1874                 0.1925                 0.2748
 IR Inten    --      0.6846                 0.5941                 2.1568

                     25                     26                     27
                      A                      A                      A
 Frequencies --    498.0992               518.1371               560.5465
 Red. masses --      3.8142                 2.4226                 2.9089
 Frc consts  --      0.5575                 0.3832                 0.5385
 IR Inten    --      7.7588                 4.2526                 5.3453

                     28                     29                     30
                      A                      A                      A
 Frequencies --    576.5870               654.2648               702.2698
 Red. masses --      3.4459                 1.2832                 1.9267
 Frc consts  --      0.6750                 0.3236                 0.5599
 IR Inten    --     23.9031                68.8283                27.7943

                     31                     32                     33
                      A                      A                      A
 Frequencies --    724.9454               772.4192               791.9716
 Red. masses --      3.0263                 2.1536                 1.2806
 Frc consts  --      0.9371                 0.7570                 0.4732
 IR Inten    --     11.9001                39.0543                 3.1423

                     34                     35                     36
                      A                      A                      A
 Frequencies --    797.7890               808.3360               820.1379
 Red. masses --      2.3180                 2.5827                 1.1933
 Frc consts  --      0.8692                 0.9943                 0.4729
 IR Inten    --     10.6198                14.0811                 4.6521

                     37                     38                     39
                      A                      A                      A
 Frequencies --    868.5164               904.8918               918.5095
 Red. masses --      2.0591                 2.0656                 2.0825
 Frc consts  --      0.9151                 0.9965                 1.0352
 IR Inten    --      7.0304                 2.1079                 1.8863

                     40                     41                     42
                      A                      A                      A
 Frequencies --    955.2040               965.7332               979.9578
 Red. masses --      1.8915                 1.5368                 1.7641
 Frc consts  --      1.0168                 0.8445                 0.9982
 IR Inten    --      4.4372                 0.5127                 2.1287

                     43                     44                     45
                      A                      A                      A
 Frequencies --   1004.8952              1029.3268              1048.5577
 Red. masses --      2.3022                 1.6216                 1.4446
 Frc consts  --      1.3697                 1.0123                 0.9358
 IR Inten    --      7.6003                 2.0566                 8.1152

                     46                     47                     48
                      A                      A                      A
 Frequencies --   1078.7490              1092.0741              1110.3057
 Red. masses --      2.0750                 1.8458                 2.0513
 Frc consts  --      1.4227                 1.2970                 1.4899
 IR Inten    --      4.0965                 2.3610                18.8722

                     49                     50                     51
                      A                      A                      A
 Frequencies --   1121.9724              1129.4979              1143.4229
 Red. masses --      2.3944                 1.8466                 1.7357
 Frc consts  --      1.7759                 1.3880                 1.3371
 IR Inten    --      6.2241                 4.4472                42.0338

                     52                     53                     54
                      A                      A                      A
 Frequencies --   1159.7100              1168.8798              1197.2689
 Red. masses --      2.5126                 1.7116                 1.6587
 Frc consts  --      1.9910                 1.3778                 1.4009
 IR Inten    --    179.8073                 5.9221                53.9716

                     55                     56                     57
                      A                      A                      A
 Frequencies --   1220.8831              1245.8382              1267.9337
 Red. masses --      1.7749                 1.8698                 2.2842
 Frc consts  --      1.5587                 1.7099                 2.1636
 IR Inten    --      7.7956                39.9760                14.1535

                     58                     59                     60
                      A                      A                      A
 Frequencies --   1276.8921              1298.9084              1324.8639
 Red. masses --      2.0036                 1.5638                 1.1601
 Frc consts  --      1.9247                 1.5545                 1.1998
 IR Inten    --     26.3051                 5.1347                 3.8619

                     61                     62                     63
                      A                      A                      A
 Frequencies --   1348.4365              1368.6616              1385.3199
 Red. masses --      1.2001                 1.3761                 1.8088
 Frc consts  --      1.2857                 1.5188                 2.0452
 IR Inten    --      2.7339                20.0482                18.5045

                     64                     65                     66
                      A                      A                      A
 Frequencies --   1386.6458              1400.8282              1411.9830
 Red. masses --      1.5091                 1.3074                 1.3724
 Frc consts  --      1.7096                 1.5116                 1.6121
 IR Inten    --      4.0242                26.1506                 3.9773

                     67                     68                     69
                      A                      A                      A
 Frequencies --   1415.7965              1423.0317              1425.8517
 Red. masses --      1.3967                 1.3228                 1.2290
 Frc consts  --      1.6495                 1.5782                 1.4721
 IR Inten    --     11.7472                 0.7936                11.7711

                     70                     71                     72
                      A                      A                      A
 Frequencies --   1429.5500              1437.5529              1445.9036
 Red. masses --      1.2661                 1.3062                 1.2682
 Frc consts  --      1.5245                 1.5904                 1.5621
 IR Inten    --     16.6589                11.6877                17.4844

                     73                     74                     75
                      A                      A                      A
 Frequencies --   1450.8357              1455.7101              1502.4507
 Red. masses --      1.3837                 1.2652                 1.0725
 Frc consts  --      1.7161                 1.5797                 1.4264
 IR Inten    --     12.8327                 6.6351                 1.1580

                     76                     77                     78
                      A                      A                      A
 Frequencies --   1508.4140              1511.5526              1514.1944
 Red. masses --      1.0783                 1.0606                 1.0573
 Frc consts  --      1.4455                 1.4278                 1.4283
 IR Inten    --      0.6991                 0.8510                 4.2326

                     79                     80                     81
                      A                      A                      A
 Frequencies --   1520.0475              1521.3998              1527.6182
 Red. masses --      1.0583                 1.0587                 1.0645
 Frc consts  --      1.4407                 1.4438                 1.4637
 IR Inten    --      0.8569                 3.8552                 7.3610

                     82                     83                     84
                      A                      A                      A
 Frequencies --   1529.3645              1533.0704              1535.9626
 Red. masses --      1.0564                 1.0578                 1.0704
 Frc consts  --      1.4558                 1.4648                 1.4878
 IR Inten    --      6.3694                 7.8432                 3.9225

                     85                     86                     87
                      A                      A                      A
 Frequencies --   1537.6679              1540.6025              1547.9695
 Red. masses --      1.0673                 1.0582                 1.0693
 Frc consts  --      1.4869                 1.4798                 1.5096
 IR Inten    --      1.4633                10.0303                12.5053

                     88                     89                     90
                      A                      A                      A
 Frequencies --   1555.7751              1816.6338              2951.1873
 Red. masses --      1.0846                 9.4057                 1.0729
 Frc consts  --      1.5467                18.2884                 5.5054
 IR Inten    --      2.4283               228.8966                81.4521

                     91                     92                     93
                      A                      A                      A
 Frequencies --   3004.3218              3008.0526              3032.4917
 Red. masses --      1.0671                 1.0739                 1.0640
 Frc consts  --      5.6745                 5.7249                 5.7647
 IR Inten    --     39.8704                56.4124                45.3617

                     94                     95                     96
                      A                      A                      A
 Frequencies --   3041.7533              3048.2170              3048.3900
 Red. masses --      1.0688                 1.0476                 1.0713
 Frc consts  --      5.8262                 5.7350                 5.8652
 IR Inten    --     13.1226                10.7738                42.8874

                     97                     98                     99
                      A                      A                      A
 Frequencies --   3050.2340              3053.1596              3054.0294
 Red. masses --      1.0677                 1.0367                 1.0421
 Frc consts  --      5.8529                 5.6936                 5.7268
 IR Inten    --     18.2434                21.9066                32.2058

                    100                    101                    102
                      A                      A                      A
 Frequencies --   3060.6263              3061.6364              3064.4757
 Red. masses --      1.0946                 1.0588                 1.0772
 Frc consts  --      6.0413                 5.8473                 5.9602
 IR Inten    --     32.4294                38.1797                47.2137

                    103                    104                    105
                      A                      A                      A
 Frequencies --   3091.6948              3109.1114              3118.8045
 Red. masses --      1.0949                 1.1004                 1.0973
 Frc consts  --      6.1663                 6.2673                 6.2885
 IR Inten    --     52.0603                47.1729                28.9471

                    106                    107                    108
                      A                      A                      A
 Frequencies --   3119.1991              3120.0625              3128.5476
 Red. masses --      1.1012                 1.0976                 1.1002
 Frc consts  --      6.3123                 6.2951                 6.3445
 IR Inten    --     19.9418                16.0545                34.4360

                    109                    110                    111
                      A                      A                      A
 Frequencies --   3131.8359              3135.9632              3143.3937
 Red. masses --      1.1017                 1.1007                 1.1024
 Frc consts  --      6.3668                 6.3776                 6.4177
 IR Inten    --     17.8131                46.3988                18.2695

                    112                    113                    114
                      A                      A                      A
 Frequencies --   3147.0665              3148.7517              3674.5852
 Red. masses --      1.1018                 1.0889                 1.0639
 Frc consts  --      6.4293                 6.3609                 8.4635
 IR Inten    --     23.6534                12.7744                46.5111

 - Thermochemistry -
 -------------------
 Temperature   298.150 Kelvin.  Pressure   1.00000 Atm.
 Atom     1 has atomic number  6 and mass  12.00000

 Molecular mass:   215.18853 amu.
 Principal axes and moments of inertia in atomic units:
                           1         2         3
     Eigenvalues --  1950.314645244.401365623.34433
           X            0.99995   0.00282  -0.00974
           Y           -0.00245   0.99926   0.03843
           Z            0.00984  -0.03841   0.99921
 This molecule is an asymmetric top.
 Rotational symmetry number  1.
 Warning -- assumption of classical behavior for rotation
           may cause significant error
 Rotational temperatures (Kelvin)      0.04441     0.01652     0.01540
 Rotational constants (GHZ):           0.92536     0.34413     0.32094
 Zero-point vibrational energy     962379.0 (Joules/Mol)
                                  230.01410 (Kcal/Mol)
 Warning -- explicit consideration of  28 degrees of freedom as
           vibrations may cause significant error
 Vibrational temperatures:     59.04    75.59    83.83   112.04   149.72
          (Kelvin)            158.89   170.62   200.31   241.64   260.70
                              340.34   363.38   368.74   383.29   411.28
                              416.31   435.68   456.27   485.25   523.30
                              535.94   558.31   614.33   684.69   716.65
                              745.48   806.50   829.58   941.34  1010.41
                             1043.03  1111.34  1139.47  1147.84  1163.02
                             1180.00  1249.60  1301.94  1321.53  1374.33
                             1389.47  1409.94  1445.82  1480.97  1508.64
                             1552.08  1571.25  1597.48  1614.27  1625.10
                             1645.13  1668.56  1681.76  1722.60  1756.58
                             1792.48  1824.27  1837.16  1868.84  1906.18
                             1940.10  1969.20  1993.17  1995.07  2015.48
                             2031.53  2037.02  2047.43  2051.48  2056.80
                             2068.32  2080.33  2087.43  2094.44  2161.69
                             2170.27  2174.79  2178.59  2187.01  2188.96
                             2197.90  2200.41  2205.75  2209.91  2212.36
                             2216.58  2227.18  2238.41  2613.73  4246.10
                             4322.55  4327.92  4363.08  4376.40  4385.70
                             4385.95  4388.61  4392.82  4394.07  4403.56
                             4405.01  4409.10  4448.26  4473.32  4487.26
                             4487.83  4489.07  4501.28  4506.01  4511.95
                             4522.64  4527.93  4530.35  5286.91

 Zero-point correction=                           0.366551 (Hartree/Particle)
 Thermal correction to Energy=                    0.384555
 Thermal correction to Enthalpy=                  0.385499
 Thermal correction to Gibbs Free Energy=         0.321328
 Sum of electronic and zero-point Energies=           -677.244660
 Sum of electronic and thermal Energies=              -677.226656
 Sum of electronic and thermal Enthalpies=            -677.225711
 Sum of electronic and thermal Free Energies=         -677.289882

                     E (Thermal)             CV                S
                      KCal/Mol        Cal/Mol-Kelvin    Cal/Mol-Kelvin
 Total                  241.312             67.888            135.059
 Electronic               0.000              0.000              0.000
 Translational            0.889              2.981             42.002
 Rotational               0.889              2.981             32.420
 Vibrational            239.534             61.926             60.636
 Vibration     1          0.594              1.981              5.209
 Vibration     2          0.596              1.977              4.719
 Vibration     3          0.596              1.974              4.515
 Vibration     4          0.599              1.964              3.944
 Vibration     5          0.605              1.946              3.377
 Vibration     6          0.606              1.941              3.261
 Vibration     7          0.609              1.934              3.123
 Vibration     8          0.615              1.914              2.815
 Vibration     9          0.625              1.882              2.458
 Vibration    10          0.630              1.865              2.316
 Vibration    11          0.655              1.785              1.829
 Vibration    12          0.664              1.758              1.713
 Vibration    13          0.666              1.752              1.687
 Vibration    14          0.672              1.735              1.619
 Vibration    15          0.684              1.700              1.498
 Vibration    16          0.686              1.694              1.478
 Vibration    17          0.694              1.668              1.401
 Vibration    18          0.704              1.641              1.325
 Vibration    19          0.718              1.601              1.225
 Vibration    20          0.737              1.547              1.106
 Vibration    21          0.744              1.529              1.069
 Vibration    22          0.756              1.496              1.008
 Vibration    23          0.789              1.412              0.869
 Vibration    24          0.833              1.304              0.721
 Vibration    25          0.854              1.254              0.663
 Vibration    26          0.873              1.210              0.614
 Vibration    27          0.916              1.117              0.523
 Vibration    28          0.933              1.082              0.492

 Optimization completed.
    -- Stationary point found.
 Normal termination of Gaussian 16 at Thu Dec 10 16:57:51 2020.

 ----------------------------------------------------------------------
 # B3LYP/6-311++G(d,p) empiricaldispersion=gd3bj scf=xqc pop=npa geom=c
 heck
 ----------------------------------------------------------------------

 ---------------------------------------
 CID_106713870_JID_5730_Energie_neutraal
 ---------------------------------------
 Structure from the checkpoint file:  "JID_5730.chk"
 Charge =  0 Multiplicity = 1

 SCF Done:  E(RB3LYP) =  -677.812370466     A.U. after   14 cycles
 Normal termination of Gaussian 16 at Thu Dec 10 17:05:22 2020.

 ----------------------------------------------------------------------
 # B3LYP/6-311++G(d,p) empiricaldispersion=gd3bj scf=xqc pop=npa geom=c
 heck
 ----------------------------------------------------------------------

 -------------------------------------
 CID_106713870_JID_5730_Energie_kation
 -------------------------------------
 Structure from the checkpoint file:  "JID_5730.chk"
 Charge =  1 Multiplicity = 2

 SCF Done:  E(UB3LYP) =  -677.547397920     A.U. after   18 cycles
 Normal termination of Gaussian 16 at Thu Dec 10 17:21:07 2020.
 Gaussian 16:  ES64L-G16RevA.03 25-Dec-2016

 ----------------------------------------------------------------------
 # B3LYP/6-311++G(d,p) empiricaldispersion=gd3bj scf=xqc pop=npa geom=c
 heck
 ----------------------------------------------------------------------

 ------------------------------------
 CID_106713870_JID_5730_Energie_anion
 ------------------------------------
 Structure from the checkpoint file:  "JID_5730.chk"
 Charge = -1 Multiplicity = 2

                         Standard orientation:
 ---------------------------------------------------------------------
 Center     Atomic      Atomic             Coordinates (Angstroms)
 Number     Number       Type             X           Y           Z
 ---------------------------------------------------------------------
      1          6           0        1.706267    2.580516    0.541675
      2          6           0        2.382056    1.222895    0.753058
      3          7           0        2.485038    0.434231   -0.465707
      4          6           0        3.613223   -0.476685   -0.539758
      5          6           0        3.693488   -1.603459    0.506867
      6          6           0        1.270595    0.063260   -1.173243
      7          6           0        0.514101   -1.220413   -0.757034
      8          6           0        0.065671   -1.329380    0.707802
      9          6           0       -0.921928   -0.272814    1.225776
     10          6           0       -2.322905   -0.216094    0.559511
     11          6           0       -2.961601   -1.607094    0.450926
     12          6           0       -3.224647    0.701660    1.419481
     13          6           0       -2.207412    0.489275   -0.788893
     14          8           0       -1.679113    1.570634   -0.955574
     15          8           0       -2.794949   -0.173619   -1.814947
     16          1           0        1.754749    3.168903    1.465403
     17          1           0        0.651265    2.486258    0.266115
     18          1           0        2.214468    3.135337   -0.253987
     19          1           0        3.409906    1.399703    1.095926
     20          1           0        1.877957    0.695080    1.582999
     21          1           0        3.615719   -0.916265   -1.545718
     22          1           0        4.534006    0.121219   -0.461532
     23          1           0        2.866997   -2.313519    0.412651
     24          1           0        4.631602   -2.160258    0.391225
     25          1           0        3.673972   -1.196592    1.524295
     26          1           0        0.586388    0.912244   -1.131321
     27          1           0        1.532541   -0.057551   -2.235247
     28          1           0       -0.356032   -1.315806   -1.422441
     29          1           0        1.144266   -2.090557   -0.981697
     30          1           0       -0.366424   -2.326199    0.862650
     31          1           0        0.951376   -1.292560    1.351400
     32          1           0       -1.089750   -0.469809    2.292757
     33          1           0       -0.479048    0.725395    1.164387
     34          1           0       -2.983217   -2.075480    1.441462
     35          1           0       -3.989184   -1.540732    0.082241
     36          1           0       -2.408706   -2.263481   -0.225228
     37          1           0       -2.774613    1.692248    1.528699
     38          1           0       -4.215695    0.819937    0.967014
     39          1           0       -3.355564    0.261466    2.413766
     40          1           0       -2.671203    0.395298   -2.598706
 ---------------------------------------------------------------------

 SCF Done:  E(UB3LYP) =  -677.798397259     A.U. after   33 cycles
 SCF Done:  E(UB3LYP) =  -677.798397259     a.u. after    1 cycles

 The electronic state is 2-A.
 Alpha  occ. eigenvalues --  -19.07347 -19.01803 -14.19658 -10.20866 -10.10486
 Alpha  occ. eigenvalues --  -10.09657 -10.09597 -10.08424 -10.07309 -10.07280
 Alpha  occ. eigenvalues --  -10.06680 -10.06418 -10.06176 -10.06154 -10.06084
 Alpha  occ. eigenvalues --   -1.01470  -0.92344  -0.81998  -0.73890  -0.68293
 Alpha  occ. eigenvalues --   -0.66536  -0.63963  -0.60236  -0.59818  -0.56406
 Alpha  occ. eigenvalues --   -0.55326  -0.53164  -0.50025  -0.46339  -0.43988
 Alpha  occ. eigenvalues --   -0.40233  -0.39971  -0.39290  -0.37748  -0.37448
 Alpha  occ. eigenvalues --   -0.36382  -0.34156  -0.33977  -0.33110  -0.32454
 Alpha  occ. eigenvalues --   -0.32194  -0.31420  -0.29979  -0.29626  -0.29460
 Alpha  occ. eigenvalues --   -0.28460  -0.28312  -0.27303  -0.27040  -0.26441
 Alpha  occ. eigenvalues --   -0.26071  -0.25113  -0.24241  -0.24211  -0.22848
 Alpha  occ. eigenvalues --   -0.22597  -0.21813  -0.21519  -0.18493  -0.10127
 Alpha  occ. eigenvalues --    0.04296
 Alpha virt. eigenvalues --    0.06017   0.06564   0.07195   0.08056   0.08358
 Alpha virt. eigenvalues --    0.08703   0.08977   0.09263   0.10005   0.10422
 Alpha virt. eigenvalues --    0.10772   0.11281   0.11573   0.12041   0.12983

  Beta  occ. eigenvalues --  -19.07299 -19.01789 -14.19658 -10.20866 -10.10479
  Beta  occ. eigenvalues --  -10.09643 -10.09584 -10.08415 -10.07284 -10.07268
  Beta  occ. eigenvalues --  -10.06669 -10.06387 -10.06153 -10.06138 -10.06076
  Beta  occ. eigenvalues --   -1.01413  -0.92295  -0.81989  -0.73865  -0.68266
  Beta  occ. eigenvalues --   -0.66515  -0.63937  -0.60203  -0.59764  -0.56334
  Beta  occ. eigenvalues --   -0.55281  -0.53120  -0.49975  -0.46274  -0.43940
  Beta  occ. eigenvalues --   -0.40207  -0.39945  -0.39252  -0.37724  -0.37422
  Beta  occ. eigenvalues --   -0.36352  -0.34129  -0.33954  -0.33077  -0.32430
  Beta  occ. eigenvalues --   -0.32160  -0.31393  -0.29949  -0.29599  -0.29428
  Beta  occ. eigenvalues --   -0.28434  -0.28284  -0.27269  -0.27015  -0.26413
  Beta  occ. eigenvalues --   -0.26042  -0.25085  -0.24219  -0.24188  -0.22824
  Beta  occ. eigenvalues --   -0.22570  -0.21789  -0.21494  -0.18436  -0.10110
  Beta virt. eigenvalues --    0.06243   0.06974   0.07459   0.07507   0.08403
  Beta virt. eigenvalues --    0.08771   0.09005   0.09161   0.09637   0.10191
  Beta virt. eigenvalues --    0.10667   0.11038   0.11508   0.11850   0.12287

 Mulliken charges and spin densities:
               1          2
     1  C   -0.131515  -0.355393
     2  C   -0.060592  -0.194400
     3  N    0.155237   0.083297
     4  C   -0.270347   0.077955
     5  C    0.328438  -0.779189
     6  C   -0.292887  -0.518815
     7  C   -0.626480   0.564764
     8  C    0.142309  -0.551849
     9  C    0.453052  -0.884391
    10  C   -1.007403   1.919482
    11  C    0.859062  -1.511354
    12  C    0.641118  -1.135265
    13  C    0.118553  -0.736532
    14  O   -0.207785   0.023596
    15  O   -0.153697   0.098388
    16  H   -0.009400   0.134998
    17  H    0.168905  -0.001373
    18  H    0.086020   0.052838
    19  H    0.020941   0.120313
    20  H   -0.039305   0.135169
    21  H    0.009133   0.111358
    22  H   -0.020527   0.170311
    23  H   -0.117912   0.251532
    24  H   -0.427836   0.571549
    25  H   -0.000043   0.135981
    26  H    0.244000  -0.096412
    27  H   -0.173110   0.328288
    28  H    0.055990   0.115799
    29  H   -0.140199   0.323102
    30  H    0.042964   0.128977
    31  H    0.241064  -0.067752
    32  H   -0.125475   0.306998
    33  H    0.209160  -0.067061
    34  H   -0.251408   0.404941
    35  H   -0.043454   0.228482
    36  H   -0.074284   0.247314
    37  H    0.078240   0.077604
    38  H   -0.211107   0.369312
    39  H   -0.024284   0.176986
    40  H   -0.445135   0.740451
 Sum of Mulliken charges =  -1.00000   1.00000

 Dipole moment (field-independent basis, Debye):
    X=              1.6302    Y=              1.8369    Z=              2.1014  Tot=              3.2323
 Quadrupole moment (field-independent basis, Debye-Ang):
   XX=           -174.8268   YY=           -139.0748   ZZ=           -141.3447
   XY=              4.0730   XZ=             -6.0070   YZ=              2.3881

 Summary of Natural Population Analysis:

                                       Natural Population
                Natural  -----------------------------------------------
    Atom  No    Charge         Core      Valence    Rydberg      Total
 -----------------------------------------------------------------------
      C    1   -0.29241      0.99966     2.28825    0.00451     3.29241
      C    2   -0.08085      0.99962     2.07116    0.01007     3.08085
      N    3   -0.28628      0.99971     2.77329    0.01328     3.78628
      C    4   -0.07920      0.99962     2.06824    0.01133     3.07920
      C    5   -0.29693      0.99966     2.29248    0.00479     3.29693
      C    6   -0.08747      0.99959     2.07529    0.01259     3.08747
      C    7   -0.20335      0.99962     2.19529    0.00845     3.20335
      C    8   -0.19436      0.99961     2.18632    0.00843     3.19436
      C    9   -0.18708      0.99959     2.17706    0.01043     3.18708
      C   10   -0.08465      0.99952     2.07140    0.01373     3.08465
      C   11   -0.28754      0.99963     2.27978    0.00812     3.28754
      C   12   -0.27664      0.99963     2.26985    0.00717     3.27664
      C   13    0.41711      0.99962     1.55600    0.02727     2.58289
      O   14   -0.31654      0.99987     3.31051    0.00617     4.31654
      O   15   -0.34153      0.99987     3.33418    0.00747     4.34153
      H   16    0.09562      0.00000     0.40359    0.00079     0.40438
      H   17    0.10542      0.00000     0.39332    0.00126     0.39458
      H   18    0.09758      0.00000     0.40126    0.00116     0.40242
      H   19    0.09094      0.00000     0.40779    0.00127     0.40906
      H   20    0.07846      0.00000     0.41941    0.00213     0.42154
      H   21    0.09256      0.00000     0.40639    0.00105     0.40744
      H   22    0.08699      0.00000     0.41189    0.00112     0.41301
      H   23    0.09748      0.00000     0.40116    0.00136     0.40252
      H   24    0.09707      0.00000     0.40153    0.00140     0.40293
      H   25    0.09587      0.00000     0.40299    0.00114     0.40413
      H   26    0.10494      0.00000     0.39318    0.00188     0.39506
      H   27    0.09160      0.00000     0.40712    0.00128     0.40840
      H   28    0.09874      0.00000     0.39942    0.00183     0.40126
      H   29    0.09624      0.00000     0.40246    0.00129     0.40376
      H   30    0.09845      0.00000     0.40029    0.00126     0.40155
      H   31    0.09953      0.00000     0.39881    0.00166     0.40047
      H   32    0.09926      0.00000     0.39952    0.00121     0.40074
      H   33    0.10574      0.00000     0.39239    0.00187     0.39426
      H   34    0.09983      0.00000     0.39902    0.00115     0.40017
      H   35    0.10636      0.00000     0.39244    0.00120     0.39364
      H   36    0.10660      0.00000     0.39213    0.00126     0.39340
      H   37    0.10641      0.00000     0.39263    0.00097     0.39359
      H   38    0.10169      0.00000     0.39733    0.00098     0.39831
      H   39    0.10056      0.00000     0.39845    0.00099     0.39944
      H   40    0.24377      0.00000     0.24402    0.01221     0.25623
 =======================================================================
   * Total *   -0.00000     14.99483    44.80764    0.19753    60.00000

 Normal termination of Gaussian 16 at Thu Dec 10 17:42:20 2020.
