 Gaussian 16, Revision A.03,

 -----------------------------------------------------------
 # opt freq B3LYP/6-31G(d) empiricaldispersion=gd3bj scf=xqc
 -----------------------------------------------------------

 -------------------------------
 CID_150162998_JID_6440_neutraal
 -------------------------------
 Symbolic Z-matrix:
 Charge =  0 Multiplicity = 1

 SCF Done:  E(RB3LYP) =  -706.958329651     A.U. after   15 cycles
 SCF Done:  E(RB3LYP) =  -706.963768439     A.U. after   14 cycles
 SCF Done:  E(RB3LYP) =  -706.957508528     A.U. after   14 cycles
 SCF Done:  E(RB3LYP) =  -706.964568133     A.U. after   14 cycles
 SCF Done:  E(RB3LYP) =  -706.967802638     A.U. after   13 cycles
 SCF Done:  E(RB3LYP) =  -706.966235669     A.U. after   15 cycles
 SCF Done:  E(RB3LYP) =  -706.970252062     A.U. after   14 cycles
 SCF Done:  E(RB3LYP) =  -706.971404772     A.U. after   16 cycles
 SCF Done:  E(RB3LYP) =  -706.971701327     A.U. after   13 cycles
 SCF Done:  E(RB3LYP) =  -706.971701972     A.U. after   12 cycles
 SCF Done:  E(RB3LYP) =  -706.971887277     A.U. after   11 cycles
 SCF Done:  E(RB3LYP) =  -706.971892582     A.U. after   10 cycles
 SCF Done:  E(RB3LYP) =  -706.971893990     A.U. after   10 cycles
 SCF Done:  E(RB3LYP) =  -706.971894364     A.U. after    8 cycles
 SCF Done:  E(RB3LYP) =  -706.971894396     A.U. after    7 cycles
 Optimization completed.
    -- Stationary point found.
 Normal termination of Gaussian 16 at Thu Dec 10 23:06:12 2020.

 --------------------------------------------------------------------
 #N Geom=AllCheck Guess=TCheck SCRF=Check GenChk RB3LYP/6-31G(d) Freq
 --------------------------------------------------------------------

 Structure from the checkpoint file:  "JID_6440.chk"
 -------------------------------
 CID_150162998_JID_6440_neutraal
 -------------------------------
 Charge =  0 Multiplicity = 1

 SCF Done:  E(RB3LYP) =  -706.971894396     A.U. after    1 cycles

  Exact polarizability: 195.814 -17.523 176.848   1.134  -1.484  89.697
 Approx polarizability: 298.947 -49.968 295.008   8.194  -2.974 135.902

                      1                      2                      3
                      A                      A                      A
 Frequencies --     30.3908                45.7329                61.2220
 Red. masses --      3.0110                 5.6365                 3.1094
 Frc consts  --      0.0016                 0.0069                 0.0069
 IR Inten    --      0.7912                 0.0695                 0.5396

                      4                      5                      6
                      A                      A                      A
 Frequencies --     95.9036               116.5743               131.7184
 Red. masses --      3.0778                 4.6212                 5.5999
 Frc consts  --      0.0167                 0.0370                 0.0572
 IR Inten    --      1.1657                 0.8730                 0.6190

                      7                      8                      9
                      A                      A                      A
 Frequencies --    172.3931               185.7425               208.2061
 Red. masses --      1.0749                 1.1096                 2.2523
 Frc consts  --      0.0188                 0.0226                 0.0575
 IR Inten    --      0.1208                 0.1709                 1.7322

                     10                     11                     12
                      A                      A                      A
 Frequencies --    225.7170               238.3785               249.9146
 Red. masses --      1.5659                 1.2097                 4.0408
 Frc consts  --      0.0470                 0.0405                 0.1487
 IR Inten    --      1.4366                 0.3126                 1.0392

                     13                     14                     15
                      A                      A                      A
 Frequencies --    264.3277               287.1599               314.3837
 Red. masses --      1.9789                 2.6924                 3.3134
 Frc consts  --      0.0815                 0.1308                 0.1930
 IR Inten    --      0.0329                 0.1986                 2.3677

                     16                     17                     18
                      A                      A                      A
 Frequencies --    346.5030               374.4766               401.6611
 Red. masses --      4.5814                 2.9688                 6.1529
 Frc consts  --      0.3241                 0.2453                 0.5849
 IR Inten    --      3.1767                 1.7944                 1.0216

                     19                     20                     21
                      A                      A                      A
 Frequencies --    408.5995               416.9107               431.8308
 Red. masses --      2.2383                 1.8648                 2.8060
 Frc consts  --      0.2202                 0.1910                 0.3083
 IR Inten    --      0.7736                 2.5907                 2.9207

                     22                     23                     24
                      A                      A                      A
 Frequencies --    461.6224               469.1221               523.0819
 Red. masses --      1.8021                 4.3971                 4.1138
 Frc consts  --      0.2263                 0.5702                 0.6632
 IR Inten    --      0.9544                 3.6056                 2.4638

                     25                     26                     27
                      A                      A                      A
 Frequencies --    529.7837               553.6538               574.3146
 Red. masses --      8.2163                 4.2544                 3.4727
 Frc consts  --      1.3587                 0.7684                 0.6749
 IR Inten    --      6.2683                 2.3136                 1.4490

                     28                     29                     30
                      A                      A                      A
 Frequencies --    628.2285               671.2612               694.2012
 Red. masses --      3.5914                 3.6515                 5.6231
 Frc consts  --      0.8351                 0.9694                 1.5966
 IR Inten    --      1.0288                 3.2099                19.9506

                     31                     32                     33
                      A                      A                      A
 Frequencies --    770.7818               780.7598               802.1753
 Red. masses --      6.0771                 7.2210                 3.7335
 Frc consts  --      2.1272                 2.5935                 1.4155
 IR Inten    --      2.3426                10.6084                 4.1314

                     34                     35                     36
                      A                      A                      A
 Frequencies --    836.7174               879.1904               936.4756
 Red. masses --      1.5873                 2.6239                 1.3262
 Frc consts  --      0.6547                 1.1950                 0.6853
 IR Inten    --     22.2243                 7.1984                 0.4070

                     37                     38                     39
                      A                      A                      A
 Frequencies --    938.0350               944.4700               958.3305
 Red. masses --      2.0821                 2.0711                 2.7686
 Frc consts  --      1.0794                 1.0885                 1.4981
 IR Inten    --      1.2911                 0.2661                11.4737

                     40                     41                     42
                      A                      A                      A
 Frequencies --    975.6199              1046.3159              1065.2369
 Red. masses --      1.1936                 1.7645                 1.4379
 Frc consts  --      0.6694                 1.1381                 0.9613
 IR Inten    --      0.3010                16.6898                 0.4053

                     43                     44                     45
                      A                      A                      A
 Frequencies --   1068.0545              1073.3507              1079.8141
 Red. masses --      1.5697                 1.8229                 2.3358
 Frc consts  --      1.0550                 1.2373                 1.6046
 IR Inten    --      8.8605                31.3008                80.1611

                     46                     47                     48
                      A                      A                      A
 Frequencies --   1179.7402              1188.5041              1190.1753
 Red. masses --      1.8131                 1.3596                 1.8319
 Frc consts  --      1.4868                 1.1315                 1.5289
 IR Inten    --     26.1266                 4.6908                 8.7067

                     49                     50                     51
                      A                      A                      A
 Frequencies --   1213.5850              1223.8110              1235.3812
 Red. masses --      2.1403                 1.7914                 2.6347
 Frc consts  --      1.8572                 1.5808                 2.3691
 IR Inten    --     10.8352                 7.3671                 5.7542

                     52                     53                     54
                      A                      A                      A
 Frequencies --   1247.6300              1285.1930              1292.6350
 Red. masses --      2.8936                 2.4878                 3.2381
 Frc consts  --      2.6538                 2.4211                 3.1879
 IR Inten    --      3.0661                23.0232               176.4051

                     55                     56                     57
                      A                      A                      A
 Frequencies --   1307.0933              1380.8839              1423.4285
 Red. masses --      7.3307                10.3000                 1.2002
 Frc consts  --      7.3791                11.5718                 1.4328
 IR Inten    --      1.2922               106.9804                 6.5744

                     58                     59                     60
                      A                      A                      A
 Frequencies --   1426.4502              1440.8168              1444.1442
 Red. masses --      1.2184                 1.3996                 3.0989
 Frc consts  --      1.4607                 1.7118                 3.8078
 IR Inten    --      2.1615                 0.9149                 2.5458

                     61                     62                     63
                      A                      A                      A
 Frequencies --   1462.5630              1473.7166              1508.7071
 Red. masses --      1.3072                 1.6954                 1.1505
 Frc consts  --      1.6475                 2.1695                 1.5429
 IR Inten    --     18.9770                99.4191                 3.1580

                     64                     65                     66
                      A                      A                      A
 Frequencies --   1508.9203              1511.3516              1516.3451
 Red. masses --      1.1184                 1.2301                 1.0524
 Frc consts  --      1.5003                 1.6555                 1.4256
 IR Inten    --      4.5922                54.7924                 8.1629

                     67                     68                     69
                      A                      A                      A
 Frequencies --   1525.0709              1531.8794              1533.3682
 Red. masses --      1.0508                 1.1056                 1.0532
 Frc consts  --      1.4400                 1.5286                 1.4590
 IR Inten    --      3.8500                 6.6097                 2.2799

                     70                     71                     72
                      A                      A                      A
 Frequencies --   1540.7197              1543.7103              1564.0029
 Red. masses --      1.0514                 1.0678                 1.0516
 Frc consts  --      1.4705                 1.4993                 1.5156
 IR Inten    --      0.5643                25.9360                 8.9741

                     73                     74                     75
                      A                      A                      A
 Frequencies --   1572.2673              1631.5193              1640.0962
 Red. masses --      1.0523                 5.6477                 6.3298
 Frc consts  --      1.5326                 8.8575                10.0317
 IR Inten    --     13.6614                 0.5596                 8.3986

                     76                     77                     78
                      A                      A                      A
 Frequencies --   2264.5754              3023.6197              3048.1744
 Red. masses --     13.9656                 1.0331                 1.0403
 Frc consts  --     42.1971                 5.5649                 5.6947
 IR Inten    --    896.5083                56.6707                34.1299

                     79                     80                     81
                      A                      A                      A
 Frequencies --   3052.8519              3068.1278              3081.3454
 Red. masses --      1.0421                 1.0400                 1.1050
 Frc consts  --      5.7221                 5.7679                 6.1817
 IR Inten    --     20.0475                24.8451                27.2321

                     82                     83                     84
                      A                      A                      A
 Frequencies --   3085.9728              3106.2860              3109.6371
 Red. masses --      1.0453                 1.1020                 1.1004
 Frc consts  --      5.8652                 6.2651                 6.2692
 IR Inten    --     53.1319                22.2242                30.5815

                     85                     86                     87
                      A                      A                      A
 Frequencies --   3127.7862              3144.4028              3149.2893
 Red. masses --      1.0955                 1.0996                 1.1010
 Frc consts  --      6.3146                 6.4058                 6.4340
 IR Inten    --     55.5533                 4.7617                38.8866

                     88                     89                     90
                      A                      A                      A
 Frequencies --   3168.2391              3168.4716              3177.7666
 Red. masses --      1.0962                 1.0995                 1.0992
 Frc consts  --      6.4833                 6.5037                 6.5396
 IR Inten    --     10.8661                21.2824                22.6305

                     91                     92                     93
                      A                      A                      A
 Frequencies --   3189.4074              3198.3075              3220.4469
 Red. masses --      1.0939                 1.0881                 1.0950
 Frc consts  --      6.5562                 6.5578                 6.6913
 IR Inten    --     11.1254                 4.6666                 6.6094

 - Thermochemistry -
 -------------------
 Temperature   298.150 Kelvin.  Pressure   1.00000 Atm.
 Atom     1 has atomic number  6 and mass  12.00000

 Molecular mass:   219.13716 amu.
 Principal axes and moments of inertia in atomic units:
                           1         2         3
     Eigenvalues --  2641.473464126.063786185.13752
           X            0.99835   0.05686  -0.00783
           Y           -0.05690   0.99837  -0.00419
           Z            0.00758   0.00463   0.99996
 This molecule is an asymmetric top.
 Rotational symmetry number  1.
 Warning -- assumption of classical behavior for rotation
           may cause significant error
 Rotational temperatures (Kelvin)      0.03279     0.02099     0.01400
 Rotational constants (GHZ):           0.68323     0.43740     0.29179
 Zero-point vibrational energy     730898.9 (Joules/Mol)
                                  174.68904 (Kcal/Mol)
 Warning -- explicit consideration of  27 degrees of freedom as
           vibrations may cause significant error
 Vibrational temperatures:     43.73    65.80    88.08   137.98   167.72
          (Kelvin)            189.51   248.04   267.24   299.56   324.76
                              342.97   359.57   380.31   413.16   452.33
                              498.54   538.79   577.90   587.88   599.84
                              621.31   664.17   674.96   752.60   762.24
                              796.58   826.31   903.88   965.80   998.80
                             1108.98  1123.34  1154.15  1203.85  1264.96
                             1347.38  1349.62  1358.88  1378.82  1403.70
                             1505.42  1532.64  1536.69  1544.31  1553.61
                             1697.38  1709.99  1712.40  1746.08  1760.79
                             1777.44  1795.06  1849.11  1859.81  1880.62
                             1986.78  2048.00  2052.34  2073.01  2077.80
                             2104.30  2120.35  2170.69  2171.00  2174.50
                             2181.68  2194.24  2204.03  2206.17  2216.75
                             2221.05  2250.25  2262.14  2347.39  2359.73
                             3258.22  4350.31  4385.64  4392.37  4414.35
                             4433.37  4440.03  4469.25  4474.07  4500.19
                             4524.09  4531.12  4558.39  4558.72  4572.10
                             4588.85  4601.65  4633.50

 Zero-point correction=                           0.278385 (Hartree/Particle)
 Thermal correction to Energy=                    0.294952
 Thermal correction to Enthalpy=                  0.295897
 Thermal correction to Gibbs Free Energy=         0.234457
 Sum of electronic and zero-point Energies=           -706.693510
 Sum of electronic and thermal Energies=              -706.676942
 Sum of electronic and thermal Enthalpies=            -706.675998
 Sum of electronic and thermal Free Energies=         -706.737438

                     E (Thermal)             CV                S
                      KCal/Mol        Cal/Mol-Kelvin    Cal/Mol-Kelvin
 Total                  185.085             62.720            129.311
 Electronic               0.000              0.000              0.000
 Translational            0.889              2.981             42.057
 Rotational               0.889              2.981             32.577
 Vibrational            183.308             56.758             54.677
 Vibration     1          0.594              1.984              5.804
 Vibration     2          0.595              1.979              4.994
 Vibration     3          0.597              1.973              4.417
 Vibration     4          0.603              1.952              3.536
 Vibration     5          0.608              1.936              3.156
 Vibration     6          0.612              1.922              2.921
 Vibration     7          0.626              1.876              2.409
 Vibration     8          0.632              1.859              2.270
 Vibration     9          0.642              1.828              2.059
 Vibration    10          0.650              1.802              1.913
 Vibration    11          0.656              1.782              1.815
 Vibration    12          0.663              1.763              1.731
 Vibration    13          0.671              1.738              1.633
 Vibration    14          0.684              1.698              1.491
 Vibration    15          0.702              1.646              1.339
 Vibration    16          0.724              1.582              1.182
 Vibration    17          0.746              1.524              1.061
 Vibration    18          0.767              1.467              0.957
 Vibration    19          0.773              1.452              0.932
 Vibration    20          0.780              1.434              0.903
 Vibration    21          0.793              1.401              0.853
 Vibration    22          0.819              1.335              0.761
 Vibration    23          0.826              1.319              0.740
 Vibration    24          0.878              1.199              0.603
 Vibration    25          0.885              1.184              0.588
 Vibration    26          0.909              1.132              0.537
 Vibration    27          0.931              1.087              0.496

 Optimization completed.
    -- Stationary point found.
 Normal termination of Gaussian 16 at Thu Dec 10 23:17:25 2020.

 ----------------------------------------------------------------------
 # B3LYP/6-311++G(d,p) empiricaldispersion=gd3bj scf=xqc pop=npa geom=c
 heck
 ----------------------------------------------------------------------

 ---------------------------------------
 CID_150162998_JID_6440_Energie_neutraal
 ---------------------------------------
 Structure from the checkpoint file:  "JID_6440.chk"
 Charge =  0 Multiplicity = 1

 SCF Done:  E(RB3LYP) =  -707.160183097     A.U. after   16 cycles
 Normal termination of Gaussian 16 at Thu Dec 10 23:22:27 2020.

 ----------------------------------------------------------------------
 # B3LYP/6-311++G(d,p) empiricaldispersion=gd3bj scf=xqc pop=npa geom=c
 heck
 ----------------------------------------------------------------------

 -------------------------------------
 CID_150162998_JID_6440_Energie_kation
 -------------------------------------
 Structure from the checkpoint file:  "JID_6440.chk"
 Charge =  1 Multiplicity = 2

 SCF Done:  E(UB3LYP) =  -706.870837487     A.U. after   25 cycles
 Normal termination of Gaussian 16 at Thu Dec 10 23:32:53 2020.
 Gaussian 16:  ES64L-G16RevA.03 25-Dec-2016

 ----------------------------------------------------------------------
 # B3LYP/6-311++G(d,p) empiricaldispersion=gd3bj scf=xqc pop=npa geom=c
 heck
 ----------------------------------------------------------------------

 ------------------------------------
 CID_150162998_JID_6440_Energie_anion
 ------------------------------------
 Structure from the checkpoint file:  "JID_6440.chk"
 Charge = -1 Multiplicity = 2

                         Standard orientation:
 ---------------------------------------------------------------------
 Center     Atomic      Atomic             Coordinates (Angstroms)
 Number     Number       Type             X           Y           Z
 ---------------------------------------------------------------------
      1          6           0       -2.154692    1.596118   -0.544647
      2          6           0       -1.250611    0.411398   -0.259669
      3          6           0       -1.904421   -0.840614   -0.259181
      4          6           0       -1.213464   -2.040202   -0.160796
      5          6           0        0.165807   -2.009624   -0.079822
      6          6           0        0.837844   -0.784818   -0.048617
      7          6           0        0.159311    0.465421   -0.083787
      8          6           0        1.002664    1.766331    0.087328
      9          6           0        1.813505    1.678368    1.408889
     10          6           0        1.942450    1.946788   -1.127779
     11          6           0        0.212737    3.085901    0.223970
     12          7           0        2.265739   -0.788387   -0.004953
     13          7           0        2.860767   -1.866771    0.015271
     14          7           0        3.534842   -2.789723    0.033790
     15          8           0       -3.279727   -0.914988   -0.405163
     16          6           0       -3.990197   -0.823200    0.826826
     17          1           0       -3.123144    1.221473   -0.875474
     18          1           0       -2.322213    2.237729    0.324302
     19          1           0       -1.754578    2.219142   -1.345463
     20          1           0       -1.762403   -2.975682   -0.181844
     21          1           0        0.728972   -2.936959   -0.042092
     22          1           0        2.496552    0.831979    1.438360
     23          1           0        2.405146    2.592836    1.530804
     24          1           0        1.131170    1.603177    2.263485
     25          1           0        1.356131    2.052111   -2.047949
     26          1           0        2.538716    2.858567   -1.002070
     27          1           0        2.627145    1.107182   -1.250607
     28          1           0       -0.297317    3.385511   -0.691647
     29          1           0       -0.511414    3.055501    1.042115
     30          1           0        0.932214    3.877563    0.458582
     31          1           0       -3.824139    0.146340    1.315424
     32          1           0       -5.049890   -0.930537    0.584416
     33          1           0       -3.688163   -1.623058    1.515913
 ---------------------------------------------------------------------

 SCF Done:  E(UB3LYP) =  -707.152519405     A.U. after   33 cycles
 SCF Done:  E(UB3LYP) =  -707.152519405     a.u. after    1 cycles

 The electronic state is 2-A.
 Alpha  occ. eigenvalues --  -19.03601 -14.33685 -14.24627 -14.23910 -10.11667
 Alpha  occ. eigenvalues --  -10.11656 -10.11214 -10.09249 -10.08608 -10.08494
 Alpha  occ. eigenvalues --  -10.07113 -10.06943 -10.05961 -10.05561 -10.05115
 Alpha  occ. eigenvalues --  -10.04715  -1.01318  -0.95307  -0.86265  -0.75902
 Alpha  occ. eigenvalues --   -0.71325  -0.67343  -0.64947  -0.60655  -0.58390
 Alpha  occ. eigenvalues --   -0.58140  -0.57309  -0.52375  -0.51133  -0.45347
 Alpha  occ. eigenvalues --   -0.43319  -0.41214  -0.40235  -0.38773  -0.37094
 Alpha  occ. eigenvalues --   -0.36335  -0.35952  -0.34318  -0.34044  -0.32977
 Alpha  occ. eigenvalues --   -0.32352  -0.31800  -0.31207  -0.30895  -0.29583
 Alpha  occ. eigenvalues --   -0.28608  -0.27632  -0.26484  -0.26291  -0.25996
 Alpha  occ. eigenvalues --   -0.24483  -0.23665  -0.22984  -0.21465  -0.18289
 Alpha  occ. eigenvalues --   -0.18082  -0.17602  -0.14360  -0.10496   0.04504
 Alpha virt. eigenvalues --    0.06187   0.06890   0.07987   0.08252   0.08362
 Alpha virt. eigenvalues --    0.09020   0.09193   0.09646   0.09914   0.10845
 Alpha virt. eigenvalues --    0.11287   0.11527   0.12228   0.12758   0.12821

  Beta  occ. eigenvalues --  -19.03602 -14.33302 -14.24225 -14.23954 -10.11655
  Beta  occ. eigenvalues --  -10.11607 -10.11126 -10.09248 -10.08619 -10.08472
  Beta  occ. eigenvalues --  -10.07113 -10.06932 -10.05945 -10.05541 -10.05098
  Beta  occ. eigenvalues --  -10.04695  -1.00653  -0.95295  -0.85971  -0.75838
  Beta  occ. eigenvalues --   -0.71310  -0.67253  -0.64859  -0.60591  -0.58300
  Beta  occ. eigenvalues --   -0.58090  -0.57266  -0.52218  -0.51097  -0.45237
  Beta  occ. eigenvalues --   -0.43202  -0.40930  -0.40031  -0.38416  -0.36425
  Beta  occ. eigenvalues --   -0.36147  -0.35847  -0.34232  -0.33911  -0.32470
  Beta  occ. eigenvalues --   -0.32051  -0.31606  -0.31004  -0.30830  -0.29536
  Beta  occ. eigenvalues --   -0.28571  -0.27597  -0.26460  -0.26211  -0.25969
  Beta  occ. eigenvalues --   -0.24438  -0.23477  -0.22948  -0.21429  -0.18200
  Beta  occ. eigenvalues --   -0.17678  -0.17270  -0.14295  -0.10350
  Beta virt. eigenvalues --    0.06727   0.07344   0.08080   0.08483   0.08555
  Beta virt. eigenvalues --    0.09175   0.09453   0.09649   0.10042   0.10221
  Beta virt. eigenvalues --    0.11041   0.11448   0.11751   0.12443   0.12868

 Mulliken charges and spin densities:
               1          2
     1  C    0.688279  -1.293594
     2  C    0.044186   0.648577
     3  C   -0.937462  -0.343094
     4  C   -0.066691   0.297778
     5  C   -0.175202  -0.065755
     6  C   -0.699664   0.034383
     7  C    1.103774  -0.407852
     8  C   -1.166677   1.626319
     9  C   -0.032451  -0.633517
    10  C    0.034021  -0.725738
    11  C   -0.080845  -0.363040
    12  N   -0.319630   0.170695
    13  N    0.616114  -0.041321
    14  N   -0.190586   0.192124
    15  O   -0.187872   0.042954
    16  C    0.927742  -1.239391
    17  H    0.196460   0.012416
    18  H    0.038544   0.129980
    19  H   -0.052306   0.172214
    20  H    0.063532   0.103364
    21  H    0.192940  -0.019165
    22  H   -0.023789   0.179727
    23  H    0.002348   0.133059
    24  H    0.062800   0.072848
    25  H    0.058882   0.080003
    26  H   -0.017823   0.162505
    27  H    0.036745   0.128061
    28  H    0.041156   0.073273
    29  H   -0.116054   0.250161
    30  H   -0.179453   0.329384
    31  H   -0.378685   0.528303
    32  H   -0.262500   0.414601
    33  H   -0.219833   0.349737
 Sum of Mulliken charges =  -1.00000   1.00000

 Dipole moment (field-independent basis, Debye):
    X=              0.7800    Y=              0.0363    Z=             -1.7152  Tot=              1.8846
 Quadrupole moment (field-independent basis, Debye-Ang):
   XX=           -173.9211   YY=           -140.7255   ZZ=           -121.8634
   XY=              6.8974   XZ=              5.5115   YZ=             -2.3845

 Summary of Natural Population Analysis:

                                       Natural Population
                Natural  -----------------------------------------------
    Atom  No    Charge         Core      Valence    Rydberg      Total
 -----------------------------------------------------------------------
      C    1   -0.29840      0.99963     2.29275    0.00603     3.29840
      C    2   -0.02372      0.99945     2.01516    0.00911     3.02372
      C    3    0.14347      0.99932     1.84334    0.01387     2.85653
      C    4   -0.11226      0.99950     2.10390    0.00886     3.11226
      C    5   -0.11769      0.99952     2.11103    0.00713     3.11769
      C    6    0.08131      0.99940     1.90737    0.01192     2.91869
      C    7   -0.01317      0.99943     2.00236    0.01138     3.01317
      C    8   -0.05086      0.99958     2.03957    0.01171     3.05086
      C    9   -0.28287      0.99962     2.27738    0.00587     3.28287
      C   10   -0.28318      0.99962     2.27778    0.00577     3.28318
      C   11   -0.28254      0.99964     2.27544    0.00746     3.28254
      N   12   -0.20261      0.99964     2.68945    0.01352     3.70261
      N   13    0.15310      0.99970     2.33154    0.01566     3.34690
      N   14   -0.00542      0.99982     2.49310    0.01250     3.50542
      O   15   -0.29804      0.99987     3.28813    0.01005     4.29804
      C   16   -0.09550      0.99959     2.08683    0.00908     3.09550
      H   17    0.11074      0.00000     0.38785    0.00141     0.38926
      H   18    0.10595      0.00000     0.39286    0.00119     0.39405
      H   19    0.10208      0.00000     0.39707    0.00085     0.39792
      H   20    0.10338      0.00000     0.39565    0.00097     0.39662
      H   21    0.10361      0.00000     0.39508    0.00132     0.39639
      H   22    0.11346      0.00000     0.38542    0.00112     0.38654
      H   23    0.09408      0.00000     0.40498    0.00094     0.40592
      H   24    0.09808      0.00000     0.40099    0.00094     0.40192
      H   25    0.09620      0.00000     0.40299    0.00082     0.40380
      H   26    0.09448      0.00000     0.40462    0.00090     0.40552
      H   27    0.11278      0.00000     0.38617    0.00105     0.38722
      H   28    0.09805      0.00000     0.40095    0.00100     0.40195
      H   29    0.10133      0.00000     0.39762    0.00105     0.39867
      H   30    0.09862      0.00000     0.40050    0.00088     0.40138
      H   31    0.08391      0.00000     0.41428    0.00181     0.41609
      H   32    0.08973      0.00000     0.40868    0.00158     0.41027
      H   33    0.08191      0.00000     0.41658    0.00151     0.41809
 =======================================================================
   * Total *   -0.00000     15.99333    42.82740    0.17927    59.00000

 Normal termination of Gaussian 16 at Thu Dec 10 23:47:25 2020.
