 Gaussian 16, Revision A.03,

 -----------------------------------------------------------
 # opt freq B3LYP/6-31G(d) empiricaldispersion=gd3bj scf=xqc
 -----------------------------------------------------------

 ------------------------------
 CID_82398144_JID_3180_neutraal
 ------------------------------
 Symbolic Z-matrix:
 Charge =  0 Multiplicity = 1

 SCF Done:  E(RB3LYP) =  -934.291896655     A.U. after   14 cycles
 SCF Done:  E(RB3LYP) =  -934.295646309     A.U. after   12 cycles
 SCF Done:  E(RB3LYP) =  -934.295192561     A.U. after   12 cycles
 SCF Done:  E(RB3LYP) =  -934.297598416     A.U. after   11 cycles
 SCF Done:  E(RB3LYP) =  -934.298203238     A.U. after   12 cycles
 SCF Done:  E(RB3LYP) =  -934.298381810     A.U. after   12 cycles
 SCF Done:  E(RB3LYP) =  -934.298473734     A.U. after   11 cycles
 SCF Done:  E(RB3LYP) =  -934.298551521     A.U. after   11 cycles
 SCF Done:  E(RB3LYP) =  -934.298633257     A.U. after   12 cycles
 SCF Done:  E(RB3LYP) =  -934.298676841     A.U. after   11 cycles
 SCF Done:  E(RB3LYP) =  -934.301275437     A.U. after   11 cycles
 SCF Done:  E(RB3LYP) =  -934.301344197     A.U. after   10 cycles
 SCF Done:  E(RB3LYP) =  -934.301355179     A.U. after    9 cycles
 SCF Done:  E(RB3LYP) =  -934.301358317     A.U. after    8 cycles
 SCF Done:  E(RB3LYP) =  -934.301359004     A.U. after    8 cycles
 Optimization completed.
    -- Stationary point found.
 Normal termination of Gaussian 16 at Wed Dec  9 22:37:07 2020.

 --------------------------------------------------------------------
 #N Geom=AllCheck Guess=TCheck SCRF=Check GenChk RB3LYP/6-31G(d) Freq
 --------------------------------------------------------------------

 Structure from the checkpoint file:  "JID_3180.chk"
 ------------------------------
 CID_82398144_JID_3180_neutraal
 ------------------------------
 Charge =  0 Multiplicity = 1

 SCF Done:  E(RB3LYP) =  -934.301359004     A.U. after    1 cycles

  Exact polarizability: 134.366   5.527 122.760   5.647   0.229  98.314
 Approx polarizability: 186.369   9.564 192.434  17.015   5.538 160.837

                      1                      2                      3
                      A                      A                      A
 Frequencies --     34.6605                87.0790                92.2548
 Red. masses --      4.7986                 3.5838                 3.6158
 Frc consts  --      0.0034                 0.0160                 0.0181
 IR Inten    --      1.9960                 0.1112                 0.1100

                      4                      5                      6
                      A                      A                      A
 Frequencies --    125.2877               152.4695               202.0309
 Red. masses --      4.3925                 3.9285                 2.0541
 Frc consts  --      0.0406                 0.0538                 0.0494
 IR Inten    --      3.5497                 1.1669                 0.9496

                      7                      8                      9
                      A                      A                      A
 Frequencies --    212.6528               246.7311               273.5656
 Red. masses --      1.8107                 2.8330                 2.3322
 Frc consts  --      0.0482                 0.1016                 0.1028
 IR Inten    --      0.3029                 0.9562                 2.3467

                     10                     11                     12
                      A                      A                      A
 Frequencies --    316.1380               359.4296               371.6688
 Red. masses --      2.4207                 3.4114                 2.9264
 Frc consts  --      0.1425                 0.2597                 0.2382
 IR Inten    --      2.3559                 0.7148                 1.8302

                     13                     14                     15
                      A                      A                      A
 Frequencies --    413.5397               473.2306               513.3136
 Red. masses --      3.7139                 2.7371                 3.5953
 Frc consts  --      0.3742                 0.3612                 0.5581
 IR Inten    --      0.1534                 9.6327                 6.9381

                     16                     17                     18
                      A                      A                      A
 Frequencies --    584.4191               622.2888               652.5614
 Red. masses --      2.6246                 7.1960                 4.5855
 Frc consts  --      0.5282                 1.6418                 1.1505
 IR Inten    --     16.9392                 3.8889                10.2907

                     19                     20                     21
                      A                      A                      A
 Frequencies --    661.7902               680.2297               708.0535
 Red. masses --      4.7481                 4.1052                 4.0948
 Frc consts  --      1.2252                 1.1192                 1.2095
 IR Inten    --      6.0281                 3.7396                 4.1565

                     22                     23                     24
                      A                      A                      A
 Frequencies --    794.3036               797.6509               813.1819
 Red. masses --      1.9415                 1.1890                 2.1680
 Frc consts  --      0.7217                 0.4457                 0.8447
 IR Inten    --     89.7895                 2.4868                 3.8902

                     25                     26                     27
                      A                      A                      A
 Frequencies --    876.2602               899.7805               906.0443
 Red. masses --      2.2581                 1.3333                 2.4328
 Frc consts  --      1.0215                 0.6360                 1.1767
 IR Inten    --     14.3139                 8.1815                 0.3208

                     28                     29                     30
                      A                      A                      A
 Frequencies --    933.0902               960.6493               969.7147
 Red. masses --      5.6660                 7.4128                 2.4484
 Frc consts  --      2.9065                 4.0305                 1.3565
 IR Inten    --      4.2971                10.8659                 5.7868

                     31                     32                     33
                      A                      A                      A
 Frequencies --    986.3742              1016.0426              1048.8875
 Red. masses --      2.3542                 2.2358                 1.5919
 Frc consts  --      1.3495                 1.3599                 1.0319
 IR Inten    --      6.6609                33.6196                 1.2934

                     34                     35                     36
                      A                      A                      A
 Frequencies --   1065.4769              1083.1382              1095.7128
 Red. masses --      1.6566                 1.7051                 1.8529
 Frc consts  --      1.1080                 1.1786                 1.3107
 IR Inten    --     13.2432                12.1947                 4.8781

                     37                     38                     39
                      A                      A                      A
 Frequencies --   1149.5387              1174.5099              1198.1277
 Red. masses --      2.8892                 2.8586                 2.0641
 Frc consts  --      2.2495                 2.3233                 1.7458
 IR Inten    --     23.7924                11.5697                 7.2888

                     40                     41                     42
                      A                      A                      A
 Frequencies --   1216.6784              1227.6764              1247.0177
 Red. masses --      1.3514                 1.6017                 1.3664
 Frc consts  --      1.1786                 1.4223                 1.2519
 IR Inten    --      3.4089                 8.8330                 1.5646

                     43                     44                     45
                      A                      A                      A
 Frequencies --   1262.3314              1303.7062              1313.7138
 Red. masses --      1.3234                 1.3077                 1.4744
 Frc consts  --      1.2425                 1.3095                 1.4992
 IR Inten    --      8.5591                 5.8725                11.0682

                     46                     47                     48
                      A                      A                      A
 Frequencies --   1324.4204              1355.3597              1363.8347
 Red. masses --      1.2673                 1.4518                 1.2131
 Frc consts  --      1.3097                 1.5713                 1.3295
 IR Inten    --      7.7875                17.0026                24.6071

                     49                     50                     51
                      A                      A                      A
 Frequencies --   1372.8250              1420.8126              1432.3492
 Red. masses --      1.4068                 2.3049                 1.7984
 Frc consts  --      1.5621                 2.7414                 2.1738
 IR Inten    --     15.6183                 4.5095                 8.1191

                     52                     53                     54
                      A                      A                      A
 Frequencies --   1440.6680              1482.9155              1493.6462
 Red. masses --      1.2913                 1.0935                 1.1007
 Frc consts  --      1.5790                 1.4167                 1.4468
 IR Inten    --      1.4571                 2.9061                12.8853

                     55                     56                     57
                      A                      A                      A
 Frequencies --   1517.8098              1522.9321              1525.3537
 Red. masses --      2.5937                 1.2463                 1.1138
 Frc consts  --      3.5205                 1.7031                 1.5268
 IR Inten    --     26.1146                10.8622                 0.4329

                     58                     59                     60
                      A                      A                      A
 Frequencies --   1527.3213              1527.9199              1541.5296
 Red. masses --      1.1910                 1.1745                 1.1047
 Frc consts  --      1.6369                 1.6155                 1.5467
 IR Inten    --      3.6197                 1.9842                 5.8536

                     61                     62                     63
                      A                      A                      A
 Frequencies --   1663.2722              3002.4199              3015.4520
 Red. masses --      7.8763                 1.0683                 1.0829
 Frc consts  --     12.8380                 5.6742                 5.8013
 IR Inten    --      3.6459                40.3497                16.7342

                     64                     65                     66
                      A                      A                      A
 Frequencies --   3049.4527              3060.5365              3070.3158
 Red. masses --      1.0357                 1.0660                 1.0707
 Frc consts  --      5.6743                 5.8829                 5.9466
 IR Inten    --     23.6670                22.0871                 6.4054

                     67                     68                     69
                      A                      A                      A
 Frequencies --   3083.0700              3092.0427              3100.2778
 Red. masses --      1.0831                 1.0639                 1.0963
 Frc consts  --      6.0655                 5.9928                 6.2086
 IR Inten    --     57.1868                19.4435                 1.4170

                     70                     71                     72
                      A                      A                      A
 Frequencies --   3118.6343              3126.3580              3134.3646
 Red. masses --      1.1029                 1.1022                 1.1065
 Frc consts  --      6.3201                 6.3475                 6.4048
 IR Inten    --     51.8223                34.9355                10.8321

                     73                     74                     75
                      A                      A                      A
 Frequencies --   3155.9014              3243.8846              3524.4480
 Red. masses --      1.1018                 1.0958                 1.0743
 Frc consts  --      6.4653                 6.7939                 7.8627
 IR Inten    --      5.8903                 5.5835                 2.2084

 - Thermochemistry -
 -------------------
 Temperature   298.150 Kelvin.  Pressure   1.00000 Atm.
 Atom     1 has atomic number  6 and mass  12.00000

 Molecular mass:   198.08268 amu.
 Principal axes and moments of inertia in atomic units:
                           1         2         3
     Eigenvalues --  1811.385712944.955703960.85530
           X            0.99567   0.09297  -0.00278
           Y           -0.09301   0.99536  -0.02474
           Z            0.00047   0.02489   0.99969
 This molecule is an asymmetric top.
 Rotational symmetry number  1.
 Warning -- assumption of classical behavior for rotation
           may cause significant error
 Rotational temperatures (Kelvin)      0.04782     0.02941     0.02187
 Rotational constants (GHZ):           0.99633     0.61282     0.45564
 Zero-point vibrational energy     600603.9 (Joules/Mol)
                                  143.54778 (Kcal/Mol)
 Warning -- explicit consideration of  16 degrees of freedom as
           vibrations may cause significant error
 Vibrational temperatures:     49.87   125.29   132.73   180.26   219.37
          (Kelvin)            290.68   305.96   354.99   393.60   454.85
                              517.14   534.75   594.99   680.87   738.54
                              840.85   895.33   938.89   952.17   978.70
                             1018.73  1142.83  1147.64  1169.99  1260.74
                             1294.58  1303.60  1342.51  1382.16  1395.20
                             1419.17  1461.86  1509.12  1532.98  1558.39
                             1576.49  1653.93  1689.86  1723.84  1750.53
                             1766.35  1794.18  1816.21  1875.74  1890.14
                             1905.55  1950.06  1962.25  1975.19  2044.23
                             2060.83  2072.80  2133.58  2149.02  2183.79
                             2191.16  2194.64  2197.47  2198.34  2217.92
                             2393.08  4319.81  4338.56  4387.48  4403.43
                             4417.50  4435.85  4448.76  4460.61  4487.02
                             4498.13  4509.65  4540.64  4667.23  5070.89

 Zero-point correction=                           0.228758 (Hartree/Particle)
 Thermal correction to Energy=                    0.240938
 Thermal correction to Enthalpy=                  0.241882
 Thermal correction to Gibbs Free Energy=         0.189795
 Sum of electronic and zero-point Energies=           -934.072601
 Sum of electronic and thermal Energies=              -934.060421
 Sum of electronic and thermal Enthalpies=            -934.059477
 Sum of electronic and thermal Free Energies=         -934.111564

                     E (Thermal)             CV                S
                      KCal/Mol        Cal/Mol-Kelvin    Cal/Mol-Kelvin
 Total                  151.191             46.891            109.627
 Electronic               0.000              0.000              0.000
 Translational            0.889              2.981             41.755
 Rotational               0.889              2.981             31.425
 Vibrational            149.413             40.929             36.447
 Vibration     1          0.594              1.983              5.543
 Vibration     2          0.601              1.958              3.725
 Vibration     3          0.602              1.955              3.612
 Vibration     4          0.610              1.928              3.017
 Vibration     5          0.619              1.900              2.641
 Vibration     6          0.639              1.837              2.115
 Vibration     7          0.644              1.822              2.021
 Vibration     8          0.661              1.768              1.754
 Vibration     9          0.676              1.722              1.574
 Vibration    10          0.703              1.643              1.330
 Vibration    11          0.734              1.556              1.125
 Vibration    12          0.743              1.530              1.073
 Vibration    13          0.777              1.441              0.914
 Vibration    14          0.830              1.309              0.729
 Vibration    15          0.868              1.220              0.626
 Vibration    16          0.941              1.065              0.477

                           ! Non-Optimized Parameters !
 Normal termination of Gaussian 16 at Wed Dec  9 22:45:17 2020.

 ----------------------------------------------------------------------
 # B3LYP/6-311++G(d,p) empiricaldispersion=gd3bj scf=xqc pop=npa geom=c
 heck
 ----------------------------------------------------------------------

 --------------------------------------
 CID_82398144_JID_3180_Energie_neutraal
 --------------------------------------
 Structure from the checkpoint file:  "JID_3180.chk"
 Charge =  0 Multiplicity = 1

 SCF Done:  E(RB3LYP) =  -934.474918412     A.U. after   15 cycles
 Normal termination of Gaussian 16 at Wed Dec  9 22:49:07 2020.

 ----------------------------------------------------------------------
 # B3LYP/6-311++G(d,p) empiricaldispersion=gd3bj scf=xqc pop=npa geom=c
 heck
 ----------------------------------------------------------------------

 ------------------------------------
 CID_82398144_JID_3180_Energie_kation
 ------------------------------------
 Structure from the checkpoint file:  "JID_3180.chk"
 Charge =  1 Multiplicity = 2

 SCF Done:  E(UB3LYP) =  -934.170896199     A.U. after   26 cycles
 Normal termination of Gaussian 16 at Wed Dec  9 22:58:35 2020.
 Gaussian 16:  ES64L-G16RevA.03 25-Dec-2016

 ----------------------------------------------------------------------
 # B3LYP/6-311++G(d,p) empiricaldispersion=gd3bj scf=xqc pop=npa geom=c
 heck
 ----------------------------------------------------------------------

 -----------------------------------
 CID_82398144_JID_3180_Energie_anion
 -----------------------------------
 Structure from the checkpoint file:  "JID_3180.chk"
 Charge = -1 Multiplicity = 2

                         Standard orientation:
 ---------------------------------------------------------------------
 Center     Atomic      Atomic             Coordinates (Angstroms)
 Number     Number       Type             X           Y           Z
 ---------------------------------------------------------------------
      1          6           0        2.617280    2.163127   -0.657180
      2          6           0        1.942943    1.493458    0.551137
      3          6           0        1.683009    0.028575    0.343934
      4          6           0        0.692681   -0.631769   -0.335283
      5          8           0        0.921522   -1.969897   -0.274098
      6          7           0        2.081827   -2.223521    0.463053
      7          6           0        2.512353   -1.036128    0.811233
      8          6           0       -0.519712   -0.279427   -1.174072
      9          6           0       -1.034477    1.150038   -0.978901
     10         16           0       -1.741278    1.448067    0.684715
     11          6           0       -2.896781    0.022002    0.688945
     12          6           0       -2.184217   -1.281382    0.344816
     13          7           0       -1.632580   -1.224771   -1.014087
     14          1           0        3.574264    1.682188   -0.886677
     15          1           0        2.805181    3.224560   -0.461672
     16          1           0        1.991595    2.089047   -1.554090
     17          1           0        2.590320    1.607416    1.428803
     18          1           0        1.010515    2.008967    0.800533
     19          1           0        3.414606   -0.956610    1.406667
     20          1           0       -0.211527   -0.357496   -2.227312
     21          1           0       -0.238810    1.883744   -1.120324
     22          1           0       -1.806044    1.330804   -1.732503
     23          1           0       -3.703052    0.211052   -0.027151
     24          1           0       -3.321457   -0.021576    1.695769
     25          1           0       -2.914688   -2.098724    0.362953
     26          1           0       -1.423299   -1.494682    1.112613
     27          1           0       -1.302527   -2.151506   -1.270799
 ---------------------------------------------------------------------

 SCF Done:  E(UB3LYP) =  -934.463925257     A.U. after   33 cycles
 SCF Done:  E(UB3LYP) =  -934.463925256     a.u. after    1 cycles

 The electronic state is 2-A.
 Alpha  occ. eigenvalues --  -88.73806 -19.09040 -14.24573 -14.20258 -10.12127
 Alpha  occ. eigenvalues --  -10.11682 -10.10063 -10.09937 -10.09793 -10.09671
 Alpha  occ. eigenvalues --  -10.07556 -10.07334 -10.05682  -7.82438  -5.78819
 Alpha  occ. eigenvalues --   -5.78490  -5.77795  -1.02837  -0.82348  -0.75729
 Alpha  occ. eigenvalues --   -0.71462  -0.69777  -0.67209  -0.63898  -0.56034
 Alpha  occ. eigenvalues --   -0.54605  -0.52901  -0.49750  -0.48348  -0.44334
 Alpha  occ. eigenvalues --   -0.42152  -0.39613  -0.37617  -0.35540  -0.34679
 Alpha  occ. eigenvalues --   -0.34219  -0.32766  -0.31910  -0.31116  -0.30261
 Alpha  occ. eigenvalues --   -0.29376  -0.29046  -0.27747  -0.27358  -0.25316
 Alpha  occ. eigenvalues --   -0.24507  -0.23410  -0.20796  -0.19918  -0.18913
 Alpha  occ. eigenvalues --   -0.14643  -0.13900  -0.12506   0.04511
 Alpha virt. eigenvalues --    0.06545   0.07368   0.08298   0.08794   0.08985
 Alpha virt. eigenvalues --    0.09384   0.09814   0.10356   0.11311   0.11917
 Alpha virt. eigenvalues --    0.12385   0.12826   0.13495   0.13856   0.14369

  Beta  occ. eigenvalues --  -88.73803 -19.08947 -14.24474 -14.20238 -10.11993
  Beta  occ. eigenvalues --  -10.11679 -10.10052 -10.09923 -10.09759 -10.09668
  Beta  occ. eigenvalues --  -10.07548 -10.07347 -10.05625  -7.82436  -5.78817
  Beta  occ. eigenvalues --   -5.78487  -5.77791  -1.02671  -0.82294  -0.75602
  Beta  occ. eigenvalues --   -0.71359  -0.69747  -0.67156  -0.63800  -0.55952
  Beta  occ. eigenvalues --   -0.54547  -0.52823  -0.49682  -0.48231  -0.44260
  Beta  occ. eigenvalues --   -0.42072  -0.39525  -0.37410  -0.35425  -0.34618
  Beta  occ. eigenvalues --   -0.34060  -0.32704  -0.31848  -0.31061  -0.30196
  Beta  occ. eigenvalues --   -0.29309  -0.28999  -0.27666  -0.27293  -0.25261
  Beta  occ. eigenvalues --   -0.24457  -0.23339  -0.20741  -0.19787  -0.18583
  Beta  occ. eigenvalues --   -0.14356  -0.13676  -0.12445
  Beta virt. eigenvalues --    0.06808   0.07388   0.07991   0.09004   0.09301
  Beta virt. eigenvalues --    0.09483   0.09849   0.10174   0.10701   0.11583
  Beta virt. eigenvalues --    0.12309   0.12586   0.13070   0.13862   0.14151

 Mulliken charges and spin densities:
               1          2
     1  C    1.640838  -2.265019
     2  C   -2.511277   2.216818
     3  C   -0.142895   1.019390
     4  C    0.948053  -2.158285
     5  O    0.122349   0.041483
     6  N   -0.282798   0.055450
     7  C    0.393873  -0.431364
     8  C   -0.059775   0.296002
     9  C    0.887136  -1.453610
    10  S   -0.163611   0.293462
    11  C   -0.353437  -0.549074
    12  C    0.311833  -0.351766
    13  N    0.051787  -0.101052
    14  H   -0.216055   0.361743
    15  H   -0.604470   0.742288
    16  H   -0.207288   0.337084
    17  H   -0.025095   0.169383
    18  H   -0.079865   0.213011
    19  H    0.010853   0.166813
    20  H   -0.645544   0.924626
    21  H    0.123278   0.067404
    22  H   -0.289658   0.539763
    23  H    0.145960   0.053180
    24  H    0.013887   0.177773
    25  H   -0.400565   0.576737
    26  H    0.191356  -0.064542
    27  H    0.141131   0.122303
 Sum of Mulliken charges =  -1.00000   1.00000

 Dipole moment (field-independent basis, Debye):
    X=             -2.1756    Y=             -1.6821    Z=              4.1898  Tot=              5.0117
 Quadrupole moment (field-independent basis, Debye-Ang):
   XX=           -138.0623   YY=           -138.0876   ZZ=           -119.1425
   XY=             -7.1743   XZ=              1.0658   YZ=              4.2474

 Summary of Natural Population Analysis:

                                       Natural Population
                Natural  -----------------------------------------------
    Atom  No    Charge         Core      Valence    Rydberg      Total
 -----------------------------------------------------------------------
      C    1   -0.27915      0.99966     2.27469    0.00481     3.27915
      C    2   -0.20073      0.99961     2.19189    0.00923     3.20073
      C    3   -0.08408      0.99944     2.07399    0.01065     3.08408
      C    4    0.19086      0.99941     1.79370    0.01602     2.80914
      O    5   -0.16931      0.99985     3.16039    0.00908     4.16931
      N    6   -0.07417      0.99971     2.56121    0.01326     3.57417
      C    7   -0.00146      0.99959     1.98817    0.01370     3.00146
      C    8   -0.03885      0.99954     2.02310    0.01621     3.03885
      C    9   -0.25132      0.99957     2.23950    0.01225     3.25132
      S   10    0.08361      4.99963     2.90010    0.01666     7.91639
      C   11   -0.25151      0.99959     2.24108    0.01085     3.25151
      C   12   -0.09589      0.99960     2.08463    0.01166     3.09589
      N   13   -0.33927      0.99974     2.82678    0.01275     3.83927
      H   14    0.09840      0.00000     0.40018    0.00142     0.40160
      H   15    0.09907      0.00000     0.39902    0.00191     0.40093
      H   16    0.09771      0.00000     0.40054    0.00175     0.40229
      H   17    0.09850      0.00000     0.40031    0.00119     0.40150
      H   18    0.10610      0.00000     0.39212    0.00178     0.39390
      H   19    0.09934      0.00000     0.39951    0.00116     0.40066
      H   20    0.11690      0.00000     0.37939    0.00371     0.38310
      H   21    0.11373      0.00000     0.38471    0.00156     0.38627
      H   22    0.10858      0.00000     0.38946    0.00196     0.39142
      H   23    0.10145      0.00000     0.39704    0.00151     0.39855
      H   24    0.10463      0.00000     0.39451    0.00086     0.39537
      H   25    0.09727      0.00000     0.40130    0.00144     0.40273
      H   26    0.08749      0.00000     0.41080    0.00171     0.41251
      H   27    0.18213      0.00000     0.31479    0.00308     0.31787
 =======================================================================
   * Total *   -0.00000     16.99494    35.82289    0.18217    53.00000

 Normal termination of Gaussian 16 at Wed Dec  9 23:10:22 2020.
