 Gaussian 16, Revision A.03,

 -----------------------------------------------------------
 # opt freq B3LYP/6-31G(d) empiricaldispersion=gd3bj scf=xqc
 -----------------------------------------------------------

 ------------------------------
 CID_76284059_JID_6956_neutraal
 ------------------------------
 Symbolic Z-matrix:
 Charge =  0 Multiplicity = 1

 SCF Done:  E(RB3LYP) =  -1392.66810704     A.U. after   16 cycles
 SCF Done:  E(RB3LYP) =  -1392.67886661     A.U. after   15 cycles
 SCF Done:  E(RB3LYP) =  -1392.67873129     A.U. after   14 cycles
 SCF Done:  E(RB3LYP) =  -1392.68141830     A.U. after   14 cycles
 SCF Done:  E(RB3LYP) =  -1392.68313891     A.U. after   14 cycles
 SCF Done:  E(RB3LYP) =  -1392.68426481     A.U. after   13 cycles
 SCF Done:  E(RB3LYP) =  -1392.68508082     A.U. after   15 cycles
 SCF Done:  E(RB3LYP) =  -1392.68557873     A.U. after   13 cycles
 SCF Done:  E(RB3LYP) =  -1392.68558681     A.U. after   14 cycles
 SCF Done:  E(RB3LYP) =  -1392.68596072     A.U. after   14 cycles
 SCF Done:  E(RB3LYP) =  -1392.68752886     A.U. after   11 cycles
 SCF Done:  E(RB3LYP) =  -1392.68752421     A.U. after   11 cycles
 SCF Done:  E(RB3LYP) =  -1392.68753206     A.U. after   11 cycles
 SCF Done:  E(RB3LYP) =  -1392.68753229     A.U. after    9 cycles
 SCF Done:  E(RB3LYP) =  -1392.68753233     A.U. after    8 cycles
 Optimization completed.
    -- Stationary point found.
 Normal termination of Gaussian 16 at Fri Dec 11 01:48:27 2020.

 --------------------------------------------------------------------
 #N Geom=AllCheck Guess=TCheck SCRF=Check GenChk RB3LYP/6-31G(d) Freq
 --------------------------------------------------------------------

 Structure from the checkpoint file:  "JID_6956.chk"
 ------------------------------
 CID_76284059_JID_6956_neutraal
 ------------------------------
 Charge =  0 Multiplicity = 1

 SCF Done:  E(RB3LYP) =  -1392.68753233     A.U. after    1 cycles

  Exact polarizability: 192.402  22.488 160.654 -36.233  10.151 141.013
 Approx polarizability: 289.935  30.415 250.043 -94.019  26.994 260.153

                      1                      2                      3
                      A                      A                      A
 Frequencies --     15.2765                26.3691                28.7485
 Red. masses --      8.5361                 1.0297                 6.6983
 Frc consts  --      0.0012                 0.0004                 0.0033
 IR Inten    --      1.0991                 0.2269                 1.6758

                      4                      5                      6
                      A                      A                      A
 Frequencies --     43.6811                56.9116                80.1961
 Red. masses --      5.0712                 5.2212                 4.5441
 Frc consts  --      0.0057                 0.0100                 0.0172
 IR Inten    --      0.3022                 0.4128                 1.1060

                      7                      8                      9
                      A                      A                      A
 Frequencies --    101.5565               130.8210               155.2640
 Red. masses --      5.8372                 3.9091                 4.5608
 Frc consts  --      0.0355                 0.0394                 0.0648
 IR Inten    --      3.9931                 3.3925                 5.6544

                     10                     11                     12
                      A                      A                      A
 Frequencies --    176.1429               194.7650               251.1003
 Red. masses --      5.2853                 3.6246                 2.2498
 Frc consts  --      0.0966                 0.0810                 0.0836
 IR Inten    --     11.0444                 2.5744                 3.2356

                     13                     14                     15
                      A                      A                      A
 Frequencies --    278.0813               298.4873               329.7347
 Red. masses --      3.6574                 4.5908                 3.3808
 Frc consts  --      0.1666                 0.2410                 0.2166
 IR Inten    --      3.7472                 0.5989                 0.3938

                     16                     17                     18
                      A                      A                      A
 Frequencies --    355.8610               370.4714               419.3743
 Red. masses --      2.6322                 3.3111                 3.0766
 Frc consts  --      0.1964                 0.2678                 0.3188
 IR Inten    --      0.8925                 2.7179                 0.0506

                     19                     20                     21
                      A                      A                      A
 Frequencies --    430.7245               449.2541               459.7244
 Red. masses --      4.5779                 8.4629                 5.8554
 Frc consts  --      0.5004                 1.0064                 0.7291
 IR Inten    --      5.4417                 4.2738                 5.1161

                     22                     23                     24
                      A                      A                      A
 Frequencies --    490.5292               527.2786               565.4049
 Red. masses --      4.0892                 3.4113                 3.9834
 Frc consts  --      0.5797                 0.5588                 0.7503
 IR Inten    --      6.9259                26.8940                22.8399

                     25                     26                     27
                      A                      A                      A
 Frequencies --    596.5397               622.1718               651.8838
 Red. masses --      3.5513                 5.3667                 6.7834
 Frc consts  --      0.7446                 1.2240                 1.6984
 IR Inten    --      6.3381                 6.5811                 0.2165

                     28                     29                     30
                      A                      A                      A
 Frequencies --    673.3621               717.6390               766.3473
 Red. masses --      4.4805                 3.7751                 1.5362
 Frc consts  --      1.1970                 1.1455                 0.5315
 IR Inten    --     16.3647                 0.8635                50.8115

                     31                     32                     33
                      A                      A                      A
 Frequencies --    809.1285               813.9131               828.9146
 Red. masses --      2.1440                 3.9168                 1.5105
 Frc consts  --      0.8270                 1.5287                 0.6115
 IR Inten    --      8.1933                 3.3803                18.9362

                     34                     35                     36
                      A                      A                      A
 Frequencies --    868.6800               911.5868               960.9106
 Red. masses --      1.2482                 1.9703                 1.3951
 Frc consts  --      0.5549                 0.9647                 0.7590
 IR Inten    --      2.7267                 9.9386                 0.4323

                     37                     38                     39
                      A                      A                      A
 Frequencies --    963.3011               993.2961               995.1879
 Red. masses --      1.6146                 1.4293                 1.6129
 Frc consts  --      0.8827                 0.8309                 0.9411
 IR Inten    --      2.3128                 1.0638                 2.4845

                     40                     41                     42
                      A                      A                      A
 Frequencies --   1020.1837              1038.0262              1056.2403
 Red. masses --      1.4740                 3.3433                 7.4160
 Frc consts  --      0.9039                 2.1225                 4.8747
 IR Inten    --      1.0508                 8.4651                84.6108

                     43                     44                     45
                      A                      A                      A
 Frequencies --   1076.3604              1078.5383              1103.1890
 Red. masses --      1.5411                 1.7852                 3.4148
 Frc consts  --      1.0520                 1.2235                 2.4486
 IR Inten    --     14.7337                 1.0512                14.1172

                     46                     47                     48
                      A                      A                      A
 Frequencies --   1120.0467              1125.0068              1146.0597
 Red. masses --      2.6764                 3.2010                 1.3250
 Frc consts  --      1.9782                 2.3870                 1.0254
 IR Inten    --      8.0913                 3.8124                 3.5925

                     49                     50                     51
                      A                      A                      A
 Frequencies --   1184.3645              1213.8110              1218.3776
 Red. masses --      1.4212                 1.1862                 1.1829
 Frc consts  --      1.1746                 1.0297                 1.0346
 IR Inten    --      3.1109                 1.0465                 4.1102

                     52                     53                     54
                      A                      A                      A
 Frequencies --   1242.4163              1291.9578              1310.2517
 Red. masses --      2.9630                 1.1711                 1.3081
 Frc consts  --      2.6947                 1.1517                 1.3231
 IR Inten    --      5.2707                10.4102                 9.6048

                     55                     56                     57
                      A                      A                      A
 Frequencies --   1337.3086              1350.0309              1354.3586
 Red. masses --      1.3455                 1.1669                 5.0335
 Frc consts  --      1.4178                 1.2530                 5.4398
 IR Inten    --      0.6065                 7.7972                 0.1566

                     58                     59                     60
                      A                      A                      A
 Frequencies --   1386.6057              1409.5165              1424.6237
 Red. masses --      1.3085                 1.3862                 1.3846
 Frc consts  --      1.4823                 1.6226                 1.6557
 IR Inten    --     55.9267                 6.1656                 4.1257

                     61                     62                     63
                      A                      A                      A
 Frequencies --   1443.7833              1445.3777              1493.0196
 Red. masses --      1.3329                 2.2903                 1.0887
 Frc consts  --      1.6370                 2.8191                 1.4299
 IR Inten    --      0.7619                 5.4667                 3.2267

                     64                     65                     66
                      A                      A                      A
 Frequencies --   1506.5994              1516.9252              1519.4978
 Red. masses --      1.0772                 1.0508                 1.0859
 Frc consts  --      1.4407                 1.4247                 1.4773
 IR Inten    --      7.1836                 5.9420                13.7112

                     67                     68                     69
                      A                      A                      A
 Frequencies --   1521.7717              1533.6105              1543.7900
 Red. masses --      1.0935                 1.0887                 2.2558
 Frc consts  --      1.4920                 1.5086                 3.1676
 IR Inten    --     12.2600                28.1565                17.6141

                     70                     71                     72
                      A                      A                      A
 Frequencies --   1632.0068              1659.3481              2191.5847
 Red. masses --      5.9729                 5.5784                12.1035
 Frc consts  --      9.3729                 9.0497                34.2513
 IR Inten    --      0.5337                 2.4593               977.8129

                     73                     74                     75
                      A                      A                      A
 Frequencies --   3046.9964              3061.7580              3069.2009
 Red. masses --      1.0395                 1.0660                 1.0669
 Frc consts  --      5.6863                 5.8875                 5.9212
 IR Inten    --     27.5943                 9.1705                26.1994

                     76                     77                     78
                      A                      A                      A
 Frequencies --   3083.5500              3086.0638              3104.0337
 Red. masses --      1.0584                 1.0597                 1.0973
 Frc consts  --      5.9292                 5.9463                 6.2293
 IR Inten    --     22.3284                 1.3757                16.2894

                     79                     80                     81
                      A                      A                      A
 Frequencies --   3110.2921              3122.7086              3131.5901
 Red. masses --      1.0979                 1.1031                 1.1024
 Frc consts  --      6.2578                 6.3378                 6.3697
 IR Inten    --      4.1961                17.2650                14.2697

                     82                     83                     84
                      A                      A                      A
 Frequencies --   3131.7044              3140.8155              3177.3779
 Red. masses --      1.0996                 1.1050                 1.0869
 Frc consts  --      6.3541                 6.4224                 6.4649
 IR Inten    --     12.9696                10.0433                 5.1992

                     85                     86                     87
                      A                      A                      A
 Frequencies --   3186.2756              3194.2825              3211.3137
 Red. masses --      1.0889                 1.0943                 1.0921
 Frc consts  --      6.5132                 6.5784                 6.6357
 IR Inten    --     15.7940                12.5869                 4.1795

 - Thermochemistry -
 -------------------
 Temperature   298.150 Kelvin.  Pressure   1.00000 Atm.
 Atom     1 has atomic number  6 and mass  12.00000

 Molecular mass:   253.05951 amu.
 Principal axes and moments of inertia in atomic units:
                           1         2         3
     Eigenvalues --  3375.429886364.759478152.41359
           X            0.99797   0.06373   0.00005
           Y           -0.06372   0.99793   0.00851
           Z            0.00050  -0.00849   0.99996
 This molecule is an asymmetric top.
 Rotational symmetry number  1.
 Warning -- assumption of classical behavior for rotation
           may cause significant error
 Rotational temperatures (Kelvin)      0.02566     0.01361     0.01062
 Rotational constants (GHZ):           0.53467     0.28355     0.22138
 Zero-point vibrational energy     656517.6 (Joules/Mol)
                                  156.91147 (Kcal/Mol)
 Warning -- explicit consideration of  25 degrees of freedom as
           vibrations may cause significant error
 Vibrational temperatures:     21.98    37.94    41.36    62.85    81.88
          (Kelvin)            115.38   146.12   188.22   223.39   253.43
                              280.22   361.28   400.10   429.46   474.41
                              512.00   533.03   603.39   619.72   646.38
                              661.44   705.76   758.64   813.49   858.29
                              895.17   937.92   968.82  1032.52  1102.60
                             1164.16  1171.04  1192.62  1249.84  1311.57
                             1382.54  1385.98  1429.13  1431.85  1467.82
                             1493.49  1519.69  1548.64  1551.78  1587.24
                             1611.50  1618.63  1648.92  1704.04  1746.40
                             1752.97  1787.56  1858.84  1885.16  1924.09
                             1942.39  1948.62  1995.02  2027.98  2049.72
                             2077.28  2079.58  2148.12  2167.66  2182.52
                             2186.22  2189.49  2206.52  2221.17  2348.09
                             2387.43  3153.20  4383.95  4405.19  4415.90
                             4436.54  4440.16  4466.01  4475.02  4492.88
                             4505.66  4505.82  4518.93  4571.54  4584.34
                             4595.86  4620.36

 Zero-point correction=                           0.250054 (Hartree/Particle)
 Thermal correction to Energy=                    0.267038
 Thermal correction to Enthalpy=                  0.267982
 Thermal correction to Gibbs Free Energy=         0.201492
 Sum of electronic and zero-point Energies=          -1392.437478
 Sum of electronic and thermal Energies=             -1392.420494
 Sum of electronic and thermal Enthalpies=           -1392.419550
 Sum of electronic and thermal Free Energies=        -1392.486040

                     E (Thermal)             CV                S
                      KCal/Mol        Cal/Mol-Kelvin    Cal/Mol-Kelvin
 Total                  167.569             61.314            139.940
 Electronic               0.000              0.000              0.000
 Translational            0.889              2.981             42.486
 Rotational               0.889              2.981             33.526
 Vibrational            165.792             55.353             63.929
 Vibration     1          0.593              1.986              7.169
 Vibration     2          0.593              1.985              6.085
 Vibration     3          0.593              1.984              5.914
 Vibration     4          0.595              1.980              5.085
 Vibration     5          0.596              1.975              4.562
 Vibration     6          0.600              1.963              3.886
 Vibration     7          0.604              1.948              3.424
 Vibration     8          0.612              1.923              2.934
 Vibration     9          0.620              1.897              2.607
 Vibration    10          0.628              1.872              2.369
 Vibration    11          0.635              1.847              2.182
 Vibration    12          0.663              1.761              1.723
 Vibration    13          0.679              1.714              1.545
 Vibration    14          0.692              1.677              1.425
 Vibration    15          0.713              1.616              1.261
 Vibration    16          0.731              1.563              1.140
 Vibration    17          0.742              1.533              1.078
 Vibration    18          0.782              1.428              0.894
 Vibration    19          0.792              1.403              0.856
 Vibration    20          0.808              1.363              0.798
 Vibration    21          0.818              1.339              0.767
 Vibration    22          0.846              1.271              0.682
 Vibration    23          0.882              1.190              0.593
 Vibration    24          0.921              1.106              0.513
 Vibration    25          0.954              1.039              0.456

 Optimization completed on the basis of negligible forces.
    -- Stationary point found.
 Normal termination of Gaussian 16 at Fri Dec 11 02:00:28 2020.

 ----------------------------------------------------------------------
 # B3LYP/6-311++G(d,p) empiricaldispersion=gd3bj scf=xqc pop=npa geom=c
 heck
 ----------------------------------------------------------------------

 --------------------------------------
 CID_76284059_JID_6956_Energie_neutraal
 --------------------------------------
 Structure from the checkpoint file:  "JID_6956.chk"
 Charge =  0 Multiplicity = 1

 SCF Done:  E(RB3LYP) =  -1392.90225255     A.U. after   16 cycles
 Normal termination of Gaussian 16 at Fri Dec 11 02:06:47 2020.

 ----------------------------------------------------------------------
 # B3LYP/6-311++G(d,p) empiricaldispersion=gd3bj scf=xqc pop=npa geom=c
 heck
 ----------------------------------------------------------------------

 ------------------------------------
 CID_76284059_JID_6956_Energie_kation
 ------------------------------------
 Structure from the checkpoint file:  "JID_6956.chk"
 Charge =  1 Multiplicity = 2

 SCF Done:  E(UB3LYP) =  -1392.60315218     A.U. after   29 cycles
 Normal termination of Gaussian 16 at Fri Dec 11 02:23:00 2020.
 Gaussian 16:  ES64L-G16RevA.03 25-Dec-2016

 ----------------------------------------------------------------------
 # B3LYP/6-311++G(d,p) empiricaldispersion=gd3bj scf=xqc pop=npa geom=c
 heck
 ----------------------------------------------------------------------

 -----------------------------------
 CID_76284059_JID_6956_Energie_anion
 -----------------------------------
 Structure from the checkpoint file:  "JID_6956.chk"
 Charge = -1 Multiplicity = 2

                         Standard orientation:
 ---------------------------------------------------------------------
 Center     Atomic      Atomic             Coordinates (Angstroms)
 Number     Number       Type             X           Y           Z
 ---------------------------------------------------------------------
      1          6           0       -3.889108   -2.783249    0.162385
      2          6           0       -3.051919   -1.551577   -0.078430
      3          6           0       -3.084409   -0.470906    0.810987
      4          6           0       -2.327124    0.677670    0.580139
      5          6           0       -1.511395    0.739431   -0.544270
      6          6           0       -1.481498   -0.310579   -1.463890
      7          6           0       -2.242342   -1.451343   -1.220092
      8         16           0       -0.545040    2.253954   -0.824170
      9          8           0       -0.736891    3.129424    0.401119
     10          6           0        1.158964    1.497463   -0.705475
     11          6           0        1.721398    1.526215    0.714246
     12          6           0        1.039062    0.626824    1.751424
     13          6           0        0.893549   -0.849501    1.358872
     14          7           0        2.141904   -1.434763    0.946284
     15          6           0        3.071446   -1.409862    0.200305
     16         16           0        4.351765   -1.461510   -0.750291
     17          1           0       -4.191692   -2.861721    1.210988
     18          1           0       -4.803994   -2.762279   -0.443637
     19          1           0       -3.344975   -3.695480   -0.104729
     20          1           0       -3.711619   -0.529397    1.697038
     21          1           0       -2.342065    1.522414    1.262409
     22          1           0       -0.863206   -0.250248   -2.356388
     23          1           0       -2.208808   -2.277644   -1.925735
     24          1           0        1.107908    0.494807   -1.138474
     25          1           0        1.782908    2.113205   -1.360594
     26          1           0        2.785694    1.271944    0.641232
     27          1           0        1.666092    2.556485    1.079619
     28          1           0        1.612141    0.688180    2.683817
     29          1           0        0.037357    1.009521    1.965965
     30          1           0        0.512147   -1.422769    2.208700
     31          1           0        0.176576   -0.971685    0.541032
 ---------------------------------------------------------------------

 SCF Done:  E(UB3LYP) =  -1392.89702606     A.U. after   33 cycles
 SCF Done:  E(UB3LYP) =  -1392.89702616     a.u. after    2 cycles

 The electronic state is 2-A.
 Alpha  occ. eigenvalues --  -88.84121 -88.74130 -18.98081 -14.25023 -10.16995
 Alpha  occ. eigenvalues --  -10.12381 -10.09942 -10.08244 -10.07868 -10.07730
 Alpha  occ. eigenvalues --  -10.06959 -10.06742 -10.06720 -10.06291 -10.06034
 Alpha  occ. eigenvalues --  -10.05930  -7.91789  -7.82859  -5.88080  -5.87912
 Alpha  occ. eigenvalues --   -5.87386  -5.79271  -5.78575  -5.78507  -0.90853
 Alpha  occ. eigenvalues --   -0.86717  -0.75541  -0.72246  -0.69172  -0.67490
 Alpha  occ. eigenvalues --   -0.65280  -0.64091  -0.61353  -0.58105  -0.53994
 Alpha  occ. eigenvalues --   -0.50470  -0.49323  -0.46413  -0.42255  -0.40828
 Alpha  occ. eigenvalues --   -0.38934  -0.38243  -0.36289  -0.35028  -0.34372
 Alpha  occ. eigenvalues --   -0.34133  -0.33819  -0.31971  -0.31788  -0.31419
 Alpha  occ. eigenvalues --   -0.30676  -0.29281  -0.28343  -0.28106  -0.27403
 Alpha  occ. eigenvalues --   -0.26218  -0.24841  -0.24723  -0.24406  -0.24081
 Alpha  occ. eigenvalues --   -0.23529  -0.17185  -0.15939  -0.15320  -0.15157
 Alpha  occ. eigenvalues --   -0.15028  -0.12387   0.04522
 Alpha virt. eigenvalues --    0.06673   0.06941   0.07572   0.07975   0.08594
 Alpha virt. eigenvalues --    0.09136   0.09257   0.09511   0.09873   0.10054
 Alpha virt. eigenvalues --    0.10642   0.11381   0.11746   0.12050   0.12422

  Beta  occ. eigenvalues --  -88.84120 -88.74130 -18.98085 -14.25002 -10.16901
  Beta  occ. eigenvalues --  -10.12335 -10.09879 -10.08243 -10.07859 -10.07528
  Beta  occ. eigenvalues --  -10.06848 -10.06764 -10.06763 -10.06049 -10.06021
  Beta  occ. eigenvalues --  -10.05859  -7.91787  -7.82858  -5.88079  -5.87905
  Beta  occ. eigenvalues --   -5.87390  -5.79274  -5.78569  -5.78506  -0.90835
  Beta  occ. eigenvalues --   -0.86611  -0.75281  -0.72170  -0.69022  -0.67227
  Beta  occ. eigenvalues --   -0.65182  -0.63921  -0.61250  -0.57958  -0.53887
  Beta  occ. eigenvalues --   -0.50339  -0.49214  -0.46182  -0.42192  -0.40716
  Beta  occ. eigenvalues --   -0.38838  -0.38155  -0.36166  -0.34851  -0.34278
  Beta  occ. eigenvalues --   -0.34033  -0.33706  -0.31869  -0.31638  -0.31201
  Beta  occ. eigenvalues --   -0.30560  -0.29144  -0.28269  -0.27997  -0.27178
  Beta  occ. eigenvalues --   -0.26143  -0.24749  -0.24632  -0.24291  -0.23798
  Beta  occ. eigenvalues --   -0.23433  -0.17079  -0.15745  -0.15070  -0.14795
  Beta  occ. eigenvalues --   -0.14559  -0.11853
  Beta virt. eigenvalues --    0.06919   0.07537   0.07634   0.08047   0.08574
  Beta virt. eigenvalues --    0.08822   0.09411   0.09479   0.09749   0.09937
  Beta virt. eigenvalues --    0.10177   0.10789   0.11492   0.11951   0.12085

 Mulliken charges and spin densities:
               1          2
     1  C    1.190140  -1.840789
     2  C   -0.327413   1.012577
     3  C   -0.382842  -0.120060
     4  C    0.444936   0.078672
     5  C    0.222697  -0.567697
     6  C   -0.792262   0.145860
     7  C   -0.860335   0.522072
     8  S    0.825492  -0.045500
     9  O   -0.486822  -0.002061
    10  C   -0.381479  -0.122591
    11  C   -0.528525   0.061874
    12  C   -0.255145   0.184007
    13  C    0.187492  -0.729177
    14  N    0.213857   0.007279
    15  C    0.070009   0.033007
    16  S   -0.505278   0.144073
    17  H   -0.427464   0.581066
    18  H    0.212887  -0.067839
    19  H   -0.322799   0.474473
    20  H   -0.092702   0.244969
    21  H    0.143962   0.085693
    22  H    0.120187   0.016243
    23  H   -0.141779   0.311397
    24  H    0.118059   0.024654
    25  H    0.212635   0.030338
    26  H    0.069554   0.040706
    27  H    0.212477   0.003457
    28  H    0.035937   0.150723
    29  H    0.182843  -0.060548
    30  H   -0.501297   0.716042
    31  H    0.542979  -0.312919
 Sum of Mulliken charges =  -1.00000   1.00000

 Dipole moment (field-independent basis, Debye):
    X=              2.2333    Y=              3.9380    Z=             -2.6994  Tot=              5.2708
 Quadrupole moment (field-independent basis, Debye-Ang):
   XX=           -169.4206   YY=           -167.5721   ZZ=           -134.8441
   XY=             -0.1314   XZ=              7.1426   YZ=              3.8770

 Summary of Natural Population Analysis:

                                       Natural Population
                Natural  -----------------------------------------------
    Atom  No    Charge         Core      Valence    Rydberg      Total
 -----------------------------------------------------------------------
      C    1   -0.29422      0.99964     2.28891    0.00567     3.29422
      C    2    0.02406      0.99952     1.96693    0.00950     2.97594
      C    3   -0.08951      0.99951     2.08003    0.00997     3.08951
      C    4   -0.11128      0.99949     2.10065    0.01114     3.11128
      C    5   -0.09938      0.99936     2.08490    0.01512     3.09938
      C    6   -0.09223      0.99949     2.08213    0.01061     3.09223
      C    7   -0.11071      0.99952     2.10127    0.00993     3.11071
      S    8    0.59053      4.99936     2.35428    0.05583     7.40947
      O    9   -0.49038      0.99993     3.48452    0.00592     4.49038
      C   10   -0.26256      0.99958     2.25322    0.00977     3.26256
      C   11   -0.20705      0.99962     2.19695    0.01048     3.20705
      C   12   -0.19445      0.99961     2.18626    0.00858     3.19445
      C   13   -0.09703      0.99956     2.08643    0.01104     3.09703
      N   14   -0.21169      0.99947     2.69878    0.01344     3.71169
      C   15    0.12768      0.99949     1.85905    0.01378     2.87232
      S   16   -0.06233      4.99948     3.04691    0.01594     8.06233
      H   17    0.10376      0.00000     0.39470    0.00154     0.39624
      H   18    0.09992      0.00000     0.39925    0.00083     0.40008
      H   19    0.10521      0.00000     0.39290    0.00189     0.39479
      H   20    0.09807      0.00000     0.40106    0.00088     0.40193
      H   21    0.11439      0.00000     0.38448    0.00113     0.38561
      H   22    0.09835      0.00000     0.40048    0.00117     0.40165
      H   23    0.09841      0.00000     0.40069    0.00090     0.40159
      H   24    0.10980      0.00000     0.38879    0.00141     0.39020
      H   25    0.10207      0.00000     0.39711    0.00081     0.39793
      H   26    0.10433      0.00000     0.39458    0.00110     0.39567
      H   27    0.11234      0.00000     0.38672    0.00093     0.38766
      H   28    0.09774      0.00000     0.40144    0.00082     0.40226
      H   29    0.11553      0.00000     0.38326    0.00121     0.38447
      H   30    0.10610      0.00000     0.39237    0.00154     0.39390
      H   31    0.11453      0.00000     0.38294    0.00253     0.38547
 =======================================================================
   * Total *    0.00000     23.99262    42.77197    0.23541    67.00000

 Normal termination of Gaussian 16 at Fri Dec 11 02:58:45 2020.
