 Gaussian 16, Revision A.03,

 -----------------------------------------------------------
 # opt freq B3LYP/6-31G(d) empiricaldispersion=gd3bj scf=xqc
 -----------------------------------------------------------

 ------------------------------
 CID_53888291_JID_4562_neutraal
 ------------------------------
 Symbolic Z-matrix:
 Charge =  0 Multiplicity = 1

 SCF Done:  E(RB3LYP) =  -684.041292940     A.U. after   16 cycles
 SCF Done:  E(RB3LYP) =  -684.042967643     A.U. after   15 cycles
 SCF Done:  E(RB3LYP) =  -684.039505649     A.U. after   15 cycles
 SCF Done:  E(RB3LYP) =  -684.046694710     A.U. after   14 cycles
 SCF Done:  E(RB3LYP) =  -684.047625969     A.U. after   15 cycles
 SCF Done:  E(RB3LYP) =  -684.049445618     A.U. after   17 cycles
 SCF Done:  E(RB3LYP) =  -684.050564118     A.U. after   16 cycles
 SCF Done:  E(RB3LYP) =  -684.051046730     A.U. after   14 cycles
 SCF Done:  E(RB3LYP) =  -684.051177511     A.U. after   14 cycles
 SCF Done:  E(RB3LYP) =  -684.051255520     A.U. after   13 cycles
 SCF Done:  E(RB3LYP) =  -684.051381651     A.U. after   10 cycles
 SCF Done:  E(RB3LYP) =  -684.051381894     A.U. after   10 cycles
 SCF Done:  E(RB3LYP) =  -684.051382092     A.U. after    9 cycles
 SCF Done:  E(RB3LYP) =  -684.051382311     A.U. after    9 cycles
 SCF Done:  E(RB3LYP) =  -684.051382357     A.U. after    8 cycles
 SCF Done:  E(RB3LYP) =  -684.051382375     A.U. after    7 cycles
 Optimization completed.
    -- Stationary point found.
 Normal termination of Gaussian 16 at Thu Dec 10 10:07:57 2020.

 --------------------------------------------------------------------
 #N Geom=AllCheck Guess=TCheck SCRF=Check GenChk RB3LYP/6-31G(d) Freq
 --------------------------------------------------------------------

 Structure from the checkpoint file:  "JID_4562.chk"
 ------------------------------
 CID_53888291_JID_4562_neutraal
 ------------------------------
 Charge =  0 Multiplicity = 1

 SCF Done:  E(RB3LYP) =  -684.051382375     A.U. after    1 cycles

  Exact polarizability: 175.293   2.829 122.688  -9.990   3.267  64.961
 Approx polarizability: 279.497  17.629 207.925 -14.936  10.867  99.180

                      1                      2                      3
                      A                      A                      A
 Frequencies --     23.0993                42.8601                58.3885
 Red. masses --      4.2991                11.9642                 3.9290
 Frc consts  --      0.0014                 0.0129                 0.0079
 IR Inten    --      0.9395                 0.1388                 0.2748

                      4                      5                      6
                      A                      A                      A
 Frequencies --     95.8864               115.3124               138.4569
 Red. masses --      3.1620                 3.9886                 2.0262
 Frc consts  --      0.0171                 0.0312                 0.0229
 IR Inten    --      2.0092                 1.2620                 4.2546

                      7                      8                      9
                      A                      A                      A
 Frequencies --    161.9566               225.8230               245.0036
 Red. masses --      3.3375                 1.9161                 3.7831
 Frc consts  --      0.0516                 0.0576                 0.1338
 IR Inten    --      3.4231                 8.2906                 1.5919

                     10                     11                     12
                      A                      A                      A
 Frequencies --    274.5420               324.1652               371.9456
 Red. masses --      3.5345                 5.6570                 5.1108
 Frc consts  --      0.1570                 0.3502                 0.4166
 IR Inten    --      3.9408                 1.6674                 2.1396

                     13                     14                     15
                      A                      A                      A
 Frequencies --    396.5895               418.5978               448.4653
 Red. masses --      3.7156                 3.6255                 2.9436
 Frc consts  --      0.3443                 0.3743                 0.3488
 IR Inten    --      0.8318                 2.5758                 0.9731

                     16                     17                     18
                      A                      A                      A
 Frequencies --    480.9017               575.5470               585.4870
 Red. masses --      3.7104                 4.7675                 5.8885
 Frc consts  --      0.5056                 0.9305                 1.1893
 IR Inten    --      7.1471                 3.7232                 3.4644

                     19                     20                     21
                      A                      A                      A
 Frequencies --    657.3403               694.4929               718.9316
 Red. masses --      5.2981                 7.6495                 4.4961
 Frc consts  --      1.3488                 2.1738                 1.3692
 IR Inten    --      0.7187                25.0751                18.3873

                     22                     23                     24
                      A                      A                      A
 Frequencies --    784.0501               832.5763               855.7414
 Red. masses --      4.1138                 2.3005                 4.2187
 Frc consts  --      1.4900                 0.9396                 1.8202
 IR Inten    --      7.2380                 9.0510                 9.8012

                     25                     26                     27
                      A                      A                      A
 Frequencies --    868.3139               879.4375               945.9083
 Red. masses --      1.4955                 6.6674                 3.2956
 Frc consts  --      0.6644                 3.0382                 1.7373
 IR Inten    --     13.3150                12.7743                15.3687

                     28                     29                     30
                      A                      A                      A
 Frequencies --    956.8435               990.3296               993.7254
 Red. masses --      1.5191                 1.4273                 1.4451
 Frc consts  --      0.8194                 0.8248                 0.8408
 IR Inten    --      1.3263                 0.8381                28.3490

                     31                     32                     33
                      A                      A                      A
 Frequencies --   1010.2246              1090.4979              1103.5024
 Red. masses --      1.3966                 1.9272                 2.9958
 Frc consts  --      0.8398                 1.3503                 2.1494
 IR Inten    --     13.1516                12.0725                36.1634

                     34                     35                     36
                      A                      A                      A
 Frequencies --   1129.3402              1149.5033              1190.0244
 Red. masses --      6.4099                 4.2182                 1.2718
 Frc consts  --      4.8167                 3.2840                 1.0612
 IR Inten    --      7.3351               123.2246                 3.7860

                     37                     38                     39
                      A                      A                      A
 Frequencies --   1217.3500              1228.1609              1238.0507
 Red. masses --      1.6367                 1.8868                 1.8731
 Frc consts  --      1.4290                 1.6768                 1.6916
 IR Inten    --      8.6242                16.5314                 3.5697

                     40                     41                     42
                      A                      A                      A
 Frequencies --   1289.7823              1310.2295              1334.2796
 Red. masses --      2.3454                 1.8921                 1.2987
 Frc consts  --      2.2988                 1.9137                 1.3622
 IR Inten    --     42.2312                 8.2961                 1.7006

                     43                     44                     45
                      A                      A                      A
 Frequencies --   1350.1110              1364.6078              1399.9217
 Red. masses --      1.7467                 1.4317                10.0920
 Frc consts  --      1.8759                 1.5708                11.6529
 IR Inten    --      1.2686                12.5053               181.0555

                     46                     47                     48
                      A                      A                      A
 Frequencies --   1411.4404              1449.1664              1500.8963
 Red. masses --      1.2892                 2.0884                 1.1383
 Frc consts  --      1.5132                 2.5841                 1.5108
 IR Inten    --     43.5727                 6.0576                 0.9455

                     49                     50                     51
                      A                      A                      A
 Frequencies --   1514.6170              1515.9935              1516.6767
 Red. masses --      1.0810                 2.2157                 1.0989
 Frc consts  --      1.4610                 3.0002                 1.4894
 IR Inten    --      0.2021                23.4877                 5.4441

                     52                     53                     54
                      A                      A                      A
 Frequencies --   1540.4710              1599.2137              1624.1588
 Red. masses --      1.0570                 5.6687                 8.7615
 Frc consts  --      1.4779                 8.5418                13.6171
 IR Inten    --     12.3055                19.8104               146.5635

                     55                     56                     57
                      A                      A                      A
 Frequencies --   1665.0556              1721.7587              2995.3489
 Red. masses --     10.2308                 5.9495                 1.0636
 Frc consts  --     16.7116                10.3915                 5.6222
 IR Inten    --    106.4293                 2.7225                43.3780

                     58                     59                     60
                      A                      A                      A
 Frequencies --   3005.1397              3064.1529              3082.6595
 Red. masses --      1.0462                 1.0975                 1.0946
 Frc consts  --      5.5669                 6.0711                 6.1286
 IR Inten    --     57.1474                45.8649                26.6122

                     61                     62                     63
                      A                      A                      A
 Frequencies --   3145.4321              3170.7397              3193.7939
 Red. masses --      1.0991                 1.0903                 1.0890
 Frc consts  --      6.4070                 6.4583                 6.5449
 IR Inten    --     35.2668                 8.2778                15.0115

                     64                     65                     66
                      A                      A                      A
 Frequencies --   3198.9026              3205.4859              3258.8310
 Red. masses --      1.0923                 1.0884                 1.0932
 Frc consts  --      6.5858                 6.5893                 6.8402
 IR Inten    --     12.5215                 5.1364                 2.0600

 - Thermochemistry -
 -------------------
 Temperature   298.150 Kelvin.  Pressure   1.00000 Atm.
 Atom     1 has atomic number  6 and mass  12.00000

 Molecular mass:   194.06914 amu.
 Principal axes and moments of inertia in atomic units:
                           1         2         3
     Eigenvalues --  1688.543314296.233675679.39449
           X            0.99989  -0.01473  -0.00219
           Y            0.01471   0.99985  -0.00900
           Z            0.00232   0.00897   0.99996
 This molecule is an asymmetric top.
 Rotational symmetry number  1.
 Warning -- assumption of classical behavior for rotation
           may cause significant error
 Rotational temperatures (Kelvin)      0.05130     0.02016     0.01525
 Rotational constants (GHZ):           1.06882     0.42008     0.31777
 Zero-point vibrational energy     490147.4 (Joules/Mol)
                                  117.14803 (Kcal/Mol)
 Warning -- explicit consideration of  18 degrees of freedom as
           vibrations may cause significant error
 Vibrational temperatures:     33.23    61.67    84.01   137.96   165.91
          (Kelvin)            199.21   233.02   324.91   352.51   395.00
                              466.40   535.15   570.60   602.27   645.24
                              691.91   828.08   842.39   945.77   999.22
                             1034.38  1128.07  1197.89  1231.22  1249.31
                             1265.31  1360.95  1376.68  1424.86  1429.75
                             1453.49  1568.98  1587.69  1624.87  1653.88
                             1712.18  1751.50  1767.05  1781.28  1855.71
                             1885.13  1919.73  1942.51  1963.37  2014.18
                             2030.75  2085.03  2159.46  2179.20  2181.18
                             2182.16  2216.39  2300.91  2336.80  2395.64
                             2477.23  4309.64  4323.73  4408.63  4435.26
                             4525.58  4561.99  4595.16  4602.51  4611.98
                             4688.73

 Zero-point correction=                           0.186687 (Hartree/Particle)
 Thermal correction to Energy=                    0.199607
 Thermal correction to Enthalpy=                  0.200552
 Thermal correction to Gibbs Free Energy=         0.145070
 Sum of electronic and zero-point Energies=           -683.864695
 Sum of electronic and thermal Energies=              -683.851775
 Sum of electronic and thermal Enthalpies=            -683.850831
 Sum of electronic and thermal Free Energies=         -683.906312

                     E (Thermal)             CV                S
                      KCal/Mol        Cal/Mol-Kelvin    Cal/Mol-Kelvin
 Total                  125.256             46.554            116.770
 Electronic               0.000              0.000              0.000
 Translational            0.889              2.981             41.694
 Rotational               0.889              2.981             32.088
 Vibrational            123.478             40.592             42.987
 Vibration     1          0.593              1.985              6.348
 Vibration     2          0.595              1.980              5.122
 Vibration     3          0.596              1.974              4.511
 Vibration     4          0.603              1.952              3.536
 Vibration     5          0.608              1.937              3.177
 Vibration     6          0.614              1.915              2.825
 Vibration     7          0.622              1.889              2.527
 Vibration     8          0.650              1.802              1.912
 Vibration     9          0.660              1.771              1.766
 Vibration    10          0.677              1.720              1.567
 Vibration    11          0.709              1.627              1.289
 Vibration    12          0.744              1.530              1.072
 Vibration    13          0.763              1.477              0.975
 Vibration    14          0.781              1.430              0.897
 Vibration    15          0.807              1.364              0.800
 Vibration    16          0.837              1.292              0.708
 Vibration    17          0.932              1.084              0.494
 Vibration    18          0.942              1.063              0.475

 Optimization completed.
    -- Stationary point found.
 Normal termination of Gaussian 16 at Thu Dec 10 10:14:40 2020.

 ----------------------------------------------------------------------
 # B3LYP/6-311++G(d,p) empiricaldispersion=gd3bj scf=xqc pop=npa geom=c
 heck
 ----------------------------------------------------------------------

 --------------------------------------
 CID_53888291_JID_4562_Energie_neutraal
 --------------------------------------
 Structure from the checkpoint file:  "JID_4562.chk"
 Charge =  0 Multiplicity = 1

 SCF Done:  E(RB3LYP) =  -684.245031119     A.U. after   17 cycles
 Normal termination of Gaussian 16 at Thu Dec 10 10:17:23 2020.

 ----------------------------------------------------------------------
 # B3LYP/6-311++G(d,p) empiricaldispersion=gd3bj scf=xqc pop=npa geom=c
 heck
 ----------------------------------------------------------------------

 ------------------------------------
 CID_53888291_JID_4562_Energie_kation
 ------------------------------------
 Structure from the checkpoint file:  "JID_4562.chk"
 Charge =  1 Multiplicity = 2

 SCF Done:  E(UB3LYP) =  -683.910798034     A.U. after   31 cycles
 Normal termination of Gaussian 16 at Thu Dec 10 10:23:55 2020.
 Gaussian 16:  ES64L-G16RevA.03 25-Dec-2016

 ----------------------------------------------------------------------
 # B3LYP/6-311++G(d,p) empiricaldispersion=gd3bj scf=xqc pop=npa geom=c
 heck
 ----------------------------------------------------------------------

 -----------------------------------
 CID_53888291_JID_4562_Energie_anion
 -----------------------------------
 Structure from the checkpoint file:  "JID_4562.chk"
 Charge = -1 Multiplicity = 2

                         Standard orientation:
 ---------------------------------------------------------------------
 Center     Atomic      Atomic             Coordinates (Angstroms)
 Number     Number       Type             X           Y           Z
 ---------------------------------------------------------------------
      1          6           0       -3.740809    0.918138   -0.904029
      2          8           0       -4.047972   -0.366539   -0.388710
      3          6           0       -3.221982   -0.731478    0.706936
      4          6           0       -1.812553   -1.029487    0.277467
      5          6           0       -0.751864   -0.314088    0.674522
      6          6           0        0.627079   -0.601885    0.260774
      7          6           0        1.628146    0.355906    0.034047
      8          6           0        2.920360   -0.018883   -0.320536
      9          6           0        3.187556   -1.375360   -0.468743
     10          7           0        2.269360   -2.328376   -0.256312
     11          6           0        1.050608   -1.940779    0.110347
     12          7           0        1.354249    1.803453    0.123050
     13          8           0        0.185529    2.178491    0.036259
     14          8           0        2.320228    2.550421    0.262940
     15          1           0       -4.431716    1.097305   -1.731098
     16          1           0       -2.707781    0.983072   -1.272032
     17          1           0       -3.883121    1.698618   -0.139783
     18          1           0       -3.224471    0.056212    1.478277
     19          1           0       -3.686948   -1.627389    1.134525
     20          1           0       -1.699006   -1.833788   -0.448078
     21          1           0       -0.906362    0.537837    1.328880
     22          1           0        3.677031    0.736837   -0.485996
     23          1           0        4.177369   -1.712332   -0.765616
     24          1           0        0.338220   -2.733399    0.325151
 ---------------------------------------------------------------------

 SCF Done:  E(UB3LYP) =  -684.301398213     A.U. after   24 cycles

 The electronic state is 2-A.
 Alpha  occ. eigenvalues --  -19.02468 -18.95904 -18.95817 -14.33861 -14.16883
 Alpha  occ. eigenvalues --  -10.11568 -10.10863 -10.07736 -10.07607 -10.07294
 Alpha  occ. eigenvalues --  -10.05987 -10.05787 -10.04984 -10.04475  -1.04032
 Alpha  occ. eigenvalues --   -0.93534  -0.86924  -0.81250  -0.70574  -0.67681
 Alpha  occ. eigenvalues --   -0.63897  -0.60268  -0.56383  -0.53613  -0.50034
 Alpha  occ. eigenvalues --   -0.45484  -0.44818  -0.39535  -0.38110  -0.37890
 Alpha  occ. eigenvalues --   -0.37667  -0.35691  -0.35078  -0.33627  -0.32475
 Alpha  occ. eigenvalues --   -0.31912  -0.30784  -0.30487  -0.28014  -0.27046
 Alpha  occ. eigenvalues --   -0.25108  -0.24375  -0.21867  -0.18886  -0.16299
 Alpha  occ. eigenvalues --   -0.15772  -0.14892  -0.13825  -0.12785  -0.11881
 Alpha  occ. eigenvalues --   -0.11277   0.01070
 Alpha virt. eigenvalues --    0.08013   0.08506   0.09367   0.09621   0.10380
 Alpha virt. eigenvalues --    0.11760   0.11994   0.12500   0.12832   0.13002
 Alpha virt. eigenvalues --    0.13745   0.14523   0.14972   0.16102   0.16831

  Beta  occ. eigenvalues --  -19.02455 -18.95408 -18.95357 -14.33331 -14.16546
  Beta  occ. eigenvalues --  -10.11574 -10.10863 -10.07674 -10.07553 -10.07298
  Beta  occ. eigenvalues --  -10.06016 -10.05623 -10.04885 -10.04391  -1.03064
  Beta  occ. eigenvalues --   -0.93507  -0.86030  -0.80822  -0.70163  -0.67309
  Beta  occ. eigenvalues --   -0.63722  -0.60150  -0.55589  -0.53413  -0.49898
  Beta  occ. eigenvalues --   -0.45070  -0.44687  -0.39228  -0.37912  -0.37720
  Beta  occ. eigenvalues --   -0.37170  -0.34928  -0.33647  -0.33156  -0.31951
  Beta  occ. eigenvalues --   -0.31531  -0.30699  -0.30323  -0.27983  -0.26120
  Beta  occ. eigenvalues --   -0.25030  -0.24267  -0.21829  -0.18147  -0.16199
  Beta  occ. eigenvalues --   -0.14539  -0.13356  -0.12372  -0.11650  -0.11174
  Beta  occ. eigenvalues --   -0.10761
  Beta virt. eigenvalues --    0.07498   0.08170   0.09062   0.09373   0.09614
  Beta virt. eigenvalues --    0.10381   0.11765   0.12467   0.12856   0.12939
  Beta virt. eigenvalues --    0.13725   0.14190   0.14803   0.15492   0.16209

 Mulliken charges and spin densities:
               1          2
     1  C   -0.332576   0.001556
     2  O   -0.125536  -0.002105
     3  C   -0.576770  -0.002872
     4  C    0.203810   0.090399
     5  C   -0.928808  -0.083243
     6  C    2.028890   0.159985
     7  C   -1.101258   0.044798
     8  C    0.291359   0.148061
     9  C   -0.562323  -0.014631
    10  N   -0.071822   0.158690
    11  C   -0.845300  -0.041067
    12  N   -0.258528   0.185422
    13  O   -0.151117   0.179773
    14  O   -0.150148   0.169879
    15  H    0.128224  -0.000139
    16  H    0.175562   0.001465
    17  H    0.110489   0.000687
    18  H    0.129463  -0.002685
    19  H    0.148379   0.004590
    20  H    0.187177  -0.004087
    21  H    0.193604   0.006097
    22  H    0.232689  -0.000390
    23  H    0.135001  -0.003106
    24  H    0.139539   0.002923
 Sum of Mulliken charges =  -1.00000   1.00000

 Dipole moment (field-independent basis, Debye):
    X=             -4.1208    Y=             -2.7040    Z=              0.2671  Tot=              4.9360
 Quadrupole moment (field-independent basis, Debye-Ang):
   XX=           -116.0873   YY=           -118.6577   ZZ=            -86.6393
   XY=             -5.2874   XZ=             -3.3604   YZ=             -2.9484

 Summary of Natural Population Analysis:

                                       Natural Population
                Natural  -----------------------------------------------
    Atom  No    Charge         Core      Valence    Rydberg      Total
 -----------------------------------------------------------------------
      C    1   -0.10367      0.99962     2.09520    0.00884     3.10367
      O    2   -0.30097      0.99989     3.29018    0.01090     4.30097
      C    3   -0.02217      0.99958     2.01075    0.01184     3.02217
      C    4   -0.10018      0.99952     2.09243    0.00823     3.10018
      C    5   -0.08252      0.99950     2.07320    0.00982     3.08252
      C    6   -0.02857      0.99946     2.01964    0.00947     3.02857
      C    7    0.09584      0.99936     1.89120    0.01361     2.90416
      C    8   -0.10257      0.99952     2.09459    0.00847     3.10257
      C    9    0.01102      0.99960     1.97434    0.01504     2.98898
      N   10   -0.19529      0.99971     2.68217    0.01342     3.69529
      C   11    0.01572      0.99957     1.97043    0.01428     2.98428
      N   12    0.29310      0.99972     2.17890    0.02828     3.20690
      O   13   -0.18500      0.99990     3.17625    0.00885     4.18500
      O   14   -0.18977      0.99990     3.18215    0.00773     4.18977
      H   15    0.08325      0.00000     0.41593    0.00082     0.41675
      H   16    0.09299      0.00000     0.40569    0.00132     0.40701
      H   17    0.07557      0.00000     0.42312    0.00131     0.42443
      H   18    0.07652      0.00000     0.42197    0.00150     0.42348
      H   19    0.08711      0.00000     0.41167    0.00121     0.41289
      H   20    0.09100      0.00000     0.40768    0.00132     0.40900
      H   21    0.10725      0.00000     0.39131    0.00144     0.39275
      H   22    0.11465      0.00000     0.38415    0.00120     0.38535
      H   23    0.08182      0.00000     0.41687    0.00131     0.41818
      H   24    0.08487      0.00000     0.41356    0.00156     0.41513
 =======================================================================
   * Total *   -0.00000     13.99485    36.82339    0.18176    51.00000

 Normal termination of Gaussian 16 at Thu Dec 10 10:29:00 2020.
