 Gaussian 16, Revision A.03,

 -----------------------------------------------------------
 # opt freq B3LYP/6-31G(d) empiricaldispersion=gd3bj scf=xqc
 -----------------------------------------------------------

 ------------------------------
 CID_83037812_JID_5261_neutraal
 ------------------------------
 Symbolic Z-matrix:
 Charge =  0 Multiplicity = 1

 SCF Done:  E(RB3LYP) =  -696.226992060     A.U. after   15 cycles
 SCF Done:  E(RB3LYP) =  -696.230249166     A.U. after   12 cycles
 SCF Done:  E(RB3LYP) =  -696.226101511     A.U. after   13 cycles
 SCF Done:  E(RB3LYP) =  -696.230136402     A.U. after   13 cycles
 SCF Done:  E(RB3LYP) =  -696.231035694     A.U. after   10 cycles
 SCF Done:  E(RB3LYP) =  -696.231337635     A.U. after   12 cycles
 SCF Done:  E(RB3LYP) =  -696.231687192     A.U. after   12 cycles
 SCF Done:  E(RB3LYP) =  -696.231943817     A.U. after   12 cycles
 SCF Done:  E(RB3LYP) =  -696.232035270     A.U. after   13 cycles
 SCF Done:  E(RB3LYP) =  -696.232607923     A.U. after   12 cycles
 SCF Done:  E(RB3LYP) =  -696.232977649     A.U. after   11 cycles
 SCF Done:  E(RB3LYP) =  -696.232987266     A.U. after   11 cycles
 SCF Done:  E(RB3LYP) =  -696.232989454     A.U. after    9 cycles
 SCF Done:  E(RB3LYP) =  -696.232989906     A.U. after    8 cycles
 SCF Done:  E(RB3LYP) =  -696.232990057     A.U. after    6 cycles
 Optimization completed.
    -- Stationary point found.
 Normal termination of Gaussian 16 at Thu Dec 10 15:21:11 2020.

 --------------------------------------------------------------------
 #N Geom=AllCheck Guess=TCheck SCRF=Check GenChk RB3LYP/6-31G(d) Freq
 --------------------------------------------------------------------

 Structure from the checkpoint file:  "JID_5261.chk"
 ------------------------------
 CID_83037812_JID_5261_neutraal
 ------------------------------
 Charge =  0 Multiplicity = 1

 SCF Done:  E(RB3LYP) =  -696.232990057     A.U. after    1 cycles

  Exact polarizability: 151.596   1.845 130.742  -6.315  -7.803 119.363
 Approx polarizability: 194.105   8.210 187.766  -6.855 -12.119 172.878

                      1                      2                      3
                      A                      A                      A
 Frequencies --     17.6070                44.2870                47.1464
 Red. masses --      4.1144                 3.3176                 3.3266
 Frc consts  --      0.0008                 0.0038                 0.0044
 IR Inten    --      0.4952                 0.3613                 0.3721

                      4                      5                      6
                      A                      A                      A
 Frequencies --     63.5452                87.0929               103.2869
 Red. masses --      3.3773                 4.0249                 3.1318
 Frc consts  --      0.0080                 0.0180                 0.0197
 IR Inten    --      0.6472                 1.2644                 1.1471

                      7                      8                      9
                      A                      A                      A
 Frequencies --    107.2754               116.4225               132.2937
 Red. masses --      3.1993                 3.2284                 2.1791
 Frc consts  --      0.0217                 0.0258                 0.0225
 IR Inten    --      0.1895                 0.0314                 0.7139

                     10                     11                     12
                      A                      A                      A
 Frequencies --    155.9010               179.7439               202.1399
 Red. masses --      2.2402                 2.3283                 2.2451
 Frc consts  --      0.0321                 0.0443                 0.0540
 IR Inten    --      0.0348                 1.4173                 0.7075

                     13                     14                     15
                      A                      A                      A
 Frequencies --    229.9136               254.1103               260.5574
 Red. masses --      2.4586                 1.5366                 1.8004
 Frc consts  --      0.0766                 0.0585                 0.0720
 IR Inten    --      1.8802                 0.2965                 0.5000

                     16                     17                     18
                      A                      A                      A
 Frequencies --    271.5135               320.1728               335.8319
 Red. masses --      2.0741                 3.9836                 2.0790
 Frc consts  --      0.0901                 0.2406                 0.1382
 IR Inten    --      0.3928                 3.9143                 3.4153

                     19                     20                     21
                      A                      A                      A
 Frequencies --    351.5002               367.3659               431.0286
 Red. masses --      2.5033                 2.2374                 2.6538
 Frc consts  --      0.1822                 0.1779                 0.2905
 IR Inten    --      6.9142                 7.6540                 3.2999

                     22                     23                     24
                      A                      A                      A
 Frequencies --    445.5769               463.9880               468.3297
 Red. masses --      2.1338                 2.9565                 2.2724
 Frc consts  --      0.2496                 0.3750                 0.2937
 IR Inten    --      1.2040                 4.3018                 6.9486

                     25                     26                     27
                      A                      A                      A
 Frequencies --    547.1984               629.5269               685.1267
 Red. masses --      3.7261                 1.4057                 2.7812
 Frc consts  --      0.6573                 0.3282                 0.7692
 IR Inten    --      3.7420                 5.0644                10.6340

                     28                     29                     30
                      A                      A                      A
 Frequencies --    742.1644               767.6246               797.1511
 Red. masses --      5.0883                 1.4141                 2.0389
 Frc consts  --      1.6513                 0.4909                 0.7634
 IR Inten    --     11.9885                12.1525                 1.4683

                     31                     32                     33
                      A                      A                      A
 Frequencies --    810.2055               848.0684               872.9475
 Red. masses --      1.2655                 2.4818                 2.0796
 Frc consts  --      0.4894                 1.0517                 0.9337
 IR Inten    --      4.4311                 6.2760                 0.8726

                     34                     35                     36
                      A                      A                      A
 Frequencies --    881.7971               895.0229               914.0011
 Red. masses --      2.5539                 2.3173                 1.8393
 Frc consts  --      1.1700                 1.0937                 0.9053
 IR Inten    --      4.7840                 0.2797                 1.3461

                     37                     38                     39
                      A                      A                      A
 Frequencies --    933.6508               948.2268               956.9544
 Red. masses --      1.3747                 1.9648                 1.8489
 Frc consts  --      0.7061                 1.0409                 0.9976
 IR Inten    --     41.8970                 4.2959                 4.1790

                     40                     41                     42
                      A                      A                      A
 Frequencies --    981.8414              1018.6231              1040.2005
 Red. masses --      1.6215                 1.9500                 1.1064
 Frc consts  --      0.9210                 1.1921                 0.7053
 IR Inten    --     10.4874                 6.1338                16.2096

                     43                     44                     45
                      A                      A                      A
 Frequencies --   1051.7698              1081.4794              1088.7240
 Red. masses --      3.2252                 2.3580                 1.9780
 Frc consts  --      2.1021                 1.6249                 1.3813
 IR Inten    --     21.3640                23.2883                 1.6605

                     46                     47                     48
                      A                      A                      A
 Frequencies --   1092.0450              1122.1641              1131.8279
 Red. masses --      2.8477                 2.0079                 1.9396
 Frc consts  --      2.0009                 1.4897                 1.4639
 IR Inten    --      3.4565                94.8930                14.9700

                     49                     50                     51
                      A                      A                      A
 Frequencies --   1143.9052              1153.6580              1176.9720
 Red. masses --      2.1949                 1.7773                 3.6082
 Frc consts  --      1.6921                 1.3937                 2.9449
 IR Inten    --      8.3918                21.6882               353.9236

                     52                     53                     54
                      A                      A                      A
 Frequencies --   1205.3204              1221.0578              1250.9061
 Red. masses --      2.0104                 2.5814                 1.3241
 Frc consts  --      1.7209                 2.2677                 1.2207
 IR Inten    --     11.6649               165.5730                 0.7005

                     55                     56                     57
                      A                      A                      A
 Frequencies --   1262.3030              1269.1901              1320.2412
 Red. masses --      1.3043                 1.3680                 1.2482
 Frc consts  --      1.2245                 1.2984                 1.2819
 IR Inten    --      2.9292                10.8099                 0.9565

                     58                     59                     60
                      A                      A                      A
 Frequencies --   1334.3499              1342.4412              1355.4875
 Red. masses --      1.2357                 1.1160                 1.2473
 Frc consts  --      1.2963                 1.1849                 1.3503
 IR Inten    --      0.4926                 9.0844                 2.7840

                     61                     62                     63
                      A                      A                      A
 Frequencies --   1371.4238              1377.2662              1386.6660
 Red. masses --      1.2198                 1.2982                 1.3726
 Frc consts  --      1.3517                 1.4509                 1.5550
 IR Inten    --      8.1278                 2.7308                23.1000

                     64                     65                     66
                      A                      A                      A
 Frequencies --   1406.1365              1408.3161              1414.8352
 Red. masses --      1.3726                 1.3143                 1.2510
 Frc consts  --      1.5990                 1.5358                 1.4754
 IR Inten    --      3.2533                 1.7770                 0.8102

                     67                     68                     69
                      A                      A                      A
 Frequencies --   1433.9451              1439.6994              1443.5585
 Red. masses --      1.3232                 1.2489                 1.3059
 Frc consts  --      1.6030                 1.5251                 1.6034
 IR Inten    --     17.6344                 7.7195                 9.1313

                     70                     71                     72
                      A                      A                      A
 Frequencies --   1446.3569              1475.9305              1497.5713
 Red. masses --      1.3312                 1.1979                 1.0851
 Frc consts  --      1.6407                 1.5375                 1.4338
 IR Inten    --      4.8685                 4.3278                11.5138

                     73                     74                     75
                      A                      A                      A
 Frequencies --   1512.2287              1515.8330              1519.8405
 Red. masses --      1.0888                 1.0529                 1.0760
 Frc consts  --      1.4671                 1.4253                 1.4644
 IR Inten    --      4.4337                 5.8741                 5.1991

                     76                     77                     78
                      A                      A                      A
 Frequencies --   1523.7735              1525.6727              1530.4656
 Red. masses --      1.0583                 1.0916                 1.0693
 Frc consts  --      1.4478                 1.4970                 1.4756
 IR Inten    --      0.8516                 3.7967                 5.7219

                     79                     80                     81
                      A                      A                      A
 Frequencies --   1536.5570              1538.5276              1546.9165
 Red. masses --      1.0589                 1.0845                 1.0530
 Frc consts  --      1.4730                 1.5125                 1.4845
 IR Inten    --      6.8111                 3.7863                 4.0872

                     82                     83                     84
                      A                      A                      A
 Frequencies --   1729.4699              1822.8465              3019.6031
 Red. masses --      4.4886                10.8402                 1.0727
 Frc consts  --      7.9103                21.2220                 5.7628
 IR Inten    --      5.9708               208.4128                18.6946

                     85                     86                     87
                      A                      A                      A
 Frequencies --   3028.5119              3047.7647              3048.3833
 Red. masses --      1.0711                 1.0640                 1.0412
 Frc consts  --      5.7880                 5.8229                 5.7004
 IR Inten    --     45.7122                26.9208                21.5024

                     88                     89                     90
                      A                      A                      A
 Frequencies --   3050.2386              3060.6550              3061.3612
 Red. masses --      1.0665                 1.0587                 1.0377
 Frc consts  --      5.8465                 5.8431                 5.7299
 IR Inten    --      4.2866                59.8835                 7.6552

                     91                     92                     93
                      A                      A                      A
 Frequencies --   3082.0220              3083.8200              3097.4363
 Red. masses --      1.0885                 1.0928                 1.0595
 Frc consts  --      6.0916                 6.1230                 5.9889
 IR Inten    --     18.8388                34.6513                24.1040

                     94                     95                     96
                      A                      A                      A
 Frequencies --   3098.5914              3110.4317              3118.7578
 Red. masses --      1.1063                 1.1010                 1.0900
 Frc consts  --      6.2584                 6.2757                 6.2467
 IR Inten    --     40.0716                42.2489                21.3541

                     97                     98                     99
                      A                      A                      A
 Frequencies --   3121.8957              3127.5542              3133.0071
 Red. masses --      1.0868                 1.1014                 1.0919
 Frc consts  --      6.2407                 6.3473                 6.3149
 IR Inten    --      3.5533                30.3302                23.1752

                    100                    101                    102
                      A                      A                      A
 Frequencies --   3136.3959              3137.5702              3140.1155
 Red. masses --      1.1002                 1.0893                 1.1035
 Frc consts  --      6.3767                 6.3180                 6.4107
 IR Inten    --     30.1427                28.2156                 7.1773

                    103                    104                    105
                      A                      A                      A
 Frequencies --   3153.6881              3160.2761              3231.3293
 Red. masses --      1.0644                 1.1085                 1.1154
 Frc consts  --      6.2372                 6.5230                 6.8617
 IR Inten    --      6.1419                26.9130                28.6962

 - Thermochemistry -
 -------------------
 Temperature   298.150 Kelvin.  Pressure   1.00000 Atm.
 Atom     1 has atomic number  6 and mass  12.00000

 Molecular mass:   214.15689 amu.
 Principal axes and moments of inertia in atomic units:
                           1         2         3
     Eigenvalues --  2509.030284783.194955174.47365
           X            0.99989   0.00859  -0.01175
           Y           -0.00839   0.99982   0.01712
           Z            0.01189  -0.01702   0.99978
 This molecule is an asymmetric top.
 Rotational symmetry number  1.
 Warning -- assumption of classical behavior for rotation
           may cause significant error
 Rotational temperatures (Kelvin)      0.03452     0.01811     0.01674
 Rotational constants (GHZ):           0.71930     0.37731     0.34878
 Zero-point vibrational energy     867197.2 (Joules/Mol)
                                  207.26511 (Kcal/Mol)
 Warning -- explicit consideration of  25 degrees of freedom as
           vibrations may cause significant error
 Vibrational temperatures:     25.33    63.72    67.83    91.43   125.31
          (Kelvin)            148.61   154.35   167.51   190.34   224.31
                              258.61   290.83   330.79   365.61   374.88
                              390.65   460.66   483.19   505.73   528.56
                              620.15   641.09   667.58   673.82   787.30
                              905.75   985.74  1067.81  1104.44  1146.92
                             1165.71  1220.18  1255.98  1268.71  1287.74
                             1315.04  1343.32  1364.29  1376.84  1412.65
                             1465.57  1496.62  1513.26  1556.01  1566.43
                             1571.21  1614.54  1628.45  1645.82  1659.86
                             1693.40  1734.19  1756.83  1799.77  1816.17
                             1826.08  1899.53  1919.83  1931.47  1950.24
                             1973.17  1981.58  1995.10  2023.12  2026.25
                             2035.63  2063.13  2071.41  2076.96  2080.98
                             2123.53  2154.67  2175.76  2180.95  2186.71
                             2192.37  2195.10  2202.00  2210.76  2213.60
                             2225.67  2488.32  2622.67  4344.54  4357.35
                             4385.05  4385.94  4388.61  4403.60  4404.62
                             4434.34  4436.93  4456.52  4458.18  4475.22
                             4487.20  4491.71  4499.85  4507.70  4512.57
                             4514.26  4517.93  4537.45  4546.93  4649.16

 Zero-point correction=                           0.330298 (Hartree/Particle)
 Thermal correction to Energy=                    0.348121
 Thermal correction to Enthalpy=                  0.349065
 Thermal correction to Gibbs Free Energy=         0.283175
 Sum of electronic and zero-point Energies=           -695.902692
 Sum of electronic and thermal Energies=              -695.884869
 Sum of electronic and thermal Enthalpies=            -695.883925
 Sum of electronic and thermal Free Energies=         -695.949816

                     E (Thermal)             CV                S
                      KCal/Mol        Cal/Mol-Kelvin    Cal/Mol-Kelvin
 Total                  218.449             64.413            138.678
 Electronic               0.000              0.000              0.000
 Translational            0.889              2.981             41.988
 Rotational               0.889              2.981             32.496
 Vibrational            216.672             58.452             64.194
 Vibration     1          0.593              1.986              6.887
 Vibration     2          0.595              1.980              5.057
 Vibration     3          0.595              1.979              4.934
 Vibration     4          0.597              1.972              4.344
 Vibration     5          0.601              1.958              3.724
 Vibration     6          0.605              1.947              3.391
 Vibration     7          0.606              1.943              3.318
 Vibration     8          0.608              1.936              3.159
 Vibration     9          0.612              1.921              2.912
 Vibration    10          0.620              1.896              2.599
 Vibration    11          0.629              1.867              2.331
 Vibration    12          0.639              1.837              2.114
 Vibration    13          0.652              1.795              1.880
 Vibration    14          0.665              1.756              1.702
 Vibration    15          0.669              1.745              1.658
 Vibration    16          0.675              1.726              1.587
 Vibration    17          0.706              1.635              1.309
 Vibration    18          0.717              1.604              1.232
 Vibration    19          0.728              1.572              1.159
 Vibration    20          0.740              1.539              1.091
 Vibration    21          0.792              1.403              0.855
 Vibration    22          0.805              1.371              0.809
 Vibration    23          0.822              1.330              0.755
 Vibration    24          0.826              1.320              0.742
 Vibration    25          0.902              1.146              0.550

                           ! Non-Optimized Parameters !
 Normal termination of Gaussian 16 at Thu Dec 10 15:33:36 2020.

 ----------------------------------------------------------------------
 # B3LYP/6-311++G(d,p) empiricaldispersion=gd3bj scf=xqc pop=npa geom=c
 heck
 ----------------------------------------------------------------------

 --------------------------------------
 CID_83037812_JID_5261_Energie_neutraal
 --------------------------------------
 Structure from the checkpoint file:  "JID_5261.chk"
 Charge =  0 Multiplicity = 1

 SCF Done:  E(RB3LYP) =  -696.435892911     A.U. after   15 cycles
 Normal termination of Gaussian 16 at Thu Dec 10 15:40:45 2020.

 ----------------------------------------------------------------------
 # B3LYP/6-311++G(d,p) empiricaldispersion=gd3bj scf=xqc pop=npa geom=c
 heck
 ----------------------------------------------------------------------

 ------------------------------------
 CID_83037812_JID_5261_Energie_kation
 ------------------------------------
 Structure from the checkpoint file:  "JID_5261.chk"
 Charge =  1 Multiplicity = 2

 SCF Done:  E(UB3LYP) =  -696.120350610     A.U. after   22 cycles
 Normal termination of Gaussian 16 at Thu Dec 10 15:52:06 2020.
 Gaussian 16:  ES64L-G16RevA.03 25-Dec-2016

 ----------------------------------------------------------------------
 # B3LYP/6-311++G(d,p) empiricaldispersion=gd3bj scf=xqc pop=npa geom=c
 heck
 ----------------------------------------------------------------------

 -----------------------------------
 CID_83037812_JID_5261_Energie_anion
 -----------------------------------
 Structure from the checkpoint file:  "JID_5261.chk"
 Charge = -1 Multiplicity = 2

                         Standard orientation:
 ---------------------------------------------------------------------
 Center     Atomic      Atomic             Coordinates (Angstroms)
 Number     Number       Type             X           Y           Z
 ---------------------------------------------------------------------
      1          6           0       -2.206774   -2.785758   -0.196956
      2          6           0       -1.114749   -2.119301    0.644509
      3          6           0        0.057694   -1.545094   -0.165963
      4          6           0       -0.318429   -0.458827   -1.188018
      5          6           0       -1.004054    0.730984   -0.508804
      6          8           0       -0.451306    1.702551   -0.040620
      7          8           0       -2.344910    0.552956   -0.494214
      8          6           0       -3.122458    1.570310    0.180651
      9          6           0       -3.144617    1.339542    1.683041
     10          8           0        0.739956   -0.010165   -2.014865
     11          6           0        2.107759   -0.029883   -1.596075
     12          6           0        2.585087    1.206559   -0.818921
     13          6           0        2.541622    1.109367    0.717685
     14          6           0        3.414181    0.014669    1.265116
     15          6           0        3.032877   -0.914221    2.143774
     16          1           0       -2.742461   -2.053609   -0.807977
     17          1           0       -2.942624   -3.283073    0.444687
     18          1           0       -1.781451   -3.544429   -0.865664
     19          1           0       -1.560466   -1.332014    1.264266
     20          1           0       -0.696464   -2.854323    1.343787
     21          1           0        0.806014   -1.151144    0.526368
     22          1           0        0.540665   -2.356670   -0.725543
     23          1           0       -1.052627   -0.878634   -1.882676
     24          1           0       -2.703266    2.548913   -0.064122
     25          1           0       -4.119418    1.480835   -0.256185
     26          1           0       -2.138241    1.436611    2.099154
     27          1           0       -3.789325    2.082627    2.165623
     28          1           0       -3.532889    0.342942    1.916962
     29          1           0        2.342993   -0.947657   -1.044788
     30          1           0        2.649440   -0.079473   -2.546090
     31          1           0        3.626094    1.397932   -1.117120
     32          1           0        1.993886    2.065431   -1.149210
     33          1           0        2.888547    2.073657    1.118347
     34          1           0        1.511707    0.992109    1.062939
     35          1           0        4.443781    0.000347    0.900267
     36          1           0        3.716594   -1.674896    2.511084
     37          1           0        2.020763   -0.938289    2.543256
 ---------------------------------------------------------------------

 SCF Done:  E(UB3LYP) =  -696.420306800     A.U. after   33 cycles
 SCF Done:  E(UB3LYP) =  -696.420306800     a.u. after    1 cycles

 The electronic state is 2-A.
 Alpha  occ. eigenvalues --  -19.07736 -19.03537 -19.02410 -10.20953 -10.14466
 Alpha  occ. eigenvalues --  -10.13522 -10.12482 -10.08701 -10.08337 -10.07659
 Alpha  occ. eigenvalues --  -10.07650 -10.07567 -10.07491 -10.07135 -10.06175
 Alpha  occ. eigenvalues --   -1.01856  -0.94650  -0.93007  -0.72357  -0.71430
 Alpha  occ. eigenvalues --   -0.68320  -0.66689  -0.63703  -0.59673  -0.58072
 Alpha  occ. eigenvalues --   -0.54435  -0.50998  -0.49113  -0.46745  -0.45627
 Alpha  occ. eigenvalues --   -0.43383  -0.41733  -0.39881  -0.38668  -0.37916
 Alpha  occ. eigenvalues --   -0.36566  -0.35883  -0.35568  -0.34493  -0.33735
 Alpha  occ. eigenvalues --   -0.32483  -0.31551  -0.31328  -0.30843  -0.29621
 Alpha  occ. eigenvalues --   -0.29035  -0.28175  -0.27464  -0.26309  -0.25280
 Alpha  occ. eigenvalues --   -0.24924  -0.24569  -0.24456  -0.24287  -0.21717
 Alpha  occ. eigenvalues --   -0.20877  -0.20010  -0.17728  -0.16371   0.04297
 Alpha virt. eigenvalues --    0.05688   0.06457   0.07043   0.07818   0.08219
 Alpha virt. eigenvalues --    0.08262   0.08612   0.08879   0.09202   0.09932
 Alpha virt. eigenvalues --    0.10324   0.10645   0.10991   0.11583   0.12015

  Beta  occ. eigenvalues --  -19.07730 -19.03535 -19.02405 -10.20953 -10.14463
  Beta  occ. eigenvalues --  -10.13500 -10.12474 -10.08691 -10.08328 -10.07654
  Beta  occ. eigenvalues --  -10.07632 -10.07560 -10.07473 -10.07097 -10.06146
  Beta  occ. eigenvalues --   -1.01846  -0.94643  -0.92997  -0.72339  -0.71411
  Beta  occ. eigenvalues --   -0.68284  -0.66666  -0.63674  -0.59643  -0.58027
  Beta  occ. eigenvalues --   -0.54388  -0.50953  -0.49059  -0.46704  -0.45601
  Beta  occ. eigenvalues --   -0.43364  -0.41718  -0.39852  -0.38651  -0.37885
  Beta  occ. eigenvalues --   -0.36540  -0.35861  -0.35536  -0.34464  -0.33715
  Beta  occ. eigenvalues --   -0.32450  -0.31529  -0.31302  -0.30809  -0.29588
  Beta  occ. eigenvalues --   -0.29000  -0.28149  -0.27436  -0.26277  -0.25251
  Beta  occ. eigenvalues --   -0.24894  -0.24548  -0.24427  -0.24262  -0.21688
  Beta  occ. eigenvalues --   -0.20862  -0.19996  -0.17714  -0.16359
  Beta virt. eigenvalues --    0.06192   0.06792   0.07045   0.07423   0.08172
  Beta virt. eigenvalues --    0.08500   0.08668   0.08735   0.09150   0.09589
  Beta virt. eigenvalues --    0.10198   0.10718   0.10971   0.11312   0.11804

 Mulliken charges and spin densities:
               1          2
     1  C    0.704113  -1.409573
     2  C   -0.745033   0.506288
     3  C   -0.170411   0.217159
     4  C    0.802235  -0.783750
     5  C   -0.967497   0.323863
     6  O   -0.216608   0.024478
     7  O    0.013855   0.029712
     8  C    0.016969  -0.192652
     9  C    0.747540  -1.140815
    10  O   -0.070392   0.017614
    11  C   -0.355270  -0.001724
    12  C    0.256094  -0.602105
    13  C    0.165458  -0.260357
    14  C   -0.179419   0.200705
    15  C   -0.006186  -0.483055
    16  H   -0.020700   0.184680
    17  H   -0.427926   0.574124
    18  H   -0.015475   0.155087
    19  H    0.468378  -0.272940
    20  H   -0.375536   0.543348
    21  H    0.960879  -0.877746
    22  H   -0.218253   0.401500
    23  H    0.248609   0.011434
    24  H    0.173289  -0.012770
    25  H   -0.535586   0.708999
    26  H   -0.149327   0.311924
    27  H   -0.579654   0.733409
    28  H   -0.083402   0.238733
    29  H    0.045533   0.091416
    30  H   -0.128737   0.310951
    31  H    0.018697   0.106544
    32  H    0.172965   0.033294
    33  H    0.047713   0.122030
    34  H    0.062230   0.103872
    35  H   -0.286205   0.458057
    36  H   -0.225609   0.356053
    37  H   -0.147333   0.272211
 Sum of Mulliken charges =  -1.00000   1.00000

 Dipole moment (field-independent basis, Debye):
    X=              3.6017    Y=              1.8899    Z=             -3.0550  Tot=              5.0869
 Quadrupole moment (field-independent basis, Debye-Ang):
   XX=           -182.0622   YY=           -146.2278   ZZ=           -136.1157
   XY=              4.2847   XZ=              5.4432   YZ=              0.1179

 Summary of Natural Population Analysis:

                                       Natural Population
                Natural  -----------------------------------------------
    Atom  No    Charge         Core      Valence    Rydberg      Total
 -----------------------------------------------------------------------
      C    1   -0.28858      0.99966     2.28341    0.00550     3.28858
      C    2   -0.19058      0.99964     2.18278    0.00817     3.19058
      C    3   -0.20462      0.99960     2.19701    0.00800     3.20462
      C    4    0.03137      0.99948     1.95498    0.01418     2.96863
      C    5    0.40325      0.99967     1.57028    0.02680     2.59675
      O    6   -0.30870      0.99987     3.30297    0.00587     4.30870
      O    7   -0.28214      0.99986     3.27304    0.00923     4.28214
      C    8   -0.01684      0.99957     2.00521    0.01205     3.01684
      C    9   -0.29987      0.99966     2.29487    0.00534     3.29987
      O   10   -0.29983      0.99988     3.29089    0.00906     4.29983
      C   11   -0.01218      0.99955     2.00014    0.01249     3.01218
      C   12   -0.20291      0.99962     2.19496    0.00833     3.20291
      C   13   -0.21517      0.99960     2.20660    0.00897     3.21517
      C   14   -0.08450      0.99957     2.07447    0.01047     3.08450
      C   15   -0.19497      0.99956     2.18768    0.00773     3.19497
      H   16    0.10128      0.00000     0.39737    0.00135     0.39872
      H   17    0.10189      0.00000     0.39693    0.00118     0.39811
      H   18    0.09419      0.00000     0.40473    0.00108     0.40581
      H   19    0.09679      0.00000     0.40134    0.00187     0.40321
      H   20    0.09837      0.00000     0.40033    0.00131     0.40163
      H   21    0.10524      0.00000     0.39180    0.00296     0.39476
      H   22    0.10097      0.00000     0.39770    0.00134     0.39903
      H   23    0.10079      0.00000     0.39712    0.00209     0.39921
      H   24    0.09369      0.00000     0.40510    0.00121     0.40631
      H   25    0.09328      0.00000     0.40521    0.00151     0.40672
      H   26    0.10360      0.00000     0.39513    0.00128     0.39640
      H   27    0.10509      0.00000     0.39312    0.00180     0.39491
      H   28    0.10288      0.00000     0.39555    0.00157     0.39712
      H   29    0.08633      0.00000     0.41213    0.00153     0.41367
      H   30    0.08880      0.00000     0.41012    0.00108     0.41120
      H   31    0.09342      0.00000     0.40543    0.00115     0.40658
      H   32    0.11073      0.00000     0.38820    0.00106     0.38927
      H   33    0.10344      0.00000     0.39555    0.00101     0.39656
      H   34    0.10866      0.00000     0.38904    0.00230     0.39134
      H   35    0.09062      0.00000     0.40811    0.00127     0.40938
      H   36    0.09503      0.00000     0.40389    0.00108     0.40497
      H   37    0.09120      0.00000     0.40750    0.00130     0.40880
 =======================================================================
   * Total *    0.00000     14.99478    43.82070    0.18451    59.00000

 Normal termination of Gaussian 16 at Thu Dec 10 16:11:59 2020.
