 Gaussian 16, Revision A.03,

 -----------------------------------------------------------
 # opt freq B3LYP/6-31G(d) empiricaldispersion=gd3bj scf=xqc
 -----------------------------------------------------------

 -------------------------------
 CID_151675780_JID_2171_neutraal
 -------------------------------
 Symbolic Z-matrix:
 Charge =  0 Multiplicity = 1

 SCF Done:  E(RB3LYP) =  -886.304171713     A.U. after   18 cycles
 SCF Done:  E(RB3LYP) =  -886.310127751     A.U. after   15 cycles
 SCF Done:  E(RB3LYP) =  -886.310405596     A.U. after   13 cycles
 SCF Done:  E(RB3LYP) =  -886.311038464     A.U. after   13 cycles
 SCF Done:  E(RB3LYP) =  -886.311045141     A.U. after   10 cycles
 SCF Done:  E(RB3LYP) =  -886.311046007     A.U. after    9 cycles
 SCF Done:  E(RB3LYP) =  -886.311046181     A.U. after    8 cycles
 SCF Done:  E(RB3LYP) =  -886.311046292     A.U. after    8 cycles
 SCF Done:  E(RB3LYP) =  -886.311046337     A.U. after    8 cycles
 Optimization completed.
    -- Stationary point found.
 Normal termination of Gaussian 16 at Wed Dec  9 16:48:32 2020.

 --------------------------------------------------------------------
 #N Geom=AllCheck Guess=TCheck SCRF=Check GenChk RB3LYP/6-31G(d) Freq
 --------------------------------------------------------------------

 Structure from the checkpoint file:  "JID_2171.chk"
 -------------------------------
 CID_151675780_JID_2171_neutraal
 -------------------------------
 Charge =  0 Multiplicity = 1

 SCF Done:  E(RB3LYP) =  -886.311046337     A.U. after    1 cycles

  Exact polarizability: 192.689   5.239 120.322   0.003  -0.000  41.919
 Approx polarizability: 331.703  23.836 244.629   0.012   0.009  67.183

                      1                      2                      3
                      A                      A                      A
 Frequencies --     55.6753               105.8214               135.1989
 Red. masses --      8.1642                10.4093                11.2540
 Frc consts  --      0.0149                 0.0687                 0.1212
 IR Inten    --      0.4113                 0.5626                 0.7209

                      4                      5                      6
                      A                      A                      A
 Frequencies --    194.7431               272.2239               312.5035
 Red. masses --      4.6610                 8.8651                 7.1723
 Frc consts  --      0.1041                 0.3871                 0.4127
 IR Inten    --      0.2601                 2.3854                 0.0199

                      7                      8                      9
                      A                      A                      A
 Frequencies --    401.7662               421.1761               423.7223
 Red. masses --      9.7848                11.4862                 3.1468
 Frc consts  --      0.9306                 1.2005                 0.3329
 IR Inten    --      0.7551                 1.7192                 3.1359

                     10                     11                     12
                      A                      A                      A
 Frequencies --    510.3268               522.2610               526.4001
 Red. masses --      8.6596                10.7773                 6.4426
 Frc consts  --      1.3288                 1.7319                 1.0518
 IR Inten    --      0.1779                 5.2836                 1.8829

                     13                     14                     15
                      A                      A                      A
 Frequencies --    586.6279               591.1479               657.7160
 Red. masses --      3.4951                 9.6078                 9.3608
 Frc consts  --      0.7087                 1.9782                 2.3858
 IR Inten    --     14.1923                12.7049                 7.0075

                     16                     17                     18
                      A                      A                      A
 Frequencies --    748.8962               749.3495               807.2243
 Red. masses --      3.3947                 7.2217                 1.4717
 Frc consts  --      1.1218                 2.3892                 0.5650
 IR Inten    --      0.0004                 2.5565                 3.9323

                     19                     20                     21
                      A                      A                      A
 Frequencies --    808.0993               851.3172               901.0515
 Red. masses --      7.6697                 1.4916                 4.1178
 Frc consts  --      2.9509                 0.6369                 1.9697
 IR Inten    --     17.7258                41.3611                22.9909

                     22                     23                     24
                      A                      A                      A
 Frequencies --    933.4010               976.0799              1053.2001
 Red. masses --      1.3246                 1.3878                 4.7033
 Frc consts  --      0.6799                 0.7790                 3.0738
 IR Inten    --      0.2178                 0.1086                29.9990

                     25                     26                     27
                      A                      A                      A
 Frequencies --   1103.6066              1112.5989              1211.2612
 Red. masses --      3.5801                 3.0383                 1.8308
 Frc consts  --      2.5691                 2.2159                 1.5826
 IR Inten    --     16.7078                 6.8159                 6.1460

                     28                     29                     30
                      A                      A                      A
 Frequencies --   1234.3159              1301.2566              1326.4651
 Red. masses --      1.6238                 2.3886                 4.6522
 Frc consts  --      1.4576                 2.3830                 4.8228
 IR Inten    --     15.6287                15.5713                71.2317

                     31                     32                     33
                      A                      A                      A
 Frequencies --   1344.3956              1391.3944              1457.2288
 Red. masses --      6.9554                 2.4348                 2.1770
 Frc consts  --      7.4067                 2.7773                 2.7238
 IR Inten    --    132.4296                27.3201                37.8071

                     34                     35                     36
                      A                      A                      A
 Frequencies --   1498.6110              1559.0486              1605.4978
 Red. masses --      2.8853                 5.6257                 6.2778
 Frc consts  --      3.8179                 8.0566                 9.5341
 IR Inten    --     49.5041               123.7713                48.6265

                     37                     38                     39
                      A                      A                      A
 Frequencies --   1635.9723              2275.4467              3174.7636
 Red. masses --      6.1271                13.9926                 1.0902
 Frc consts  --      9.6618                42.6856                 6.4741
 IR Inten    --     40.3914               844.1036                21.0663

                     40                     41                     42
                      A                      A                      A
 Frequencies --   3183.2403              3209.7703              3227.7545
 Red. masses --      1.0891                 1.0945                 1.0933
 Frc consts  --      6.5022                 6.6440                 6.7113
 IR Inten    --     21.2542                19.5779                 2.9756

 - Thermochemistry -
 -------------------
 Temperature   298.150 Kelvin.  Pressure   1.00000 Atm.
 Atom     1 has atomic number  6 and mass  12.00000

 Molecular mass:   176.01567 amu.
 Principal axes and moments of inertia in atomic units:
                           1         2         3
     Eigenvalues --   796.252753574.731424370.98408
           X            0.99998  -0.00568  -0.00000
           Y            0.00568   0.99998  -0.00001
           Z            0.00000   0.00001   1.00000
 This molecule is an asymmetric top.
 Rotational symmetry number  1.
 Warning -- assumption of classical behavior for rotation
           may cause significant error
 Rotational temperatures (Kelvin)      0.10878     0.02423     0.01982
 Rotational constants (GHZ):           2.26654     0.50486     0.41289
 Zero-point vibrational energy     277525.0 (Joules/Mol)
                                   66.33007 (Kcal/Mol)
 Warning -- explicit consideration of  14 degrees of freedom as
           vibrations may cause significant error
 Vibrational temperatures:     80.10   152.25   194.52   280.19   391.67
          (Kelvin)            449.62   578.05   605.98   609.64   734.25
                              751.42   757.37   844.03   850.53   946.31
                             1077.49  1078.15  1161.42  1162.67  1224.86
                             1296.41  1342.96  1404.36  1515.32  1587.84
                             1600.78  1742.73  1775.91  1872.22  1908.49
                             1934.29  2001.91  2096.63  2156.17  2243.12
                             2309.95  2353.80  3273.86  4567.78  4579.97
                             4618.14  4644.02

 Zero-point correction=                           0.105704 (Hartree/Particle)
 Thermal correction to Energy=                    0.114875
 Thermal correction to Enthalpy=                  0.115819
 Thermal correction to Gibbs Free Energy=         0.070232
 Sum of electronic and zero-point Energies=           -886.205343
 Sum of electronic and thermal Energies=              -886.196171
 Sum of electronic and thermal Enthalpies=            -886.195227
 Sum of electronic and thermal Free Energies=         -886.240814

                     E (Thermal)             CV                S
                      KCal/Mol        Cal/Mol-Kelvin    Cal/Mol-Kelvin
 Total                   72.085             34.749             95.946
 Electronic               0.000              0.000              0.000
 Translational            0.889              2.981             41.403
 Rotational               0.889              2.981             30.898
 Vibrational             70.308             28.788             23.644
 Vibration     1          0.596              1.975              4.605
 Vibration     2          0.605              1.945              3.344
 Vibration     3          0.613              1.918              2.871
 Vibration     4          0.635              1.847              2.182
 Vibration     5          0.675              1.724              1.582
 Vibration     6          0.701              1.650              1.349
 Vibration     7          0.767              1.466              0.956
 Vibration     8          0.784              1.424              0.888
 Vibration     9          0.786              1.419              0.879
 Vibration    10          0.865              1.227              0.633
 Vibration    11          0.877              1.201              0.605
 Vibration    12          0.881              1.192              0.595
 Vibration    13          0.944              1.060              0.473
 Vibration    14          0.949              1.051              0.465

 Optimization completed.
    -- Stationary point found.
 Normal termination of Gaussian 16 at Wed Dec  9 16:51:32 2020.

 ----------------------------------------------------------------------
 # B3LYP/6-311++G(d,p) empiricaldispersion=gd3bj scf=xqc pop=npa geom=c
 heck
 ----------------------------------------------------------------------

 ---------------------------------------
 CID_151675780_JID_2171_Energie_neutraal
 ---------------------------------------
 Structure from the checkpoint file:  "JID_2171.chk"
 Charge =  0 Multiplicity = 1

 SCF Done:  E(RB3LYP) =  -886.461474912     A.U. after   18 cycles
 Normal termination of Gaussian 16 at Wed Dec  9 16:53:01 2020.

 ----------------------------------------------------------------------
 # B3LYP/6-311++G(d,p) empiricaldispersion=gd3bj scf=xqc pop=npa geom=c
 heck
 ----------------------------------------------------------------------

 -------------------------------------
 CID_151675780_JID_2171_Energie_kation
 -------------------------------------
 Structure from the checkpoint file:  "JID_2171.chk"
 Charge =  1 Multiplicity = 2

 SCF Done:  E(UB3LYP) =  -886.151824440     A.U. after   28 cycles
 Normal termination of Gaussian 16 at Wed Dec  9 16:56:19 2020.
 Gaussian 16:  ES64L-G16RevA.03 25-Dec-2016

 ----------------------------------------------------------------------
 # B3LYP/6-311++G(d,p) empiricaldispersion=gd3bj scf=xqc pop=npa geom=c
 heck
 ----------------------------------------------------------------------

 ------------------------------------
 CID_151675780_JID_2171_Energie_anion
 ------------------------------------
 Structure from the checkpoint file:  "JID_2171.chk"
 Charge = -1 Multiplicity = 2

                         Standard orientation:
 ---------------------------------------------------------------------
 Center     Atomic      Atomic             Coordinates (Angstroms)
 Number     Number       Type             X           Y           Z
 ---------------------------------------------------------------------
      1          6           0       -1.815625    1.691106   -0.000144
      2          6           0       -3.126591    1.234927    0.000059
      3          7           0       -3.483291   -0.065534    0.000249
      4          6           0       -2.513413   -0.979331    0.000248
      5          6           0       -1.163817   -0.625188    0.000045
      6          6           0       -0.782899    0.739329   -0.000158
      7          6           0        0.640989    0.908481   -0.000369
      8          6           0        1.298182   -0.290240   -0.000264
      9         16           0        0.234236   -1.691203   -0.000016
     10          7           0        2.665969   -0.579111   -0.000431
     11          7           0        3.445752    0.387077    0.000195
     12          7           0        4.265584    1.177156    0.000583
     13          1           0       -1.597267    2.754637   -0.000288
     14          1           0       -3.949535    1.946137    0.000076
     15          1           0       -2.821337   -2.023348    0.000379
     16          1           0        1.141304    1.870207   -0.000585
 ---------------------------------------------------------------------

 SCF Done:  E(UB3LYP) =  -886.478208743     A.U. after   33 cycles
 SCF Done:  E(UB3LYP) =  -886.478208743     a.u. after    1 cycles

 The electronic state is 2-A.
 Alpha  occ. eigenvalues --  -88.73166 -14.32173 -14.23408 -14.23330 -14.15345
 Alpha  occ. eigenvalues --  -10.08909 -10.06401 -10.06355 -10.06214 -10.04842
 Alpha  occ. eigenvalues --  -10.03409 -10.02534  -7.81837  -5.78159  -5.77827
 Alpha  occ. eigenvalues --   -5.77347  -1.00042  -0.84944  -0.79820  -0.73462
 Alpha  occ. eigenvalues --   -0.64725  -0.62121  -0.58408  -0.53426  -0.46902
 Alpha  occ. eigenvalues --   -0.46529  -0.38924  -0.38159  -0.37933  -0.35912
 Alpha  occ. eigenvalues --   -0.32821  -0.32021  -0.31303  -0.28691  -0.27829
 Alpha  occ. eigenvalues --   -0.26607  -0.23673  -0.23361  -0.20765  -0.17939
 Alpha  occ. eigenvalues --   -0.16958  -0.15900  -0.11880  -0.10065  -0.08393
 Alpha  occ. eigenvalues --    0.04378
 Alpha virt. eigenvalues --    0.09194   0.09645   0.10596   0.11203   0.11481
 Alpha virt. eigenvalues --    0.12355   0.12886   0.14016   0.14626   0.14895
 Alpha virt. eigenvalues --    0.15482   0.16512   0.17083   0.17930   0.18176

  Beta  occ. eigenvalues --  -88.73131 -14.31717 -14.23558 -14.22887 -14.15048
  Beta  occ. eigenvalues --  -10.08432 -10.06420 -10.06397 -10.06112 -10.04746
  Beta  occ. eigenvalues --  -10.03267 -10.02492  -7.81807  -5.78150  -5.77817
  Beta  occ. eigenvalues --   -5.77224  -0.99288  -0.84650  -0.79435  -0.73106
  Beta  occ. eigenvalues --   -0.64367  -0.61644  -0.58181  -0.52945  -0.46713
  Beta  occ. eigenvalues --   -0.46356  -0.38652  -0.37937  -0.35933  -0.35712
  Beta  occ. eigenvalues --   -0.32252  -0.31769  -0.30654  -0.28482  -0.26976
  Beta  occ. eigenvalues --   -0.26470  -0.23505  -0.21905  -0.20620  -0.17950
  Beta  occ. eigenvalues --   -0.15878  -0.14988  -0.11531  -0.09281  -0.07022
  Beta virt. eigenvalues --    0.09222   0.10063   0.10448   0.10603   0.11190
  Beta virt. eigenvalues --    0.11811   0.12941   0.13901   0.14050   0.14728
  Beta virt. eigenvalues --    0.15484   0.15586   0.16560   0.17344   0.17954

 Mulliken charges and spin densities:
               1          2
     1  C   -0.113097   0.142377
     2  C   -0.505887  -0.054026
     3  N   -0.129989   0.136418
     4  C    0.044396   0.069778
     5  C    0.137503   0.012030
     6  C    0.316105   0.038276
     7  C   -0.211455   0.032900
     8  C   -0.520533   0.267395
     9  S   -0.380656   0.053832
    10  N   -0.009922  -0.093507
    11  N    0.235449   0.109153
    12  N   -0.319303   0.303637
    13  H    0.114347  -0.007166
    14  H    0.114207   0.002191
    15  H    0.129127  -0.007988
    16  H    0.099708  -0.005300
 Sum of Mulliken charges =  -1.00000   1.00000

 Dipole moment (field-independent basis, Debye):
    X=             -0.4386    Y=             -0.0927    Z=             -0.0006  Tot=              0.4483
 Quadrupole moment (field-independent basis, Debye-Ang):
   XX=           -134.0741   YY=            -84.2509   ZZ=            -83.5703
   XY=             -5.8401   XZ=             -0.0005   YZ=             -0.0031

 Summary of Natural Population Analysis:

                                       Natural Population
                Natural  -----------------------------------------------
    Atom  No    Charge         Core      Valence    Rydberg      Total
 -----------------------------------------------------------------------
      C    1   -0.10156      0.99952     2.09379    0.00826     3.10156
      C    2   -0.00502      0.99960     1.98965    0.01577     3.00502
      N    3   -0.21608      0.99971     2.70219    0.01418     3.71608
      C    4    0.02993      0.99952     1.95466    0.01589     2.97007
      C    5   -0.11127      0.99939     2.10224    0.00964     3.11127
      C    6   -0.00886      0.99948     2.00066    0.00872     3.00886
      C    7   -0.16741      0.99944     2.15902    0.00895     3.16741
      C    8    0.09189      0.99942     1.89301    0.01567     2.90811
      S    9    0.17928      4.99943     2.79906    0.02223     7.82072
      N   10   -0.23120      0.99963     2.71708    0.01449     3.73120
      N   11    0.16241      0.99970     2.32110    0.01679     3.33759
      N   12    0.02118      0.99982     2.46582    0.01318     3.47882
      H   13    0.09293      0.00000     0.40527    0.00180     0.40707
      H   14    0.07982      0.00000     0.41873    0.00144     0.42018
      H   15    0.08131      0.00000     0.41724    0.00145     0.41869
      H   16    0.10265      0.00000     0.39587    0.00148     0.39735
 =======================================================================
   * Total *   -0.00000     15.99467    28.83539    0.16993    45.00000

 Normal termination of Gaussian 16 at Wed Dec  9 17:00:12 2020.
