 Gaussian 16, Revision A.03,

 -----------------------------------------------------------
 # opt freq B3LYP/6-31G(d) empiricaldispersion=gd3bj scf=xqc
 -----------------------------------------------------------

 ------------------------------
 CID_65485607_JID_6758_neutraal
 ------------------------------
 Symbolic Z-matrix:
 Charge =  0 Multiplicity = 1

 SCF Done:  E(RB3LYP) =  -707.058684660     A.U. after   15 cycles
 SCF Done:  E(RB3LYP) =  -707.062259117     A.U. after   12 cycles
 SCF Done:  E(RB3LYP) =  -707.062016850     A.U. after   12 cycles
 SCF Done:  E(RB3LYP) =  -707.062310083     A.U. after   12 cycles
 SCF Done:  E(RB3LYP) =  -707.063127926     A.U. after   11 cycles
 SCF Done:  E(RB3LYP) =  -707.063702754     A.U. after   12 cycles
 SCF Done:  E(RB3LYP) =  -707.020581268     A.U. after   14 cycles
 SCF Done:  E(RB3LYP) =  -707.064911631     A.U. after   13 cycles
 SCF Done:  E(RB3LYP) =  -707.064397390     A.U. after   12 cycles
 SCF Done:  E(RB3LYP) =  -707.064521781     A.U. after   12 cycles
 SCF Done:  E(RB3LYP) =  -707.069242699     A.U. after   10 cycles
 SCF Done:  E(RB3LYP) =  -707.069243517     A.U. after    9 cycles
 SCF Done:  E(RB3LYP) =  -707.069243651     A.U. after    8 cycles
 SCF Done:  E(RB3LYP) =  -707.069243779     A.U. after    8 cycles
 SCF Done:  E(RB3LYP) =  -707.069243844     A.U. after    7 cycles
 Optimization completed.
    -- Stationary point found.
 Normal termination of Gaussian 16 at Fri Dec 11 00:11:09 2020.

 --------------------------------------------------------------------
 #N Geom=AllCheck Guess=TCheck SCRF=Check GenChk RB3LYP/6-31G(d) Freq
 --------------------------------------------------------------------

 Structure from the checkpoint file:  "JID_6758.chk"
 ------------------------------
 CID_65485607_JID_6758_neutraal
 ------------------------------
 Charge =  0 Multiplicity = 1

 SCF Done:  E(RB3LYP) =  -707.069243844     A.U. after    1 cycles

  Exact polarizability: 231.403  -0.628 132.379  14.254   5.408  93.306
 Approx polarizability: 302.416  -4.765 234.493  27.807  15.197 141.594

                      1                      2                      3
                      A                      A                      A
 Frequencies --     18.8265                46.7055                63.0813
 Red. masses --      3.3313                 3.8582                 3.2355
 Frc consts  --      0.0007                 0.0050                 0.0076
 IR Inten    --      3.2843                 5.5836                 1.3543

                      4                      5                      6
                      A                      A                      A
 Frequencies --     82.6190               159.7770               187.8185
 Red. masses --      3.5536                 5.2176                 2.9379
 Frc consts  --      0.0143                 0.0785                 0.0611
 IR Inten    --      2.6776                 0.8143                 0.4320

                      7                      8                      9
                      A                      A                      A
 Frequencies --    194.4241               230.0626               258.8660
 Red. masses --      3.0047                 1.1269                 1.7409
 Frc consts  --      0.0669                 0.0351                 0.0687
 IR Inten    --      1.9734                 1.1474                 1.0063

                     10                     11                     12
                      A                      A                      A
 Frequencies --    272.7657               274.8693               286.4520
 Red. masses --      1.2943                 1.4663                 1.5125
 Frc consts  --      0.0567                 0.0653                 0.0731
 IR Inten    --      0.3572                 0.5293                 0.1257

                     13                     14                     15
                      A                      A                      A
 Frequencies --    295.9286               317.6134               348.1625
 Red. masses --      1.4019                 5.8947                 2.1285
 Frc consts  --      0.0723                 0.3504                 0.1520
 IR Inten    --      0.1109                 2.3217                 0.1730

                     16                     17                     18
                      A                      A                      A
 Frequencies --    381.9714               394.6799               411.1675
 Red. masses --      2.8236                 4.0770                 2.0877
 Frc consts  --      0.2427                 0.3742                 0.2080
 IR Inten    --      1.1929                21.7116                 5.6243

                     19                     20                     21
                      A                      A                      A
 Frequencies --    416.8724               424.7397               439.3259
 Red. masses --      1.4892                 3.1399                 3.4784
 Frc consts  --      0.1525                 0.3337                 0.3956
 IR Inten    --     60.9895                 3.0383                 2.0289

                     22                     23                     24
                      A                      A                      A
 Frequencies --    477.1401               506.6917               571.7724
 Red. masses --      2.6340                 3.5654                 5.7108
 Frc consts  --      0.3533                 0.5393                 1.1000
 IR Inten    --      5.5036                 6.7207                 2.6475

                     25                     26                     27
                      A                      A                      A
 Frequencies --    639.3433               672.6354               697.0538
 Red. masses --      4.3061                 3.7249                 4.0325
 Frc consts  --      1.0370                 0.9929                 1.1544
 IR Inten    --     10.1826                 3.6552                 0.6259

                     28                     29                     30
                      A                      A                      A
 Frequencies --    747.8977               774.0361               779.4737
 Red. masses --      4.4278                 5.1766                10.3594
 Frc consts  --      1.4592                 1.8273                 3.7084
 IR Inten    --      1.6908                 5.4564                 8.2380

                     31                     32                     33
                      A                      A                      A
 Frequencies --    793.7464               803.3105               873.3797
 Red. masses --      6.6201                 1.7142                 5.2825
 Frc consts  --      2.4574                 0.6517                 2.3741
 IR Inten    --      1.4187                33.2232                 0.3509

                     34                     35                     36
                      A                      A                      A
 Frequencies --    905.9889               922.1801               930.2673
 Red. masses --      1.9542                 2.3187                 1.2826
 Frc consts  --      0.9450                 1.1618                 0.6540
 IR Inten    --      0.1798                 0.5853                 1.5926

                     37                     38                     39
                      A                      A                      A
 Frequencies --    953.4528               953.6955               973.7411
 Red. masses --      1.6320                 1.6130                 4.8180
 Frc consts  --      0.8741                 0.8644                 2.6916
 IR Inten    --      0.8354                 1.0154                 2.8949

                     40                     41                     42
                      A                      A                      A
 Frequencies --    978.4669              1024.4851              1062.0957
 Red. masses --      1.2166                 3.8146                 1.4296
 Frc consts  --      0.6862                 2.3589                 0.9502
 IR Inten    --      0.1138                 0.7441                 0.3482

                     43                     44                     45
                      A                      A                      A
 Frequencies --   1075.2439              1125.5040              1160.8623
 Red. masses --      1.5963                 4.8883                 1.4446
 Frc consts  --      1.0874                 3.6484                 1.1470
 IR Inten    --      1.9375                54.1186                32.7459

                     46                     47                     48
                      A                      A                      A
 Frequencies --   1167.3408              1186.7257              1208.0684
 Red. masses --      1.4232                 1.2720                 1.5914
 Frc consts  --      1.1427                 1.0554                 1.3684
 IR Inten    --      6.0437                 0.7957                62.4871

                     49                     50                     51
                      A                      A                      A
 Frequencies --   1230.4563              1243.8951              1249.7455
 Red. masses --      2.0210                 2.2486                 2.0526
 Frc consts  --      1.8028                 2.0499                 1.8889
 IR Inten    --     19.5640                66.1798                11.4007

                     52                     53                     54
                      A                      A                      A
 Frequencies --   1274.3570              1307.1609              1322.1097
 Red. masses --      2.6369                 3.8737                 2.0076
 Frc consts  --      2.5231                 3.8997                 2.0676
 IR Inten    --     49.6842               259.2456                34.5448

                     55                     56                     57
                      A                      A                      A
 Frequencies --   1336.7647              1359.8724              1415.1157
 Red. masses --      5.0620                 1.6005                 3.9723
 Frc consts  --      5.3294                 1.7438                 4.6868
 IR Inten    --     80.0653                15.5088                 9.7613

                     58                     59                     60
                      A                      A                      A
 Frequencies --   1428.7001              1430.1785              1434.5924
 Red. masses --      1.2820                 2.4780                 1.4163
 Frc consts  --      1.5418                 2.9863                 1.7173
 IR Inten    --      7.5436               137.9943                51.4186

                     61                     62                     63
                      A                      A                      A
 Frequencies --   1461.0070              1464.7184              1499.5470
 Red. masses --      1.4738                 1.8072                 1.6279
 Frc consts  --      1.8535                 2.2844                 2.1568
 IR Inten    --     55.0255                80.5411                11.3156

                     64                     65                     66
                      A                      A                      A
 Frequencies --   1504.1320              1511.7175              1517.3057
 Red. masses --      1.1236                 1.0485                 1.0471
 Frc consts  --      1.4978                 1.4117                 1.4203
 IR Inten    --      2.8019                 0.7599                 0.5093

                     67                     68                     69
                      A                      A                      A
 Frequencies --   1518.3100              1523.8177              1526.5946
 Red. masses --      1.0511                 1.0478                 1.9208
 Frc consts  --      1.4276                 1.4335                 2.6374
 IR Inten    --      0.5669                 5.2947                66.8480

                     70                     71                     72
                      A                      A                      A
 Frequencies --   1536.5686              1539.4119              1539.8713
 Red. masses --      1.0673                 1.2524                 1.0810
 Frc consts  --      1.4847                 1.7486                 1.5103
 IR Inten    --      6.1566                 4.2536                11.8806

                     73                     74                     75
                      A                      A                      A
 Frequencies --   1547.5765              1590.1712              1627.1119
 Red. masses --      1.0602                 5.8204                 6.4212
 Frc consts  --      1.4960                 8.6714                10.0162
 IR Inten    --     10.5945               131.8954               142.1636

                     76                     77                     78
                      A                      A                      A
 Frequencies --   1689.5082              3020.8851              3034.0225
 Red. masses --      7.5288                 1.0355                 1.0390
 Frc consts  --     12.6618                 5.5678                 5.6352
 IR Inten    --     35.7099                65.5505                29.1640

                     79                     80                     81
                      A                      A                      A
 Frequencies --   3037.6089              3042.6678              3051.3706
 Red. masses --      1.0450                 1.0525                 1.0409
 Frc consts  --      5.6812                 5.7411                 5.7101
 IR Inten    --      6.4912                58.3823                24.7959

                     82                     83                     84
                      A                      A                      A
 Frequencies --   3078.0305              3099.2130              3102.1179
 Red. masses --      1.1064                 1.0982                 1.0996
 Frc consts  --      6.1763                 6.2146                 6.2344
 IR Inten    --     47.7098                 8.4029                 9.1477

                     85                     86                     87
                      A                      A                      A
 Frequencies --   3107.2030              3108.9555              3114.5162
 Red. masses --      1.1005                 1.1013                 1.1014
 Frc consts  --      6.2598                 6.2716                 6.2948
 IR Inten    --     33.8817                19.9550                58.1753

                     88                     89                     90
                      A                      A                      A
 Frequencies --   3121.6483              3144.2088              3158.6320
 Red. masses --      1.1020                 1.0998                 1.0988
 Frc consts  --      6.3269                 6.4062                 6.4589
 IR Inten    --     44.6527                18.0831                29.3011

                     91                     92                     93
                      A                      A                      A
 Frequencies --   3198.5734              3244.0801              3653.4620
 Red. masses --      1.0910                 1.0914                 1.0802
 Frc consts  --      6.5764                 6.7674                 8.4954
 IR Inten    --     11.3974                 9.1520                37.3869

 - Thermochemistry -
 -------------------
 Temperature   298.150 Kelvin.  Pressure   1.00000 Atm.
 Atom     1 has atomic number  6 and mass  12.00000

 Molecular mass:   219.13716 amu.
 Principal axes and moments of inertia in atomic units:
                           1         2         3
     Eigenvalues --  1113.966677730.785018207.63043
           X            0.99998   0.00658   0.00004
           Y           -0.00658   0.99998  -0.00215
           Z           -0.00005   0.00215   1.00000
 This molecule is an asymmetric top.
 Rotational symmetry number  1.
 Warning -- assumption of classical behavior for rotation
           may cause significant error
 Rotational temperatures (Kelvin)      0.07775     0.01120     0.01055
 Rotational constants (GHZ):           1.62010     0.23345     0.21989
 Zero-point vibrational energy     738208.6 (Joules/Mol)
                                  176.43609 (Kcal/Mol)
 Warning -- explicit consideration of  24 degrees of freedom as
           vibrations may cause significant error
 Vibrational temperatures:     27.09    67.20    90.76   118.87   229.88
          (Kelvin)            270.23   279.73   331.01   372.45   392.45
                              395.48   412.14   425.78   456.97   500.93
                              549.57   567.86   591.58   599.79   611.11
                              632.09   686.50   729.02   822.65   919.87
                              967.77  1002.90  1076.06  1113.67  1121.49
                             1142.02  1155.78  1256.60  1303.52  1326.81
                             1338.45  1371.81  1372.16  1401.00  1407.80
                             1474.01  1528.12  1547.04  1619.35  1670.22
                             1679.54  1707.43  1738.14  1770.35  1789.69
                             1798.11  1833.52  1880.71  1902.22  1923.31
                             1956.55  2036.04  2055.58  2057.71  2064.06
                             2102.06  2107.40  2157.51  2164.11  2175.02
                             2183.06  2184.51  2192.43  2196.43  2210.78
                             2214.87  2215.53  2226.62  2287.90  2341.05
                             2430.83  4346.38  4365.28  4370.44  4377.72
                             4390.24  4428.60  4459.08  4463.26  4470.57
                             4473.09  4481.09  4491.36  4523.82  4544.57
                             4602.03  4667.51  5256.52

 Zero-point correction=                           0.281169 (Hartree/Particle)
 Thermal correction to Energy=                    0.296604
 Thermal correction to Enthalpy=                  0.297548
 Thermal correction to Gibbs Free Energy=         0.238087
 Sum of electronic and zero-point Energies=           -706.788075
 Sum of electronic and thermal Energies=              -706.772640
 Sum of electronic and thermal Enthalpies=            -706.771696
 Sum of electronic and thermal Free Energies=         -706.831157

                     E (Thermal)             CV                S
                      KCal/Mol        Cal/Mol-Kelvin    Cal/Mol-Kelvin
 Total                  186.122             59.852            125.147
 Electronic               0.000              0.000              0.000
 Translational            0.889              2.981             42.057
 Rotational               0.889              2.981             32.625
 Vibrational            184.344             53.890             50.466
 Vibration     1          0.593              1.986              6.754
 Vibration     2          0.595              1.979              4.952
 Vibration     3          0.597              1.972              4.358
 Vibration     4          0.600              1.961              3.828
 Vibration     5          0.622              1.892              2.552
 Vibration     6          0.632              1.857              2.249
 Vibration     7          0.635              1.848              2.185
 Vibration     8          0.652              1.795              1.878
 Vibration     9          0.668              1.748              1.669
 Vibration    10          0.676              1.724              1.579
 Vibration    11          0.677              1.720              1.565
 Vibration    12          0.684              1.699              1.495
 Vibration    13          0.690              1.681              1.440
 Vibration    14          0.704              1.640              1.322
 Vibration    15          0.726              1.579              1.174
 Vibration    16          0.751              1.509              1.031
 Vibration    17          0.762              1.482              0.982
 Vibration    18          0.775              1.446              0.922
 Vibration    19          0.780              1.434              0.903
 Vibration    20          0.787              1.416              0.876
 Vibration    21          0.799              1.384              0.829
 Vibration    22          0.834              1.301              0.718
 Vibration    23          0.862              1.235              0.642
 Vibration    24          0.928              1.092              0.501

 Optimization completed.
    -- Stationary point found.
 Normal termination of Gaussian 16 at Fri Dec 11 00:20:22 2020.

 ----------------------------------------------------------------------
 # B3LYP/6-311++G(d,p) empiricaldispersion=gd3bj scf=xqc pop=npa geom=c
 heck
 ----------------------------------------------------------------------

 --------------------------------------
 CID_65485607_JID_6758_Energie_neutraal
 --------------------------------------
 Structure from the checkpoint file:  "JID_6758.chk"
 Charge =  0 Multiplicity = 1

 SCF Done:  E(RB3LYP) =  -707.260003567     A.U. after   15 cycles
 Normal termination of Gaussian 16 at Fri Dec 11 00:24:22 2020.

 ----------------------------------------------------------------------
 # B3LYP/6-311++G(d,p) empiricaldispersion=gd3bj scf=xqc pop=npa geom=c
 heck
 ----------------------------------------------------------------------

 ------------------------------------
 CID_65485607_JID_6758_Energie_kation
 ------------------------------------
 Structure from the checkpoint file:  "JID_6758.chk"
 Charge =  1 Multiplicity = 2

 SCF Done:  E(UB3LYP) =  -706.972726633     A.U. after   23 cycles
 Normal termination of Gaussian 16 at Fri Dec 11 00:32:51 2020.
 Gaussian 16:  ES64L-G16RevA.03 25-Dec-2016

 ----------------------------------------------------------------------
 # B3LYP/6-311++G(d,p) empiricaldispersion=gd3bj scf=xqc pop=npa geom=c
 heck
 ----------------------------------------------------------------------

 -----------------------------------
 CID_65485607_JID_6758_Energie_anion
 -----------------------------------
 Structure from the checkpoint file:  "JID_6758.chk"
 Charge = -1 Multiplicity = 2

                         Standard orientation:
 ---------------------------------------------------------------------
 Center     Atomic      Atomic             Coordinates (Angstroms)
 Number     Number       Type             X           Y           Z
 ---------------------------------------------------------------------
      1          6           0       -3.231532   -1.701133    0.633864
      2          6           0       -3.527372   -0.242571    0.251344
      3          6           0       -5.006776   -0.101850   -0.141618
      4          6           0       -3.224158    0.680218    1.442813
      5          6           0       -2.670363    0.171175   -0.982440
      6          6           0       -1.197744    0.207295   -0.737097
      7          7           0       -0.388621   -0.830797   -0.757476
      8          6           0        0.860617   -0.331417   -0.425293
      9          6           0        0.784591    1.069103   -0.201032
     10          7           0       -0.546140    1.383499   -0.412356
     11          6           0        1.927045    1.777612    0.141235
     12          6           0        3.104375    1.038950    0.247802
     13          6           0        3.076561   -0.356587    0.005599
     14          7           0        1.986180   -1.039698   -0.325198
     15          8           0        4.187529   -1.140239    0.092284
     16          6           0        5.418218   -0.531019    0.437703
     17          1           0       -3.819525   -1.990638    1.512828
     18          1           0       -2.171397   -1.848823    0.856189
     19          1           0       -3.492241   -2.379902   -0.186376
     20          1           0       -5.656957   -0.412074    0.684427
     21          1           0       -5.256565    0.936208   -0.394163
     22          1           0       -5.245905   -0.727886   -1.009352
     23          1           0       -2.187252    0.574565    1.778857
     24          1           0       -3.395370    1.734142    1.185528
     25          1           0       -3.875661    0.437878    2.289897
     26          1           0       -2.860029   -0.535560   -1.796803
     27          1           0       -3.001510    1.160553   -1.325444
     28          1           0       -0.979672    2.290021   -0.322136
     29          1           0        1.923788    2.848692    0.321907
     30          1           0        4.024529    1.541790    0.514199
     31          1           0        5.719112    0.225557   -0.299562
     32          1           0        5.377906   -0.067088    1.432529
     33          1           0        6.155806   -1.335207    0.447121
 ---------------------------------------------------------------------

 SCF Done:  E(UB3LYP) =  -707.255745207     A.U. after   33 cycles
 SCF Done:  E(UB3LYP) =  -707.255745207     a.u. after    1 cycles

 The electronic state is 2-A.
 Alpha  occ. eigenvalues --  -19.05288 -14.25278 -14.18647 -14.18162 -10.15201
 Alpha  occ. eigenvalues --  -10.13622 -10.12968 -10.11007 -10.09965 -10.09085
 Alpha  occ. eigenvalues --  -10.07970 -10.07643 -10.06961 -10.06431 -10.05736
 Alpha  occ. eigenvalues --  -10.05540  -0.97556  -0.91029  -0.82427  -0.76668
 Alpha  occ. eigenvalues --   -0.73184  -0.69367  -0.65700  -0.62771  -0.59195
 Alpha  occ. eigenvalues --   -0.58931  -0.58667  -0.52594  -0.51602  -0.49183
 Alpha  occ. eigenvalues --   -0.44898  -0.43668  -0.42463  -0.40513  -0.38111
 Alpha  occ. eigenvalues --   -0.37156  -0.36807  -0.35503  -0.34831  -0.33628
 Alpha  occ. eigenvalues --   -0.33075  -0.31623  -0.31234  -0.30516  -0.29684
 Alpha  occ. eigenvalues --   -0.28169  -0.27738  -0.27066  -0.26704  -0.24717
 Alpha  occ. eigenvalues --   -0.23721  -0.23103  -0.22912  -0.21060  -0.20631
 Alpha  occ. eigenvalues --   -0.18106  -0.14904  -0.13999  -0.11258   0.04003
 Alpha virt. eigenvalues --    0.05866   0.06417   0.07082   0.08214   0.08656
 Alpha virt. eigenvalues --    0.09343   0.09775   0.10000   0.10548   0.10963
 Alpha virt. eigenvalues --    0.11328   0.11707   0.12154   0.12406   0.13213

  Beta  occ. eigenvalues --  -19.05288 -14.25226 -14.18538 -14.18172 -10.15210
  Beta  occ. eigenvalues --  -10.13611 -10.12863 -10.10972 -10.09988 -10.09078
  Beta  occ. eigenvalues --  -10.07845 -10.07633 -10.06918 -10.06409 -10.05702
  Beta  occ. eigenvalues --  -10.05529  -0.97548  -0.90938  -0.82281  -0.76597
  Beta  occ. eigenvalues --   -0.73145  -0.69190  -0.65605  -0.62720  -0.59138
  Beta  occ. eigenvalues --   -0.58863  -0.58624  -0.52432  -0.51503  -0.49089
  Beta  occ. eigenvalues --   -0.44812  -0.43609  -0.42390  -0.40439  -0.38075
  Beta  occ. eigenvalues --   -0.37072  -0.36706  -0.35460  -0.34789  -0.33573
  Beta  occ. eigenvalues --   -0.32937  -0.31538  -0.31164  -0.30470  -0.29635
  Beta  occ. eigenvalues --   -0.27998  -0.27689  -0.27036  -0.26675  -0.24689
  Beta  occ. eigenvalues --   -0.23641  -0.23059  -0.22869  -0.20843  -0.20365
  Beta  occ. eigenvalues --   -0.18048  -0.14825  -0.13617  -0.10985
  Beta virt. eigenvalues --    0.05967   0.06601   0.07377   0.07943   0.08819
  Beta virt. eigenvalues --    0.08931   0.09471   0.09858   0.10285   0.10757
  Beta virt. eigenvalues --    0.11238   0.11397   0.11993   0.12225   0.12408

 Mulliken charges and spin densities:
               1          2
     1  C   -0.380091  -0.307127
     2  C   -0.621204   1.497596
     3  C   -0.170590  -0.352093
     4  C    0.691469  -1.396746
     5  C   -0.595100  -0.161328
     6  C    0.703407  -0.139739
     7  N   -0.085159  -0.026706
     8  C   -0.933619   0.351548
     9  C    2.079253  -1.587870
    10  N   -0.159528   0.037529
    11  C   -1.048542   0.157736
    12  C    0.936114  -0.575438
    13  C   -0.303940   0.068442
    14  N   -0.299691   0.069629
    15  O   -0.065109   0.006479
    16  C    0.098361  -0.318662
    17  H    0.080324   0.039540
    18  H    0.184260   0.016130
    19  H    0.073036   0.054789
    20  H    0.042393   0.088793
    21  H   -0.130700   0.275918
    22  H   -0.017064   0.147355
    23  H    0.104673   0.085070
    24  H   -0.354936   0.516416
    25  H    0.013227   0.121045
    26  H    0.200004   0.006819
    27  H   -0.310708   0.496388
    28  H   -0.230411   0.561794
    29  H   -0.801918   0.970081
    30  H    0.133416   0.027700
    31  H   -0.015847   0.158239
    32  H    0.075368   0.063158
    33  H    0.108852   0.047515
 Sum of Mulliken charges =  -1.00000   1.00000

 Dipole moment (field-independent basis, Debye):
    X=              2.2242    Y=             -3.0989    Z=              0.9063  Tot=              3.9206
 Quadrupole moment (field-independent basis, Debye-Ang):
   XX=           -153.0537   YY=           -147.9190   ZZ=           -119.1274
   XY=             12.8764   XZ=              1.6279   YZ=             -3.9075

 Summary of Natural Population Analysis:

                                       Natural Population
                Natural  -----------------------------------------------
    Atom  No    Charge         Core      Valence    Rydberg      Total
 -----------------------------------------------------------------------
      C    1   -0.28646      0.99962     2.28093    0.00590     3.28646
      C    2   -0.04094      0.99959     2.03132    0.01003     3.04094
      C    3   -0.28260      0.99962     2.27571    0.00727     3.28260
      C    4   -0.28750      0.99962     2.28051    0.00737     3.28750
      C    5   -0.21390      0.99955     2.20266    0.01169     3.21390
      C    6    0.23441      0.99962     1.74722    0.01875     2.76559
      N    7   -0.26969      0.99967     2.76141    0.00862     3.76969
      C    8    0.17782      0.99947     1.80417    0.01854     2.82218
      C    9    0.03103      0.99944     1.95756    0.01196     2.96897
      N   10   -0.27822      0.99962     2.76840    0.01019     3.77822
      C   11   -0.07025      0.99953     2.06091    0.00980     3.07025
      C   12   -0.16345      0.99954     2.15485    0.00906     3.16345
      C   13    0.25402      0.99946     1.72839    0.01813     2.74598
      N   14   -0.22646      0.99961     2.71697    0.00988     3.72646
      O   15   -0.27161      0.99985     3.26274    0.00902     4.27161
      C   16   -0.10078      0.99961     2.09310    0.00807     3.10078
      H   17    0.09356      0.00000     0.40569    0.00075     0.40644
      H   18    0.11255      0.00000     0.38640    0.00105     0.38745
      H   19    0.09770      0.00000     0.40155    0.00075     0.40230
      H   20    0.09696      0.00000     0.40227    0.00076     0.40304
      H   21    0.10182      0.00000     0.39722    0.00096     0.39818
      H   22    0.09759      0.00000     0.40163    0.00078     0.40241
      H   23    0.10364      0.00000     0.39523    0.00113     0.39636
      H   24    0.10296      0.00000     0.39531    0.00173     0.39704
      H   25    0.09708      0.00000     0.40211    0.00081     0.40292
      H   26    0.11225      0.00000     0.38664    0.00111     0.38775
      H   27    0.10852      0.00000     0.38958    0.00190     0.39148
      H   28    0.21016      0.00000     0.27893    0.01091     0.28984
      H   29    0.10414      0.00000     0.39433    0.00153     0.39586
      H   30    0.10181      0.00000     0.39679    0.00140     0.39819
      H   31    0.08256      0.00000     0.41567    0.00177     0.41744
      H   32    0.08150      0.00000     0.41701    0.00149     0.41850
      H   33    0.08978      0.00000     0.40924    0.00098     0.41022
 =======================================================================
   * Total *    0.00000     15.99344    42.80246    0.20410    59.00000

 Normal termination of Gaussian 16 at Fri Dec 11 00:45:19 2020.
