 Gaussian 16, Revision A.03,

 -----------------------------------------------------------
 # opt freq B3LYP/6-31G(d) empiricaldispersion=gd3bj scf=xqc
 -----------------------------------------------------------

 ------------------------------
 CID_60681835_JID_8010_neutraal
 ------------------------------
 Symbolic Z-matrix:
 Charge =  0 Multiplicity = 1

 SCF Done:  E(RB3LYP) =  -804.303716366     A.U. after   15 cycles
 SCF Done:  E(RB3LYP) =  -804.306262877     A.U. after   14 cycles
 SCF Done:  E(RB3LYP) =  -804.306263400     A.U. after   14 cycles
 SCF Done:  E(RB3LYP) =  -804.307734825     A.U. after   14 cycles
 SCF Done:  E(RB3LYP) =  -804.309638328     A.U. after   14 cycles
 SCF Done:  E(RB3LYP) =  -804.309595180     A.U. after   12 cycles
 SCF Done:  E(RB3LYP) =  -804.309833677     A.U. after   13 cycles
 SCF Done:  E(RB3LYP) =  -804.310153826     A.U. after   12 cycles
 SCF Done:  E(RB3LYP) =  -804.310225325     A.U. after   12 cycles
 SCF Done:  E(RB3LYP) =  -804.310275539     A.U. after   11 cycles
 SCF Done:  E(RB3LYP) =  -804.310289585     A.U. after   10 cycles
 SCF Done:  E(RB3LYP) =  -804.310290765     A.U. after    8 cycles
 SCF Done:  E(RB3LYP) =  -804.310291090     A.U. after    8 cycles
 SCF Done:  E(RB3LYP) =  -804.310291170     A.U. after    8 cycles
 SCF Done:  E(RB3LYP) =  -804.310291196     A.U. after    7 cycles
 Optimization completed.
    -- Stationary point found.
 Normal termination of Gaussian 16 at Fri Dec 11 18:41:25 2020.

 --------------------------------------------------------------------
 #N Geom=AllCheck Guess=TCheck SCRF=Check GenChk RB3LYP/6-31G(d) Freq
 --------------------------------------------------------------------

 Structure from the checkpoint file:  "JID_8010.chk"
 ------------------------------
 CID_60681835_JID_8010_neutraal
 ------------------------------
 Charge =  0 Multiplicity = 1

 SCF Done:  E(RB3LYP) =  -804.310291196     A.U. after    1 cycles

  Exact polarizability: 206.301   3.448 159.303  24.693  -7.418 111.710
 Approx polarizability: 289.797  14.475 254.100  50.959 -13.800 181.443

                      1                      2                      3
                      A                      A                      A
 Frequencies --     26.4542                33.5690                39.8597
 Red. masses --      4.2347                 4.9210                 5.4799
 Frc consts  --      0.0017                 0.0033                 0.0051
 IR Inten    --      0.7135                 0.2732                 3.9929

                      4                      5                      6
                      A                      A                      A
 Frequencies --     66.3793                75.5500               102.9857
 Red. masses --      3.7770                 2.7180                 4.8560
 Frc consts  --      0.0098                 0.0091                 0.0303
 IR Inten    --      0.7744                 0.0619                 0.1186

                      7                      8                      9
                      A                      A                      A
 Frequencies --    114.7776               147.6592               159.9053
 Red. masses --      6.3132                 6.3555                 3.2363
 Frc consts  --      0.0490                 0.0816                 0.0488
 IR Inten    --      1.9475                 5.7897                 3.5430

                     10                     11                     12
                      A                      A                      A
 Frequencies --    188.3814               197.7958               218.1636
 Red. masses --      4.2343                 3.4677                 3.4440
 Frc consts  --      0.0885                 0.0799                 0.0966
 IR Inten    --      0.4376                 5.3966                 2.5713

                     13                     14                     15
                      A                      A                      A
 Frequencies --    247.2253               296.6970               319.5143
 Red. masses --      1.1285                 3.2386                 5.3798
 Frc consts  --      0.0406                 0.1680                 0.3236
 IR Inten    --      0.3251                 1.0488                 8.4513

                     16                     17                     18
                      A                      A                      A
 Frequencies --    375.7013               389.3207               413.4574
 Red. masses --      4.2960                 5.2250                 2.8738
 Frc consts  --      0.3573                 0.4666                 0.2894
 IR Inten    --     15.8440                 4.0146                 0.0776

                     19                     20                     21
                      A                      A                      A
 Frequencies --    416.2982               440.8234               466.7576
 Red. masses --      2.2960                 3.0194                 2.9934
 Frc consts  --      0.2344                 0.3457                 0.3842
 IR Inten    --      1.6186                 0.3685                 3.4883

                     22                     23                     24
                      A                      A                      A
 Frequencies --    482.4996               518.6973               559.2283
 Red. masses --      3.2148                 1.8986                 3.1761
 Frc consts  --      0.4410                 0.3010                 0.5852
 IR Inten    --      2.5616                29.7921                 5.5487

                     25                     26                     27
                      A                      A                      A
 Frequencies --    584.3043               625.2419               634.0356
 Red. masses --      3.6488                 2.7340                 6.3697
 Frc consts  --      0.7340                 0.6297                 1.5087
 IR Inten    --     28.1094                39.0523                 0.2168

                     28                     29                     30
                      A                      A                      A
 Frequencies --    696.6713               707.7935               714.1891
 Red. masses --      3.3249                 1.8295                 2.0375
 Frc consts  --      0.9508                 0.5400                 0.6123
 IR Inten    --     13.2204                17.3060               142.6648

                     31                     32                     33
                      A                      A                      A
 Frequencies --    755.0380               784.5802               813.9686
 Red. masses --      2.6338                 1.2279                 2.9446
 Frc consts  --      0.8846                 0.4453                 1.1495
 IR Inten    --     24.1400                 3.0796                12.2130

                     34                     35                     36
                      A                      A                      A
 Frequencies --    830.7475               853.1486               859.7049
 Red. masses --      2.8596                 1.4920                 1.2522
 Frc consts  --      1.1628                 0.6399                 0.5453
 IR Inten    --      2.8011                 6.1133                 0.6498

                     37                     38                     39
                      A                      A                      A
 Frequencies --    878.9530               881.5602               944.9986
 Red. masses --      3.5762                 2.7508                 1.4523
 Frc consts  --      1.6278                 1.2596                 0.7641
 IR Inten    --      6.3232                 2.2733                 0.8632

                     40                     41                     42
                      A                      A                      A
 Frequencies --    957.0114               972.7902               978.1055
 Red. masses --      2.7350                 2.5393                 1.3742
 Frc consts  --      1.4758                 1.4158                 0.7746
 IR Inten    --      8.6858                 3.7270                 0.3928

                     43                     44                     45
                      A                      A                      A
 Frequencies --   1000.8111              1005.4909              1023.3426
 Red. masses --      2.3158                 1.3758                 6.0004
 Frc consts  --      1.3666                 0.8195                 3.7023
 IR Inten    --      8.2048                 1.1374                 1.5397

                     46                     47                     48
                      A                      A                      A
 Frequencies --   1047.1371              1051.2777              1069.6791
 Red. masses --      1.9056                 3.0034                 1.5822
 Frc consts  --      1.2311                 1.9557                 1.0667
 IR Inten    --      8.8126                 6.8725                 3.7851

                     49                     50                     51
                      A                      A                      A
 Frequencies --   1070.3205              1087.0845              1087.9829
 Red. masses --      1.8448                 1.3697                 2.0057
 Frc consts  --      1.2452                 0.9537                 1.3988
 IR Inten    --      8.5823                 0.8445                31.8706

                     52                     53                     54
                      A                      A                      A
 Frequencies --   1118.5246              1158.1347              1160.1781
 Red. masses --      1.5726                 1.5067                 1.1308
 Frc consts  --      1.1592                 1.1907                 0.8968
 IR Inten    --      3.4791                26.1625                 5.5732

                     55                     56                     57
                      A                      A                      A
 Frequencies --   1176.3219              1195.2901              1209.8813
 Red. masses --      1.6921                 1.1036                 1.5516
 Frc consts  --      1.3795                 0.9290                 1.3382
 IR Inten    --     47.3565                 0.2865                 2.5818

                     58                     59                     60
                      A                      A                      A
 Frequencies --   1214.0355              1214.5390              1219.0577
 Red. masses --      1.1650                 1.8014                 1.5041
 Frc consts  --      1.0117                 1.5656                 1.3169
 IR Inten    --     17.0909                 1.8093                 5.5865

                     61                     62                     63
                      A                      A                      A
 Frequencies --   1253.1292              1306.4467              1331.3413
 Red. masses --      1.7834                 3.5816                 2.1689
 Frc consts  --      1.6501                 3.6017                 2.2650
 IR Inten    --     11.8399               110.7734               140.2512

                     64                     65                     66
                      A                      A                      A
 Frequencies --   1349.2943              1355.1281              1371.7107
 Red. masses --      1.6271                 1.5897                 4.0655
 Frc consts  --      1.7454                 1.7200                 4.5070
 IR Inten    --      2.1774                22.7168                 4.4455

                     67                     68                     69
                      A                      A                      A
 Frequencies --   1378.9560              1395.3470              1409.0450
 Red. masses --      1.3081                 1.7889                 1.4351
 Frc consts  --      1.4655                 2.0521                 1.6787
 IR Inten    --      8.1400                 6.4252                21.9023

                     70                     71                     72
                      A                      A                      A
 Frequencies --   1439.0678              1461.4048              1477.1536
 Red. masses --      1.6697                 1.7698                 1.1194
 Frc consts  --      2.0372                 2.2269                 1.4391
 IR Inten    --     38.1371                30.7575                 9.0272

                     73                     74                     75
                      A                      A                      A
 Frequencies --   1485.6475              1486.7246              1495.7231
 Red. masses --      1.1028                 1.1243                 1.8781
 Frc consts  --      1.4341                 1.4641                 2.4755
 IR Inten    --      1.3875                 4.3006                 5.6032

                     76                     77                     78
                      A                      A                      A
 Frequencies --   1501.0478              1509.8717              1528.3270
 Red. masses --      1.2285                 1.0770                 1.3825
 Frc consts  --      1.6309                 1.4466                 1.9026
 IR Inten    --     23.1378                 5.9397                 8.9017

                     79                     80                     81
                      A                      A                      A
 Frequencies --   1543.6654              1550.0328              1640.3655
 Red. masses --      2.1580                 1.0541                 5.4342
 Frc consts  --      3.0297                 1.4921                 8.6152
 IR Inten    --      2.0799                13.1044                12.0373

                     82                     83                     84
                      A                      A                      A
 Frequencies --   1661.8900              1741.8002              1783.2251
 Red. masses --      5.5313                10.9426                 8.1480
 Frc consts  --      9.0008                19.5599                15.2657
 IR Inten    --     31.0717               158.1782               338.5422

                     85                     86                     87
                      A                      A                      A
 Frequencies --   3032.7562              3036.9419              3057.5151
 Red. masses --      1.0436                 1.0595                 1.0607
 Frc consts  --      5.6552                 5.7571                 5.8421
 IR Inten    --     50.9562                34.8182                33.4388

                     88                     89                     90
                      A                      A                      A
 Frequencies --   3101.1806              3112.1693              3114.6352
 Red. masses --      1.1009                 1.1036                 1.1041
 Frc consts  --      6.2383                 6.2979                 6.3106
 IR Inten    --     26.5555                16.8312                42.1857

                     91                     92                     93
                      A                      A                      A
 Frequencies --   3127.9960              3153.3992              3155.9601
 Red. masses --      1.0932                 1.0506                 1.0641
 Frc consts  --      6.3019                 6.1552                 6.2446
 IR Inten    --     15.2860                15.7718                 3.8371

                     94                     95                     96
                      A                      A                      A
 Frequencies --   3160.8427              3186.7558              3198.0904
 Red. masses --      1.0837                 1.0856                 1.0897
 Frc consts  --      6.3790                 6.4953                 6.5663
 IR Inten    --      9.0173                 0.1084                13.4489

                     97                     98                     99
                      A                      A                      A
 Frequencies --   3209.1244              3224.7382              3232.2339
 Red. masses --      1.0945                 1.0925                 1.1202
 Frc consts  --      6.6411                 6.6939                 6.8953
 IR Inten    --     32.5108                14.4159                 0.4605

                    100                    101                    102
                      A                      A                      A
 Frequencies --   3234.3135              3245.4630              3551.2650
 Red. masses --      1.0925                 1.1166                 1.0751
 Frc consts  --      6.7333                 6.9298                 7.9887
 IR Inten    --      4.2600                16.9021                10.3201

 - Thermochemistry -
 -------------------
 Temperature   298.150 Kelvin.  Pressure   1.00000 Atm.
 Atom     1 has atomic number  6 and mass  12.00000

 Molecular mass:   246.13683 amu.
 Principal axes and moments of inertia in atomic units:
                           1         2         3
     Eigenvalues --  2247.551296858.456417712.23617
           X            0.99995   0.00804   0.00662
           Y           -0.00802   0.99996  -0.00366
           Z           -0.00665   0.00361   0.99997
 This molecule is an asymmetric top.
 Rotational symmetry number  1.
 Warning -- assumption of classical behavior for rotation
           may cause significant error
 Rotational temperatures (Kelvin)      0.03854     0.01263     0.01123
 Rotational constants (GHZ):           0.80298     0.26314     0.23401
 Zero-point vibrational energy     798336.0 (Joules/Mol)
                                  190.80689 (Kcal/Mol)
 Warning -- explicit consideration of  25 degrees of freedom as
           vibrations may cause significant error
 Vibrational temperatures:     38.06    48.30    57.35    95.51   108.70
          (Kelvin)            148.17   165.14   212.45   230.07   271.04
                              284.58   313.89   355.70   426.88   459.71
                              540.55   560.15   594.87   598.96   634.25
                              671.56   694.21   746.29   804.60   840.68
                              899.58   912.24  1002.35  1018.36  1027.56
                             1086.33  1128.84  1171.12  1195.26  1227.49
                             1236.92  1264.62  1268.37  1359.64  1376.93
                             1399.63  1407.28  1439.94  1446.68  1472.36
                             1506.60  1512.55  1539.03  1539.95  1564.07
                             1565.36  1609.31  1666.30  1669.24  1692.46
                             1719.76  1740.75  1746.73  1747.45  1753.95
                             1802.97  1879.69  1915.50  1941.33  1949.73
                             1973.59  1984.01  2007.59  2027.30  2070.50
                             2102.64  2125.29  2137.52  2139.07  2152.01
                             2159.67  2172.37  2198.92  2220.99  2230.15
                             2360.12  2391.09  2506.06  2565.66  4363.46
                             4369.48  4399.08  4461.91  4477.72  4481.27
                             4500.49  4537.04  4540.72  4547.75  4585.03
                             4601.34  4617.21  4639.68  4650.46  4653.46
                             4669.50  5109.48

 Zero-point correction=                           0.304070 (Hartree/Particle)
 Thermal correction to Energy=                    0.321297
 Thermal correction to Enthalpy=                  0.322241
 Thermal correction to Gibbs Free Energy=         0.257483
 Sum of electronic and zero-point Energies=           -804.006221
 Sum of electronic and thermal Energies=              -803.988994
 Sum of electronic and thermal Enthalpies=            -803.988050
 Sum of electronic and thermal Free Energies=         -804.052809

                     E (Thermal)             CV                S
                      KCal/Mol        Cal/Mol-Kelvin    Cal/Mol-Kelvin
 Total                  201.617             65.295            136.296
 Electronic               0.000              0.000              0.000
 Translational            0.889              2.981             42.403
 Rotational               0.889              2.981             33.141
 Vibrational            199.840             59.333             60.752
 Vibration     1          0.593              1.985              6.079
 Vibration     2          0.594              1.983              5.606
 Vibration     3          0.594              1.981              5.266
 Vibration     4          0.598              1.970              4.258
 Vibration     5          0.599              1.965              4.003
 Vibration     6          0.605              1.947              3.397
 Vibration     7          0.608              1.937              3.186
 Vibration     8          0.617              1.905              2.702
 Vibration     9          0.622              1.891              2.551
 Vibration    10          0.633              1.856              2.244
 Vibration    11          0.637              1.843              2.154
 Vibration    12          0.646              1.813              1.974
 Vibration    13          0.661              1.767              1.750
 Vibration    14          0.690              1.680              1.435
 Vibration    15          0.705              1.636              1.313
 Vibration    16          0.747              1.522              1.056
 Vibration    17          0.757              1.493              1.003
 Vibration    18          0.777              1.441              0.914
 Vibration    19          0.780              1.435              0.905
 Vibration    20          0.801              1.381              0.824
 Vibration    21          0.824              1.324              0.747
 Vibration    22          0.839              1.289              0.703
 Vibration    23          0.874              1.209              0.613
 Vibration    24          0.915              1.120              0.525
 Vibration    25          0.941              1.065              0.477

 Optimization completed.
    -- Stationary point found.
 Normal termination of Gaussian 16 at Fri Dec 11 18:57:38 2020.

 ----------------------------------------------------------------------
 # B3LYP/6-311++G(d,p) empiricaldispersion=gd3bj scf=xqc pop=npa geom=c
 heck
 ----------------------------------------------------------------------

 --------------------------------------
 CID_60681835_JID_8010_Energie_neutraal
 --------------------------------------
 Structure from the checkpoint file:  "JID_8010.chk"
 Charge =  0 Multiplicity = 1

 SCF Done:  E(RB3LYP) =  -804.534559327     A.U. after   15 cycles
 Normal termination of Gaussian 16 at Fri Dec 11 19:03:45 2020.

 ----------------------------------------------------------------------
 # B3LYP/6-311++G(d,p) empiricaldispersion=gd3bj scf=xqc pop=npa geom=c
 heck
 ----------------------------------------------------------------------

 ------------------------------------
 CID_60681835_JID_8010_Energie_kation
 ------------------------------------
 Structure from the checkpoint file:  "JID_8010.chk"
 Charge =  1 Multiplicity = 2

 SCF Done:  E(UB3LYP) =  -804.261041491     A.U. after   24 cycles
 Normal termination of Gaussian 16 at Fri Dec 11 19:16:49 2020.
 Gaussian 16:  ES64L-G16RevA.03 25-Dec-2016

 ----------------------------------------------------------------------
 # B3LYP/6-311++G(d,p) empiricaldispersion=gd3bj scf=xqc pop=npa geom=c
 heck
 ----------------------------------------------------------------------

 -----------------------------------
 CID_60681835_JID_8010_Energie_anion
 -----------------------------------
 Structure from the checkpoint file:  "JID_8010.chk"
 Charge = -1 Multiplicity = 2

                         Standard orientation:
 ---------------------------------------------------------------------
 Center     Atomic      Atomic             Coordinates (Angstroms)
 Number     Number       Type             X           Y           Z
 ---------------------------------------------------------------------
      1          6           0        0.588939    2.566294    0.915913
      2          7           0       -0.339437    2.130820   -0.120394
      3          6           0        0.248940    1.581568   -1.337662
      4          6           0        0.633310    0.101614   -1.209782
      5          8           0       -0.198013   -0.745108   -1.527321
      6          6           0        1.935250   -0.300427   -0.610278
      7          6           0        2.084181   -1.634229   -0.199525
      8          6           0        3.276974   -2.069299    0.363895
      9          6           0        4.343144   -1.177639    0.517545
     10          6           0        4.208051    0.148862    0.107904
     11          6           0        3.008102    0.587474   -0.449918
     12          6           0       -1.548531    1.464624    0.321362
     13          6           0       -1.353401    0.101323    1.010635
     14          8           0       -0.398063   -0.111582    1.748860
     15          7           0       -2.330851   -0.843511    0.822833
     16          6           0       -3.228736   -0.891373   -0.299899
     17          6           0       -4.548387   -1.582475   -0.089645
     18          6           0       -4.504132   -0.084552   -0.246207
     19          1           0        1.284093    3.294273    0.478960
     20          1           0        1.158883    1.759848    1.389791
     21          1           0        0.015719    3.075524    1.698250
     22          1           0       -0.497375    1.630082   -2.138913
     23          1           0        1.096876    2.212871   -1.619389
     24          1           0        1.241207   -2.303820   -0.326134
     25          1           0        3.379620   -3.100440    0.689610
     26          1           0        5.276442   -1.517027    0.958238
     27          1           0        5.035206    0.843008    0.224621
     28          1           0        2.916932    1.621686   -0.761845
     29          1           0       -2.048910    2.113080    1.054364
     30          1           0       -2.220135    1.370790   -0.535218
     31          1           0       -2.071975   -1.736709    1.230371
     32          1           0       -2.744301   -1.005608   -1.267910
     33          1           0       -4.940274   -2.183673   -0.904270
     34          1           0       -4.750011   -1.975270    0.902820
     35          1           0       -4.668681    0.517065    0.642291
     36          1           0       -4.864903    0.356083   -1.171053
 ---------------------------------------------------------------------

 SCF Done:  E(UB3LYP) =  -804.543411356     A.U. after   33 cycles
 SCF Done:  E(UB3LYP) =  -804.543411356     a.u. after    1 cycles

 The electronic state is 2-A.
 Alpha  occ. eigenvalues --  -18.96731 -18.91007 -14.22400 -14.17876 -10.15078
 Alpha  occ. eigenvalues --  -10.11714 -10.09372 -10.09085 -10.08527 -10.05886
 Alpha  occ. eigenvalues --  -10.05132 -10.04678 -10.02157 -10.02014 -10.01571
 Alpha  occ. eigenvalues --  -10.01143 -10.00526 -10.00471  -0.91867  -0.85218
 Alpha  occ. eigenvalues --   -0.82720  -0.79299  -0.74759  -0.69776  -0.61657
 Alpha  occ. eigenvalues --   -0.59973  -0.59127  -0.58165  -0.53017  -0.52313
 Alpha  occ. eigenvalues --   -0.49911  -0.46809  -0.45238  -0.44329  -0.42335
 Alpha  occ. eigenvalues --   -0.40241  -0.39494  -0.36969  -0.36359  -0.35485
 Alpha  occ. eigenvalues --   -0.33516  -0.32772  -0.31109  -0.29582  -0.29503
 Alpha  occ. eigenvalues --   -0.29179  -0.28920  -0.27865  -0.27110  -0.26588
 Alpha  occ. eigenvalues --   -0.25773  -0.25290  -0.24463  -0.23062  -0.22829
 Alpha  occ. eigenvalues --   -0.21918  -0.21343  -0.19989  -0.19155  -0.18640
 Alpha  occ. eigenvalues --   -0.15131  -0.14259  -0.10712  -0.10257  -0.09898
 Alpha  occ. eigenvalues --   -0.06026   0.05083
 Alpha virt. eigenvalues --    0.06835   0.08315   0.08644   0.09135   0.09880
 Alpha virt. eigenvalues --    0.10415   0.10672   0.11551   0.11827   0.12018
 Alpha virt. eigenvalues --    0.12626   0.13245   0.13368   0.13702   0.14020

  Beta  occ. eigenvalues --  -18.96722 -18.90418 -14.22399 -14.17810 -10.15077
  Beta  occ. eigenvalues --  -10.11714 -10.09372 -10.09084 -10.08529 -10.05887
  Beta  occ. eigenvalues --  -10.05167 -10.04241 -10.02213 -10.02098 -10.01420
  Beta  occ. eigenvalues --  -10.00815 -10.00434 -10.00281  -0.91853  -0.84150
  Beta  occ. eigenvalues --   -0.82714  -0.79157  -0.74757  -0.69451  -0.61537
  Beta  occ. eigenvalues --   -0.59577  -0.58811  -0.58006  -0.52999  -0.52310
  Beta  occ. eigenvalues --   -0.49711  -0.46120  -0.45134  -0.44201  -0.42305
  Beta  occ. eigenvalues --   -0.40214  -0.39137  -0.36886  -0.36219  -0.35287
  Beta  occ. eigenvalues --   -0.33341  -0.32695  -0.30942  -0.29424  -0.29335
  Beta  occ. eigenvalues --   -0.29145  -0.28867  -0.27710  -0.27028  -0.26501
  Beta  occ. eigenvalues --   -0.25584  -0.24892  -0.24144  -0.22908  -0.22453
  Beta  occ. eigenvalues --   -0.21566  -0.20946  -0.19575  -0.18633  -0.16816
  Beta  occ. eigenvalues --   -0.15065  -0.14216  -0.09888  -0.09789  -0.08314
  Beta  occ. eigenvalues --   -0.05652
  Beta virt. eigenvalues --    0.06789   0.08258   0.08577   0.09069   0.09833
  Beta virt. eigenvalues --    0.10353   0.10560   0.11428   0.11550   0.11980
  Beta virt. eigenvalues --    0.12188   0.12605   0.13268   0.13356   0.13713

 Mulliken charges and spin densities:
               1          2
     1  C   -0.416736   0.006498
     2  N    0.216731   0.041610
     3  C   -0.321317  -0.038071
     4  C   -0.531053   0.256372
     5  O   -0.310896   0.205903
     6  C    1.110849   0.022440
     7  C    0.077473   0.227023
     8  C   -0.410112  -0.059452
     9  C   -0.383690   0.247711
    10  C   -0.428462  -0.051323
    11  C   -0.421295   0.114298
    12  C   -0.365368  -0.044128
    13  C   -0.249755  -0.002292
    14  O   -0.241700  -0.001050
    15  N    0.011758   0.010344
    16  C   -0.208380  -0.000873
    17  C   -0.399044   0.000659
    18  C   -0.305278  -0.012315
    19  H    0.116005   0.000463
    20  H    0.199794  -0.001579
    21  H    0.102077  -0.000648
    22  H    0.085532   0.052540
    23  H    0.121511   0.036074
    24  H    0.141381  -0.010176
    25  H    0.113009   0.004232
    26  H    0.091951  -0.021413
    27  H    0.113271   0.006258
    28  H    0.040682  -0.006376
    29  H    0.148487  -0.006067
    30  H    0.213298   0.009129
    31  H    0.257645   0.002008
    32  H    0.301234   0.004458
    33  H    0.134675   0.000868
    34  H    0.122539   0.000221
    35  H    0.152813  -0.000398
    36  H    0.120372   0.007054
 Sum of Mulliken charges =  -1.00000   1.00000

 Dipole moment (field-independent basis, Debye):
    X=             -7.3039    Y=              1.4684    Z=              1.2265  Tot=              7.5503
 Quadrupole moment (field-independent basis, Debye-Ang):
   XX=           -141.3760   YY=           -121.0558   ZZ=           -127.9087
   XY=              8.6670   XZ=              0.3637   YZ=             -2.2305

 Summary of Natural Population Analysis:

                                       Natural Population
                Natural  -----------------------------------------------
    Atom  No    Charge         Core      Valence    Rydberg      Total
 -----------------------------------------------------------------------
      C    1   -0.17405      0.99965     2.16748    0.00692     3.17405
      N    2   -0.27000      0.99974     2.75677    0.01349     3.77000
      C    3   -0.11885      0.99958     2.10653    0.01274     3.11885
      C    4    0.31685      0.99962     1.66260    0.02093     2.68315
      O    5   -0.26587      0.99988     3.25888    0.00712     4.26587
      C    6   -0.05319      0.99947     2.04175    0.01198     3.05319
      C    7   -0.03580      0.99953     2.02768    0.00859     3.03580
      C    8   -0.13262      0.99957     2.12381    0.00924     3.13262
      C    9   -0.04576      0.99957     2.03655    0.00963     3.04576
      C   10   -0.13226      0.99957     2.12310    0.00958     3.13226
      C   11   -0.06389      0.99954     2.05695    0.00740     3.06389
      C   12   -0.12536      0.99957     2.11319    0.01260     3.12536
      C   13    0.34580      0.99968     1.63095    0.02357     2.65420
      O   14   -0.31289      0.99987     3.30650    0.00652     4.31289
      N   15   -0.33037      0.99964     2.81700    0.01373     3.83037
      C   16   -0.02308      0.99957     2.01280    0.01071     3.02308
      C   17   -0.20131      0.99963     2.19528    0.00641     3.20131
      C   18   -0.20205      0.99963     2.19599    0.00643     3.20205
      H   19    0.08531      0.00000     0.41374    0.00095     0.41469
      H   20    0.10329      0.00000     0.39524    0.00147     0.39671
      H   21    0.08447      0.00000     0.41461    0.00092     0.41553
      H   22    0.09332      0.00000     0.40480    0.00189     0.40668
      H   23    0.09242      0.00000     0.40636    0.00123     0.40758
      H   24    0.10207      0.00000     0.39648    0.00145     0.39793
      H   25    0.08857      0.00000     0.41037    0.00106     0.41143
      H   26    0.08368      0.00000     0.41522    0.00110     0.41632
      H   27    0.08772      0.00000     0.41072    0.00156     0.41228
      H   28    0.08878      0.00000     0.40989    0.00133     0.41122
      H   29    0.09742      0.00000     0.40150    0.00108     0.40258
      H   30    0.10217      0.00000     0.39637    0.00146     0.39783
      H   31    0.19149      0.00000     0.30656    0.00195     0.30851
      H   32    0.11758      0.00000     0.38120    0.00123     0.38242
      H   33    0.10067      0.00000     0.39841    0.00092     0.39933
      H   34    0.10147      0.00000     0.39749    0.00103     0.39853
      H   35    0.10369      0.00000     0.39530    0.00102     0.39631
      H   36    0.10062      0.00000     0.39845    0.00093     0.39938
 =======================================================================
   * Total *    0.00000     17.99332    47.78651    0.22017    66.00000

 Normal termination of Gaussian 16 at Fri Dec 11 19:36:13 2020.
