 Gaussian 16, Revision A.03,

 -----------------------------------------------------------
 # opt freq B3LYP/6-31G(d) empiricaldispersion=gd3bj scf=xqc
 -----------------------------------------------------------

 --------------------------------
 CID_105335591_JID_10798_neutraal
 --------------------------------
 Symbolic Z-matrix:
 Charge =  0 Multiplicity = 1

 SCF Done:  E(RB3LYP) =  -1215.65897021     A.U. after   15 cycles
 SCF Done:  E(RB3LYP) =  -1215.67289698     A.U. after   13 cycles
 SCF Done:  E(RB3LYP) =  -1215.67462560     A.U. after   13 cycles
 SCF Done:  E(RB3LYP) =  -1215.67585788     A.U. after   13 cycles
 SCF Done:  E(RB3LYP) =  -1215.67747261     A.U. after   12 cycles
 SCF Done:  E(RB3LYP) =  -1215.67707353     A.U. after   12 cycles
 SCF Done:  E(RB3LYP) =  -1215.67754646     A.U. after   12 cycles
 SCF Done:  E(RB3LYP) =  -1215.67814501     A.U. after   12 cycles
 SCF Done:  E(RB3LYP) =  -1215.67822239     A.U. after   11 cycles
 SCF Done:  E(RB3LYP) =  -1215.67827633     A.U. after   11 cycles
 SCF Done:  E(RB3LYP) =  -1215.68059057     A.U. after   11 cycles
 SCF Done:  E(RB3LYP) =  -1215.68059486     A.U. after    9 cycles
 SCF Done:  E(RB3LYP) =  -1215.68059652     A.U. after    9 cycles
 SCF Done:  E(RB3LYP) =  -1215.68059654     A.U. after    7 cycles
 Optimization completed.
    -- Stationary point found.
 Normal termination of Gaussian 16 at Sat Dec 12 16:46:27 2020.

 --------------------------------------------------------------------
 #N Geom=AllCheck Guess=TCheck SCRF=Check GenChk RB3LYP/6-31G(d) Freq
 --------------------------------------------------------------------

 Structure from the checkpoint file:  "JID_10798.chk"
 --------------------------------
 CID_105335591_JID_10798_neutraal
 --------------------------------
 Charge =  0 Multiplicity = 1

 SCF Done:  E(RB3LYP) =  -1215.68059654     A.U. after    1 cycles

  Exact polarizability: 231.770 -22.127 181.097 -21.174 -12.652 147.873
 Approx polarizability: 341.322 -49.930 322.696 -41.781 -36.702 240.044

                      1                      2                      3
                      A                      A                      A
 Frequencies --     21.4734                49.4959                66.0017
 Red. masses --      5.1251                 5.4741                 3.0832
 Frc consts  --      0.0014                 0.0079                 0.0079
 IR Inten    --      0.7577                 1.8478                 1.7481

                      4                      5                      6
                      A                      A                      A
 Frequencies --     72.6973                85.8688               110.8882
 Red. masses --      6.1947                 3.6894                 3.8557
 Frc consts  --      0.0193                 0.0160                 0.0279
 IR Inten    --      2.1597                 0.6464                 0.1679

                      7                      8                      9
                      A                      A                      A
 Frequencies --    140.5547               160.0061               188.5511
 Red. masses --      4.3521                 3.7701                 5.2680
 Frc consts  --      0.0507                 0.0569                 0.1103
 IR Inten    --      0.0835                 0.9175                 3.0176

                     10                     11                     12
                      A                      A                      A
 Frequencies --    200.9033               211.4594               233.5143
 Red. masses --      2.5018                 3.1704                 3.3605
 Frc consts  --      0.0595                 0.0835                 0.1080
 IR Inten    --      1.7679                 2.0832                 2.9433

                     13                     14                     15
                      A                      A                      A
 Frequencies --    239.7208               270.6242               288.4645
 Red. masses --      3.0137                 2.4940                 4.1287
 Frc consts  --      0.1020                 0.1076                 0.2024
 IR Inten    --      1.1060                22.0165                 0.3362

                     16                     17                     18
                      A                      A                      A
 Frequencies --    289.7098               312.4121               370.5794
 Red. masses --      1.7196                 1.5755                 3.3751
 Frc consts  --      0.0850                 0.0906                 0.2731
 IR Inten    --      8.4529                37.7949                 6.5541

                     19                     20                     21
                      A                      A                      A
 Frequencies --    384.1599               394.6861               433.9661
 Red. masses --      2.6072                 5.7072                 3.3007
 Frc consts  --      0.2267                 0.5238                 0.3662
 IR Inten    --      3.1735                 4.0686                 2.3844

                     22                     23                     24
                      A                      A                      A
 Frequencies --    482.1907               500.1817               506.2524
 Red. masses --      3.5068                 4.2083                 6.0098
 Frc consts  --      0.4804                 0.6203                 0.9075
 IR Inten    --      2.3926                 1.5206                 1.1784

                     25                     26                     27
                      A                      A                      A
 Frequencies --    524.4091               567.9670               603.3315
 Red. masses --      7.6586                 5.9636                 4.2422
 Frc consts  --      1.2409                 1.1335                 0.9098
 IR Inten    --      1.8367                 2.3329                 2.3426

                     28                     29                     30
                      A                      A                      A
 Frequencies --    661.0818               703.1378               710.6310
 Red. masses --      3.1047                 4.0646                 4.3049
 Frc consts  --      0.7994                 1.1840                 1.2809
 IR Inten    --      0.8385                16.0584                 3.5177

                     31                     32                     33
                      A                      A                      A
 Frequencies --    716.4222               730.6252               746.5033
 Red. masses --      5.5854                 5.5483                 3.0218
 Frc consts  --      1.6890                 1.7450                 0.9921
 IR Inten    --      1.1529                 2.9916                24.1809

                     34                     35                     36
                      A                      A                      A
 Frequencies --    769.6735               774.6663               796.4642
 Red. masses --      1.4244                 2.9167                 1.5989
 Frc consts  --      0.4972                 1.0313                 0.5976
 IR Inten    --     16.7885                15.6332                31.0318

                     37                     38                     39
                      A                      A                      A
 Frequencies --    812.4931               826.0177               835.3815
 Red. masses --      1.9312                 1.8134                 1.6104
 Frc consts  --      0.7511                 0.7290                 0.6621
 IR Inten    --     39.4411                33.3376                 3.2412

                     40                     41                     42
                      A                      A                      A
 Frequencies --    847.1881               866.8961               880.2608
 Red. masses --      2.8935                 3.4916                 1.4139
 Frc consts  --      1.2236                 1.5460                 0.6455
 IR Inten    --     36.2738                 6.6028                 3.7560

                     43                     44                     45
                      A                      A                      A
 Frequencies --    887.6030               928.5224               956.1874
 Red. masses --      2.4182                 1.3572                 1.3297
 Frc consts  --      1.1225                 0.6894                 0.7163
 IR Inten    --      3.5114                 8.0124                 4.2973

                     46                     47                     48
                      A                      A                      A
 Frequencies --    970.8896               996.9709               998.9670
 Red. masses --      2.0588                 5.0524                 1.2631
 Frc consts  --      1.1434                 2.9588                 0.7427
 IR Inten    --     81.6915                18.0856                 2.2664

                     49                     50                     51
                      A                      A                      A
 Frequencies --   1011.4228              1056.5406              1058.0589
 Red. masses --      2.4650                 2.2884                 1.8059
 Frc consts  --      1.4857                 1.5051                 1.1911
 IR Inten    --     35.9907                11.3985                 5.9931

                     52                     53                     54
                      A                      A                      A
 Frequencies --   1074.4420              1087.8504              1114.1314
 Red. masses --      3.6096                 3.3781                 2.5924
 Frc consts  --      2.4551                 2.3554                 1.8959
 IR Inten    --     22.9931                 9.4107                 2.5012

                     55                     56                     57
                      A                      A                      A
 Frequencies --   1126.3095              1152.7939              1165.2426
 Red. masses --      2.0454                 1.6792                 1.5485
 Frc consts  --      1.5287                 1.3148                 1.2388
 IR Inten    --      5.8697                 4.8197                 1.7641

                     58                     59                     60
                      A                      A                      A
 Frequencies --   1183.8186              1196.5728              1198.3335
 Red. masses --      1.7589                 1.3939                 2.5731
 Frc consts  --      1.4523                 1.1759                 2.1770
 IR Inten    --      4.9166                 9.7001                10.9535

                     61                     62                     63
                      A                      A                      A
 Frequencies --   1225.3197              1241.9904              1282.8285
 Red. masses --      1.5114                 4.8770                 1.6430
 Frc consts  --      1.3370                 4.4324                 1.5930
 IR Inten    --      4.6272                10.7825                25.0281

                     64                     65                     66
                      A                      A                      A
 Frequencies --   1292.1050              1298.7110              1326.4677
 Red. masses --      2.4171                 1.5990                 1.2527
 Frc consts  --      2.3776                 1.5890                 1.2986
 IR Inten    --     21.8218                 4.9138                 3.1905

                     67                     68                     69
                      A                      A                      A
 Frequencies --   1332.2166              1341.4562              1351.6749
 Red. masses --      1.2387                 1.8962                 2.0164
 Frc consts  --      1.2953                 2.0104                 2.1706
 IR Inten    --      6.8657                 8.6039                15.4767

                     70                     71                     72
                      A                      A                      A
 Frequencies --   1359.2990              1367.8781              1389.8281
 Red. masses --      1.8140                 7.2716                 2.6317
 Frc consts  --      1.9747                 8.0163                 2.9951
 IR Inten    --      1.8529                 1.8165                 6.4046

                     73                     74                     75
                      A                      A                      A
 Frequencies --   1401.9666              1433.5612              1444.8845
 Red. masses --      1.3287                 1.3471                 1.3051
 Frc consts  --      1.5387                 1.6311                 1.6053
 IR Inten    --      5.5112                 6.1755                 4.2720

                     76                     77                     78
                      A                      A                      A
 Frequencies --   1469.0214              1474.8087              1503.1722
 Red. masses --      3.6377                 2.4054                 2.5208
 Frc consts  --      4.6252                 3.0826                 3.3559
 IR Inten    --     14.5162                18.6039                 9.1303

                     79                     80                     81
                      A                      A                      A
 Frequencies --   1513.7189              1517.4532              1528.2046
 Red. masses --      1.0856                 1.1203                 1.2076
 Frc consts  --      1.4656                 1.5199                 1.6616
 IR Inten    --      5.6964                 2.3499                 6.3075

                     82                     83                     84
                      A                      A                      A
 Frequencies --   1534.1076              1541.7938              1576.9012
 Red. masses --      1.0581                 1.0537                 5.4301
 Frc consts  --      1.4672                 1.4758                 7.9555
 IR Inten    --     10.8103                 7.1528                 1.7980

                     85                     86                     87
                      A                      A                      A
 Frequencies --   1580.5152              1616.5383              1653.2458
 Red. masses --      5.6845                 6.4254                 5.8972
 Frc consts  --      8.3664                 9.8929                 9.4967
 IR Inten    --      7.3430                 0.6412                 0.8132

                     88                     89                     90
                      A                      A                      A
 Frequencies --   1706.4824              3022.5554              3049.6068
 Red. masses --      1.0798                 1.0826                 1.0359
 Frc consts  --      1.8527                 5.8275                 5.6761
 IR Inten    --     20.7693                16.0672                20.3581

                     91                     92                     93
                      A                      A                      A
 Frequencies --   3058.4150              3078.4993              3107.1152
 Red. masses --      1.0679                 1.0687                 1.0980
 Frc consts  --      5.8851                 5.9672                 6.2453
 IR Inten    --     17.2893                35.2859                 5.3064

                     94                     95                     96
                      A                      A                      A
 Frequencies --   3122.6547              3127.9206              3170.2292
 Red. masses --      1.1012                 1.1008                 1.0975
 Frc consts  --      6.3267                 6.3456                 6.4989
 IR Inten    --     42.6791                31.3592                 1.5060

                     97                     98                     99
                      A                      A                      A
 Frequencies --   3187.0625              3198.4858              3211.3514
 Red. masses --      1.0859                 1.0905                 1.0964
 Frc consts  --      6.4986                 6.5727                 6.6616
 IR Inten    --      3.0512                15.3465                28.0139

                    100                    101                    102
                      A                      A                      A
 Frequencies --   3243.6739              3265.2209              3267.9126
 Red. masses --      1.0920                 1.0934                 1.0978
 Frc consts  --      6.7694                 6.8684                 6.9074
 IR Inten    --      6.1565                 1.9066                 3.3760

                    103                    104                    105
                      A                      A                      A
 Frequencies --   3442.4238              3457.5968              3556.8833
 Red. masses --      1.0683                 1.0553                 1.0952
 Frc consts  --      7.4588                 7.4328                 8.1639
 IR Inten    --      5.2630                 0.9558                 0.9631

 - Thermochemistry -
 -------------------
 Temperature   298.150 Kelvin.  Pressure   1.00000 Atm.
 Atom     1 has atomic number  6 and mass  12.00000

 Molecular mass:   287.12047 amu.
 Principal axes and moments of inertia in atomic units:
                           1         2         3
     Eigenvalues --  3206.470398751.489419229.70611
           X            0.99987   0.00164   0.01605
           Y           -0.00201   0.99974   0.02276
           Z           -0.01601  -0.02279   0.99961
 This molecule is an asymmetric top.
 Rotational symmetry number  1.
 Warning -- assumption of classical behavior for rotation
           may cause significant error
 Rotational temperatures (Kelvin)      0.02701     0.00990     0.00938
 Rotational constants (GHZ):           0.56284     0.20622     0.19554
 Zero-point vibrational energy     798064.3 (Joules/Mol)
                                  190.74194 (Kcal/Mol)
 Warning -- explicit consideration of  27 degrees of freedom as
           vibrations may cause significant error
 Vibrational temperatures:     30.90    71.21    94.96   104.60   123.55
          (Kelvin)            159.54   202.23   230.21   271.28   289.05
                              304.24   335.97   344.90   389.37   415.04
                              416.83   449.49   533.18   552.72   567.87
                              624.38   693.76   719.65   728.38   754.51
                              817.18   868.06   951.15  1011.66  1022.44
                             1030.77  1051.21  1074.05  1107.39  1114.57
                             1145.93  1169.00  1188.46  1201.93  1218.91
                             1247.27  1266.50  1277.06  1335.94  1375.74
                             1396.89  1434.42  1437.29  1455.21  1520.13
                             1522.31  1545.88  1565.17  1602.99  1620.51
                             1658.61  1676.52  1703.25  1721.60  1724.13
                             1762.96  1786.95  1845.70  1859.05  1868.56
                             1908.49  1916.76  1930.06  1944.76  1955.73
                             1968.07  1999.65  2017.12  2062.57  2078.87
                             2113.59  2121.92  2162.73  2177.90  2183.28
                             2198.75  2207.24  2218.30  2268.81  2274.01
                             2325.84  2378.65  2455.25  4348.78  4387.70
                             4400.38  4429.27  4470.45  4492.80  4500.38
                             4561.25  4585.47  4601.91  4620.42  4666.92
                             4697.92  4701.80  4952.88  4974.71  5117.56

 Zero-point correction=                           0.303967 (Hartree/Particle)
 Thermal correction to Energy=                    0.321842
 Thermal correction to Enthalpy=                  0.322786
 Thermal correction to Gibbs Free Energy=         0.257404
 Sum of electronic and zero-point Energies=          -1215.376630
 Sum of electronic and thermal Energies=             -1215.358755
 Sum of electronic and thermal Enthalpies=           -1215.357811
 Sum of electronic and thermal Free Energies=        -1215.423192

                     E (Thermal)             CV                S
                      KCal/Mol        Cal/Mol-Kelvin    Cal/Mol-Kelvin
 Total                  201.959             69.419            137.607
 Electronic               0.000              0.000              0.000
 Translational            0.889              2.981             42.862
 Rotational               0.889              2.981             33.915
 Vibrational            200.181             63.457             60.831
 Vibration     1          0.593              1.985              6.493
 Vibration     2          0.595              1.978              4.837
 Vibration     3          0.597              1.970              4.269
 Vibration     4          0.599              1.967              4.079
 Vibration     5          0.601              1.959              3.752
 Vibration     6          0.607              1.940              3.253
 Vibration     7          0.615              1.913              2.796
 Vibration     8          0.622              1.891              2.550
 Vibration     9          0.633              1.856              2.242
 Vibration    10          0.638              1.839              2.125
 Vibration    11          0.643              1.823              2.031
 Vibration    12          0.654              1.790              1.852
 Vibration    13          0.657              1.780              1.805
 Vibration    14          0.674              1.727              1.592
 Vibration    15          0.685              1.695              1.483
 Vibration    16          0.686              1.693              1.476
 Vibration    17          0.701              1.650              1.350
 Vibration    18          0.743              1.533              1.077
 Vibration    19          0.753              1.504              1.023
 Vibration    20          0.762              1.482              0.982
 Vibration    21          0.795              1.396              0.846
 Vibration    22          0.838              1.290              0.704
 Vibration    23          0.856              1.250              0.658
 Vibration    24          0.861              1.236              0.643
 Vibration    25          0.879              1.196              0.600
 Vibration    26          0.924              1.101              0.508
 Vibration    27          0.962              1.025              0.444

                           ! Non-Optimized Parameters !
 Normal termination of Gaussian 16 at Sat Dec 12 17:07:59 2020.

 ----------------------------------------------------------------------
 # B3LYP/6-311++G(d,p) empiricaldispersion=gd3bj scf=xqc pop=npa geom=c
 heck
 ----------------------------------------------------------------------

 ----------------------------------------
 CID_105335591_JID_10798_Energie_neutraal
 ----------------------------------------
 Structure from the checkpoint file:  "JID_10798.chk"
 Charge =  0 Multiplicity = 1

 SCF Done:  E(RB3LYP) =  -1215.92704198     A.U. after   16 cycles
 Normal termination of Gaussian 16 at Sat Dec 12 17:16:16 2020.

 ----------------------------------------------------------------------
 # B3LYP/6-311++G(d,p) empiricaldispersion=gd3bj scf=xqc pop=npa geom=c
 heck
 ----------------------------------------------------------------------

 --------------------------------------
 CID_105335591_JID_10798_Energie_kation
 --------------------------------------
 Structure from the checkpoint file:  "JID_10798.chk"
 Charge =  1 Multiplicity = 2

 SCF Done:  E(UB3LYP) =  -1215.63822934     A.U. after   33 cycles
 SCF Done:  E(UB3LYP) =  -1215.63822934     a.u. after    1 cycles
 Normal termination of Gaussian 16 at Sat Dec 12 17:40:28 2020.
 Gaussian 16:  ES64L-G16RevA.03 25-Dec-2016

 ----------------------------------------------------------------------
 # B3LYP/6-311++G(d,p) empiricaldispersion=gd3bj scf=xqc pop=npa geom=c
 heck
 ----------------------------------------------------------------------

 -------------------------------------
 CID_105335591_JID_10798_Energie_anion
 -------------------------------------
 Structure from the checkpoint file:  "JID_10798.chk"
 Charge = -1 Multiplicity = 2

                         Standard orientation:
 ---------------------------------------------------------------------
 Center     Atomic      Atomic             Coordinates (Angstroms)
 Number     Number       Type             X           Y           Z
 ---------------------------------------------------------------------
      1          6           0        3.420900    1.403454    2.189746
      2          6           0        2.946427   -0.038935    2.373104
      3          6           0        1.873453   -0.470279    1.371135
      4          7           0        2.372574   -0.452237   -0.012712
      5          6           0        1.743905   -0.136326   -1.186737
      6          6           0        2.700292   -0.411089   -2.145793
      7          7           0        3.828952   -0.871997   -1.545441
      8          7           0        3.627139   -0.904069   -0.254648
      9          6           0        0.366620    0.451390   -1.384259
     10          6           0       -0.732199   -0.308429   -0.664833
     11          6           0       -0.604146   -1.624582   -0.339114
     12         16           0       -2.018234   -2.321559    0.407419
     13          6           0       -2.861469   -0.787177    0.277213
     14          6           0       -4.170040   -0.528464    0.693098
     15          6           0       -4.689524    0.743408    0.489026
     16          6           0       -3.912005    1.738929   -0.126446
     17          6           0       -2.610349    1.482922   -0.534156
     18          6           0       -2.050614    0.205590   -0.332093
     19          7           0        0.306667    1.903337   -1.137818
     20          7           0        0.632669    2.233930    0.211060
     21          1           0        3.849762    1.548301    1.191949
     22          1           0        4.197055    1.653877    2.920272
     23          1           0        2.595166    2.111705    2.324857
     24          1           0        3.797862   -0.721389    2.302215
     25          1           0        2.512490   -0.165150    3.372963
     26          1           0        1.534338   -1.487161    1.594476
     27          1           0        1.012949    0.197075    1.402667
     28          1           0        2.627851   -0.305561   -3.219493
     29          1           0        0.172161    0.370668   -2.463633
     30          1           0        0.264460   -2.248432   -0.499761
     31          1           0       -4.766252   -1.306795    1.159819
     32          1           0       -5.705158    0.965895    0.803161
     33          1           0       -4.337319    2.725516   -0.287519
     34          1           0       -2.010983    2.247056   -1.012362
     35          1           0        0.944024    2.355586   -1.793903
     36          1           0        1.619332    2.471287    0.312402
     37          1           0        0.080504    3.047249    0.470737
 ---------------------------------------------------------------------

 SCF Done:  E(UB3LYP) =  -1215.92384659     A.U. after   33 cycles
 SCF Done:  E(UB3LYP) =  -1215.92384659     a.u. after    1 cycles

 The electronic state is 2-A.
 Alpha  occ. eigenvalues --  -88.76192 -14.29976 -14.26321 -14.23191 -14.22712
 Alpha  occ. eigenvalues --  -14.22297 -10.12240 -10.11769 -10.11584 -10.09803
 Alpha  occ. eigenvalues --  -10.09029 -10.08509 -10.07927 -10.07433 -10.07301
 Alpha  occ. eigenvalues --  -10.07278 -10.07272 -10.06664 -10.06612 -10.05769
 Alpha  occ. eigenvalues --   -7.84839  -5.81148  -5.80800  -5.80385  -0.99333
 Alpha  occ. eigenvalues --   -0.87037  -0.81562  -0.78286  -0.73497  -0.71694
 Alpha  occ. eigenvalues --   -0.69495  -0.68328  -0.65741  -0.62214  -0.61660
 Alpha  occ. eigenvalues --   -0.61179  -0.55564  -0.53541  -0.51639  -0.50772
 Alpha  occ. eigenvalues --   -0.48118  -0.47510  -0.44599  -0.42445  -0.41692
 Alpha  occ. eigenvalues --   -0.40711  -0.38984  -0.37605  -0.37061  -0.36756
 Alpha  occ. eigenvalues --   -0.36625  -0.34555  -0.34238  -0.32988  -0.32445
 Alpha  occ. eigenvalues --   -0.31983  -0.31451  -0.30376  -0.28624  -0.28077
 Alpha  occ. eigenvalues --   -0.27052  -0.26386  -0.25817  -0.25712  -0.24977
 Alpha  occ. eigenvalues --   -0.23289  -0.22829  -0.22437  -0.19141  -0.17711
 Alpha  occ. eigenvalues --   -0.17089  -0.16668  -0.16413  -0.13853  -0.13411
 Alpha  occ. eigenvalues --   -0.11305   0.04110
 Alpha virt. eigenvalues --    0.06180   0.06964   0.07133   0.07797   0.08276
 Alpha virt. eigenvalues --    0.08718   0.09097   0.09190   0.09641   0.09752
 Alpha virt. eigenvalues --    0.10182   0.10979   0.11207   0.12094   0.12418

  Beta  occ. eigenvalues --  -88.76175 -14.29964 -14.26314 -14.23192 -14.22663
  Beta  occ. eigenvalues --  -14.22267 -10.12235 -10.11768 -10.11581 -10.09809
  Beta  occ. eigenvalues --  -10.09011 -10.08507 -10.07685 -10.07401 -10.07285
  Beta  occ. eigenvalues --  -10.07238 -10.07229 -10.06671 -10.06541 -10.05665
  Beta  occ. eigenvalues --   -7.84823  -5.81142  -5.80794  -5.80325  -0.99320
  Beta  occ. eigenvalues --   -0.86975  -0.81546  -0.78150  -0.73429  -0.71547
  Beta  occ. eigenvalues --   -0.69469  -0.68268  -0.65583  -0.62016  -0.61636
  Beta  occ. eigenvalues --   -0.61053  -0.55451  -0.53516  -0.51601  -0.50499
  Beta  occ. eigenvalues --   -0.47994  -0.47452  -0.44525  -0.42349  -0.41630
  Beta  occ. eigenvalues --   -0.40659  -0.38943  -0.37503  -0.36984  -0.36717
  Beta  occ. eigenvalues --   -0.36551  -0.34488  -0.34196  -0.32956  -0.32355
  Beta  occ. eigenvalues --   -0.31920  -0.31400  -0.30244  -0.28376  -0.27998
  Beta  occ. eigenvalues --   -0.27024  -0.26365  -0.25800  -0.25611  -0.24903
  Beta  occ. eigenvalues --   -0.23270  -0.22762  -0.21917  -0.19104  -0.17481
  Beta  occ. eigenvalues --   -0.16915  -0.16598  -0.16340  -0.13799  -0.12924
  Beta  occ. eigenvalues --   -0.10623
  Beta virt. eigenvalues --    0.06505   0.07004   0.07427   0.07630   0.08268
  Beta virt. eigenvalues --    0.08538   0.08904   0.09175   0.09261   0.09750
  Beta virt. eigenvalues --    0.10089   0.10441   0.11158   0.11327   0.12314

 Mulliken charges and spin densities:
               1          2
     1  C    0.120686  -0.626713
     2  C   -0.688207   0.342255
     3  C   -0.227281  -0.006417
     4  N    0.358131   0.010770
     5  C   -1.227948   0.648471
     6  C   -0.198587   0.343786
     7  N   -0.081624  -0.005959
     8  N   -0.114344   0.019113
     9  C    0.225700  -0.655451
    10  C    0.786595  -0.933449
    11  C    0.211939   0.274324
    12  S   -0.487024  -0.011371
    13  C    0.433531  -0.119573
    14  C    0.127468   0.107858
    15  C    0.019597  -0.148381
    16  C   -0.429965  -0.216422
    17  C   -0.165033  -0.202042
    18  C    0.143838  -0.099115
    19  N    0.317834  -0.348825
    20  N   -0.743981   0.028918
    21  H    0.006096   0.150294
    22  H    0.071914   0.073842
    23  H   -0.065334   0.195948
    24  H    0.179329  -0.011213
    25  H    0.111769   0.027435
    26  H    0.184078   0.017842
    27  H    0.279405  -0.059055
    28  H   -0.364385   0.539558
    29  H   -0.102564   0.342739
    30  H    0.247842   0.001547
    31  H    0.079368   0.039042
    32  H    0.119163   0.000091
    33  H    0.001038   0.143538
    34  H    0.023259   0.181763
    35  H   -0.390526   0.678378
    36  H    0.139260   0.089916
    37  H    0.098966   0.186559
 Sum of Mulliken charges =  -1.00000   1.00000

 Dipole moment (field-independent basis, Debye):
    X=             -2.3981    Y=             -2.9190    Z=              4.8030  Tot=              6.1106
 Quadrupole moment (field-independent basis, Debye-Ang):
   XX=           -192.3714   YY=           -163.3904   ZZ=           -157.8041
   XY=              0.2464   XZ=              8.3679   YZ=              2.8575

 Summary of Natural Population Analysis:

                                       Natural Population
                Natural  -----------------------------------------------
    Atom  No    Charge         Core      Valence    Rydberg      Total
 -----------------------------------------------------------------------
      C    1   -0.29062      0.99967     2.28548    0.00548     3.29062
      C    2   -0.19534      0.99964     2.18795    0.00775     3.19534
      C    3   -0.09137      0.99959     2.08133    0.01044     3.09137
      N    4   -0.10731      0.99961     2.59379    0.01391     3.60731
      C    5    0.06719      0.99949     1.91815    0.01517     2.93281
      C    6   -0.04054      0.99952     2.02699    0.01403     3.04054
      N    7   -0.14132      0.99976     2.62691    0.01466     3.64132
      N    8   -0.05558      0.99978     2.54102    0.01479     3.55558
      C    9   -0.02997      0.99951     2.01414    0.01631     3.02997
      C   10   -0.03645      0.99942     2.02533    0.01170     3.03645
      C   11   -0.13624      0.99944     2.12515    0.01165     3.13624
      S   12    0.18258      4.99945     2.79765    0.02033     7.81742
      C   13   -0.08770      0.99941     2.07784    0.01044     3.08770
      C   14   -0.10798      0.99950     2.09789    0.01059     3.10798
      C   15   -0.09287      0.99957     2.08268    0.01061     3.09287
      C   16   -0.11739      0.99957     2.10872    0.00910     3.11739
      C   17   -0.07348      0.99952     2.06461    0.00935     3.07348
      C   18   -0.03453      0.99943     2.02449    0.01060     3.03453
      N   19   -0.24643      0.99975     2.72916    0.01752     3.74643
      N   20   -0.33731      0.99975     2.82425    0.01330     3.83731
      H   21    0.10327      0.00000     0.39549    0.00124     0.39673
      H   22    0.09713      0.00000     0.40222    0.00065     0.40287
      H   23    0.09701      0.00000     0.40192    0.00106     0.40299
      H   24    0.10491      0.00000     0.39392    0.00118     0.39509
      H   25    0.09590      0.00000     0.40324    0.00085     0.40410
      H   26    0.10001      0.00000     0.39902    0.00097     0.39999
      H   27    0.12377      0.00000     0.37434    0.00189     0.37623
      H   28    0.10400      0.00000     0.39467    0.00133     0.39600
      H   29    0.11527      0.00000     0.38201    0.00272     0.38473
      H   30    0.10676      0.00000     0.39226    0.00098     0.39324
      H   31    0.09789      0.00000     0.40105    0.00106     0.40211
      H   32    0.09435      0.00000     0.40489    0.00076     0.40565
      H   33    0.09674      0.00000     0.40247    0.00079     0.40326
      H   34    0.11370      0.00000     0.38453    0.00177     0.38630
      H   35    0.17296      0.00000     0.31706    0.00998     0.32704
      H   36    0.17126      0.00000     0.32609    0.00265     0.32874
      H   37    0.17774      0.00000     0.32043    0.00182     0.32226
 =======================================================================
   * Total *    0.00003     23.99137    51.72917    0.27943    75.99997

 Normal termination of Gaussian 16 at Sat Dec 12 18:04:24 2020.
