 Gaussian 16, Revision A.03,

 -----------------------------------------------------------
 # opt freq B3LYP/6-31G(d) empiricaldispersion=gd3bj scf=xqc
 -----------------------------------------------------------

 -------------------------------
 CID_147066889_JID_2719_neutraal
 -------------------------------
 Symbolic Z-matrix:
 Charge =  0 Multiplicity = 1

 SCF Done:  E(RB3LYP) =  -482.977871593     A.U. after   14 cycles
 SCF Done:  E(RB3LYP) =  -482.981880618     A.U. after   13 cycles
 SCF Done:  E(RB3LYP) =  -482.984330086     A.U. after   13 cycles
 SCF Done:  E(RB3LYP) =  -482.986931050     A.U. after   13 cycles
 SCF Done:  E(RB3LYP) =  -482.988400930     A.U. after   12 cycles
 SCF Done:  E(RB3LYP) =  -482.988713093     A.U. after   13 cycles
 SCF Done:  E(RB3LYP) =  -482.989199317     A.U. after   12 cycles
 SCF Done:  E(RB3LYP) =  -482.989350348     A.U. after   12 cycles
 SCF Done:  E(RB3LYP) =  -482.989496468     A.U. after   11 cycles
 SCF Done:  E(RB3LYP) =  -482.989539406     A.U. after   11 cycles
 SCF Done:  E(RB3LYP) =  -482.989553261     A.U. after   10 cycles
 SCF Done:  E(RB3LYP) =  -482.989556970     A.U. after    8 cycles
 SCF Done:  E(RB3LYP) =  -482.989557430     A.U. after    8 cycles
 SCF Done:  E(RB3LYP) =  -482.989557535     A.U. after    8 cycles
 Optimization completed.
    -- Stationary point found.
 Normal termination of Gaussian 16 at Wed Dec  9 17:56:19 2020.

 --------------------------------------------------------------------
 #N Geom=AllCheck Guess=TCheck SCRF=Check GenChk RB3LYP/6-31G(d) Freq
 --------------------------------------------------------------------

 Structure from the checkpoint file:  "JID_2719.chk"
 -------------------------------
 CID_147066889_JID_2719_neutraal
 -------------------------------
 Charge =  0 Multiplicity = 1

 SCF Done:  E(RB3LYP) =  -482.989557535     A.U. after    1 cycles

  Exact polarizability: 152.047   1.983 114.642  -4.433   4.296  88.989
 Approx polarizability: 214.289   0.907 189.433 -12.448   9.656 131.023

                      1                      2                      3
                      A                      A                      A
 Frequencies --     23.5191                63.2564                93.8790
 Red. masses --      1.0174                 3.3779                 3.2081
 Frc consts  --      0.0003                 0.0080                 0.0167
 IR Inten    --      0.1781                 0.1005                 0.1336

                      4                      5                      6
                      A                      A                      A
 Frequencies --    104.2357               172.3757               195.4199
 Red. masses --      2.7070                 1.4662                 2.3613
 Frc consts  --      0.0173                 0.0257                 0.0531
 IR Inten    --      8.3756                 1.0871                 1.0166

                      7                      8                      9
                      A                      A                      A
 Frequencies --    209.9329               213.5716               240.2145
 Red. masses --      2.5748                 1.8521                 1.4039
 Frc consts  --      0.0669                 0.0498                 0.0477
 IR Inten    --      2.1034                 0.0710                 0.0519

                     10                     11                     12
                      A                      A                      A
 Frequencies --    271.7065               299.5134               379.0407
 Red. masses --      2.9213                 2.5237                 3.4626
 Frc consts  --      0.1271                 0.1334                 0.2931
 IR Inten    --      2.2086                 0.9283                 0.9369

                     13                     14                     15
                      A                      A                      A
 Frequencies --    404.4020               430.1598               468.9398
 Red. masses --      2.4636                 3.4990                 2.9529
 Frc consts  --      0.2374                 0.3815                 0.3826
 IR Inten    --      1.1741                 4.1289                 1.5863

                     16                     17                     18
                      A                      A                      A
 Frequencies --    497.5078               557.3381               581.4130
 Red. masses --      3.0113                 4.2183                 3.1249
 Frc consts  --      0.4391                 0.7720                 0.6224
 IR Inten    --      3.9647                 1.1922                 5.1225

                     19                     20                     21
                      A                      A                      A
 Frequencies --    605.1388               679.3597               742.2220
 Red. masses --      3.3152                 2.1491                 5.3709
 Frc consts  --      0.7153                 0.5844                 1.7433
 IR Inten    --      6.8527                 1.0808                 0.5195

                     22                     23                     24
                      A                      A                      A
 Frequencies --    746.7102               790.3883               839.3605
 Red. masses --      3.0882                 1.6091                 1.4470
 Frc consts  --      1.0145                 0.5923                 0.6006
 IR Inten    --      0.8047                 4.2942                17.0085

                     25                     26                     27
                      A                      A                      A
 Frequencies --    866.7581               901.0314               953.7220
 Red. masses --      2.4403                 1.2822                 1.6482
 Frc consts  --      1.0802                 0.6133                 0.8833
 IR Inten    --      7.9278                 1.8905                 0.3404

                     28                     29                     30
                      A                      A                      A
 Frequencies --    955.5557              1018.4197              1032.2133
 Red. masses --      2.0720                 1.4698                 2.1395
 Frc consts  --      1.1147                 0.8982                 1.3431
 IR Inten    --      0.8714                 0.3930                 8.2107

                     31                     32                     33
                      A                      A                      A
 Frequencies --   1053.8814              1068.8675              1072.7723
 Red. masses --      1.5451                 1.3501                 1.5269
 Frc consts  --      1.0111                 0.9088                 1.0353
 IR Inten    --      1.2070                14.2012                 2.3393

                     34                     35                     36
                      A                      A                      A
 Frequencies --   1075.3168              1102.6261              1119.7469
 Red. masses --      1.5222                 2.0518                 2.1960
 Frc consts  --      1.0371                 1.4698                 1.6223
 IR Inten    --     12.0652                16.8730                 2.2201

                     37                     38                     39
                      A                      A                      A
 Frequencies --   1166.0469              1202.9648              1234.2865
 Red. masses --      1.7635                 1.6183                 1.6849
 Frc consts  --      1.4127                 1.3798                 1.5124
 IR Inten    --      4.8062                 2.5141                 0.1674

                     40                     41                     42
                      A                      A                      A
 Frequencies --   1243.9864              1272.8451              1316.8410
 Red. masses --      1.7142                 2.7957                 1.8517
 Frc consts  --      1.5629                 2.6686                 1.8918
 IR Inten    --     10.4586                 0.0628                 7.4272

                     43                     44                     45
                      A                      A                      A
 Frequencies --   1340.6366              1345.9491              1394.1663
 Red. masses --      1.8661                 1.8240                 1.5028
 Frc consts  --      1.9761                 1.9469                 1.7210
 IR Inten    --      6.7712                 6.0160                 7.1329

                     46                     47                     48
                      A                      A                      A
 Frequencies --   1431.0875              1441.9567              1445.4146
 Red. masses --      1.2389                 1.2475                 1.2265
 Frc consts  --      1.4949                 1.5282                 1.5097
 IR Inten    --      4.7052                 0.1628                 2.2183

                     49                     50                     51
                      A                      A                      A
 Frequencies --   1456.1497              1514.3702              1515.5898
 Red. masses --      2.6856                 1.1507                 1.0530
 Frc consts  --      3.3551                 1.5548                 1.4251
 IR Inten    --      2.5428                 5.7854                 1.8643

                     52                     53                     54
                      A                      A                      A
 Frequencies --   1517.8889              1518.4804              1524.0440
 Red. masses --      1.1045                 1.0519                 1.1321
 Frc consts  --      1.4994                 1.4290                 1.5493
 IR Inten    --      1.4208                 6.2766                 8.2046

                     55                     56                     57
                      A                      A                      A
 Frequencies --   1536.0121              1537.9210              1556.3306
 Red. masses --      1.1051                 1.1102                 2.0015
 Frc consts  --      1.5361                 1.5472                 2.8563
 IR Inten    --      9.1816                 4.7861                11.5320

                     58                     59                     60
                      A                      A                      A
 Frequencies --   1630.8759              1674.9249              1746.9590
 Red. masses --      5.5519                 5.8110                 6.1182
 Frc consts  --      8.7003                 9.6049                11.0011
 IR Inten    --      1.5194                12.0690                18.6042

                     61                     62                     63
                      A                      A                      A
 Frequencies --   3026.7837              3041.2732              3050.2976
 Red. masses --      1.0825                 1.0407                 1.0433
 Frc consts  --      5.8432                 5.6713                 5.7196
 IR Inten    --     19.4968                34.6124                21.6646

                     64                     65                     66
                      A                      A                      A
 Frequencies --   3052.4292              3069.5521              3098.5838
 Red. masses --      1.0603                 1.0370                 1.0953
 Frc consts  --      5.8208                 5.7565                 6.1962
 IR Inten    --     26.4362                26.0088                21.9280

                     67                     68                     69
                      A                      A                      A
 Frequencies --   3107.2309              3125.6430              3137.0677
 Red. masses --      1.0959                 1.1028                 1.1033
 Frc consts  --      6.2342                 6.3476                 6.3975
 IR Inten    --     22.2848                16.1215                25.0515

                     70                     71                     72
                      A                      A                      A
 Frequencies --   3151.1376              3151.5137              3162.2696
 Red. masses --      1.0992                 1.1103                 1.0989
 Frc consts  --      6.4308                 6.4970                 6.4745
 IR Inten    --      8.0441                51.4789                19.1415

                     73                     74                     75
                      A                      A                      A
 Frequencies --   3164.4369              3169.8753              3189.0748
 Red. masses --      1.0896                 1.0867                 1.0942
 Frc consts  --      6.4286                 6.4337                 6.5567
 IR Inten    --     26.1027                10.8028                25.7693

 - Thermochemistry -
 -------------------
 Temperature   298.150 Kelvin.  Pressure   1.00000 Atm.
 Atom     1 has atomic number  6 and mass  12.00000

 Molecular mass:   161.12045 amu.
 Principal axes and moments of inertia in atomic units:
                           1         2         3
     Eigenvalues --  1048.103972997.670573216.10204
           X            0.99989   0.00449  -0.01400
           Y           -0.00433   0.99992   0.01157
           Z            0.01405  -0.01151   0.99983
 This molecule is an asymmetric top.
 Rotational symmetry number  1.
 Warning -- assumption of classical behavior for rotation
           may cause significant error
 Rotational temperatures (Kelvin)      0.08264     0.02889     0.02693
 Rotational constants (GHZ):           1.72191     0.60205     0.56116
 Zero-point vibrational energy     616635.6 (Joules/Mol)
                                  147.37943 (Kcal/Mol)
 Warning -- explicit consideration of  19 degrees of freedom as
           vibrations may cause significant error
 Vibrational temperatures:     33.84    91.01   135.07   149.97   248.01
          (Kelvin)            281.17   302.05   307.28   345.62   390.93
                              430.93   545.36   581.84   618.90   674.70
                              715.80   801.89   836.52   870.66   977.45
                             1067.89  1074.35  1137.19  1207.65  1247.07
                             1296.38  1372.19  1374.83  1465.28  1485.12
                             1516.30  1537.86  1543.48  1547.14  1586.43
                             1611.07  1677.68  1730.80  1775.86  1789.82
                             1831.34  1894.64  1928.88  1936.52  2005.89
                             2059.02  2074.65  2079.63  2095.07  2178.84
                             2180.60  2183.90  2184.75  2192.76  2209.98
                             2212.73  2239.21  2346.47  2409.84  2513.48
                             4354.87  4375.71  4388.70  4391.76  4416.40
                             4458.17  4470.61  4497.10  4513.54  4533.78
                             4534.33  4549.80  4552.92  4560.74  4588.37

 Zero-point correction=                           0.234864 (Hartree/Particle)
 Thermal correction to Energy=                    0.247482
 Thermal correction to Enthalpy=                  0.248426
 Thermal correction to Gibbs Free Energy=         0.195507
 Sum of electronic and zero-point Energies=           -482.754693
 Sum of electronic and thermal Energies=              -482.742076
 Sum of electronic and thermal Enthalpies=            -482.741132
 Sum of electronic and thermal Free Energies=         -482.794050

                     E (Thermal)             CV                S
                      KCal/Mol        Cal/Mol-Kelvin    Cal/Mol-Kelvin
 Total                  155.297             47.023            111.376
 Electronic               0.000              0.000              0.000
 Translational            0.889              2.981             41.140
 Rotational               0.889              2.981             30.692
 Vibrational            153.520             41.062             39.545
 Vibration     1          0.593              1.985              6.312
 Vibration     2          0.597              1.972              4.353
 Vibration     3          0.603              1.954              3.578
 Vibration     4          0.605              1.946              3.374
 Vibration     5          0.626              1.876              2.409
 Vibration     6          0.636              1.846              2.176
 Vibration     7          0.642              1.826              2.044
 Vibration     8          0.644              1.820              2.013
 Vibration     9          0.657              1.779              1.801
 Vibration    10          0.675              1.725              1.585
 Vibration    11          0.692              1.675              1.420
 Vibration    12          0.749              1.515              1.043
 Vibration    13          0.770              1.461              0.947
 Vibration    14          0.791              1.405              0.858
 Vibration    15          0.826              1.319              0.741
 Vibration    16          0.853              1.256              0.664
 Vibration    17          0.913              1.124              0.529
 Vibration    18          0.938              1.072              0.483
 Vibration    19          0.964              1.021              0.441

                           ! Non-Optimized Parameters !
 Normal termination of Gaussian 16 at Wed Dec  9 18:03:42 2020.

 ----------------------------------------------------------------------
 # B3LYP/6-311++G(d,p) empiricaldispersion=gd3bj scf=xqc pop=npa geom=c
 heck
 ----------------------------------------------------------------------

 ---------------------------------------
 CID_147066889_JID_2719_Energie_neutraal
 ---------------------------------------
 Structure from the checkpoint file:  "JID_2719.chk"
 Charge =  0 Multiplicity = 1

 SCF Done:  E(RB3LYP) =  -483.116321079     A.U. after   14 cycles
 Normal termination of Gaussian 16 at Wed Dec  9 18:07:36 2020.

 ----------------------------------------------------------------------
 # B3LYP/6-311++G(d,p) empiricaldispersion=gd3bj scf=xqc pop=npa geom=c
 heck
 ----------------------------------------------------------------------

 -------------------------------------
 CID_147066889_JID_2719_Energie_kation
 -------------------------------------
 Structure from the checkpoint file:  "JID_2719.chk"
 Charge =  1 Multiplicity = 2

 SCF Done:  E(UB3LYP) =  -482.811581969     A.U. after   25 cycles
 Normal termination of Gaussian 16 at Wed Dec  9 18:15:54 2020.
 Gaussian 16:  ES64L-G16RevA.03 25-Dec-2016

 ----------------------------------------------------------------------
 # B3LYP/6-311++G(d,p) empiricaldispersion=gd3bj scf=xqc pop=npa geom=c
 heck
 ----------------------------------------------------------------------

 ------------------------------------
 CID_147066889_JID_2719_Energie_anion
 ------------------------------------
 Structure from the checkpoint file:  "JID_2719.chk"
 Charge = -1 Multiplicity = 2

                         Standard orientation:
 ---------------------------------------------------------------------
 Center     Atomic      Atomic             Coordinates (Angstroms)
 Number     Number       Type             X           Y           Z
 ---------------------------------------------------------------------
      1          6           0       -3.933140    0.107242    0.171100
      2          6           0       -2.444892   -0.085581    0.012099
      3          6           0       -1.577020    1.010352   -0.009924
      4          6           0       -0.189106    0.880193   -0.130026
      5          6           0        0.364754   -0.415332   -0.229194
      6          6           0       -0.504480   -1.511961   -0.195505
      7          6           0       -1.884251   -1.360710   -0.085460
      8          6           0        1.856953   -0.696393   -0.359659
      9          6           0        2.501107   -0.097039   -1.618988
     10          7           0        2.710826   -0.369938    0.798876
     11          6           0        2.187122   -0.126248    1.927187
     12          6           0        0.644249    2.142682   -0.162929
     13          1           0       -4.216908    0.152574    1.230960
     14          1           0       -4.268314    1.040165   -0.294307
     15          1           0       -4.493104   -0.718249   -0.280404
     16          1           0       -1.996723    2.011770    0.068320
     17          1           0       -0.085408   -2.513358   -0.264267
     18          1           0       -2.526228   -2.238155   -0.070726
     19          1           0        1.961230   -1.785688   -0.459017
     20          1           0        2.523385    0.993992   -1.587504
     21          1           0        3.533216   -0.450432   -1.701461
     22          1           0        1.945108   -0.404885   -2.510414
     23          1           0        1.107392   -0.103292    2.122909
     24          1           0        2.847260    0.078864    2.772948
     25          1           0        0.112488    2.963080    0.329607
     26          1           0        1.609194    2.019466    0.332955
     27          1           0        0.843860    2.460486   -1.193943
 ---------------------------------------------------------------------

 SCF Done:  E(UB3LYP) =  -483.099475655     A.U. after   33 cycles
 SCF Done:  E(UB3LYP) =  -483.099475655     a.u. after    1 cycles

 The electronic state is 2-A.
 Alpha  occ. eigenvalues --  -14.19900 -10.09982 -10.09140 -10.08080 -10.07635
 Alpha  occ. eigenvalues --  -10.07144 -10.06775 -10.06528 -10.06352 -10.06189
 Alpha  occ. eigenvalues --  -10.06049 -10.05679  -0.81363  -0.75596  -0.68705
 Alpha  occ. eigenvalues --   -0.66623  -0.64264  -0.58811  -0.58035  -0.53423
 Alpha  occ. eigenvalues --   -0.49672  -0.48051  -0.44587  -0.39242  -0.38805
 Alpha  occ. eigenvalues --   -0.36047  -0.34770  -0.33451  -0.32665  -0.32086
 Alpha  occ. eigenvalues --   -0.31199  -0.30876  -0.29322  -0.28608  -0.27645
 Alpha  occ. eigenvalues --   -0.27173  -0.25792  -0.24095  -0.23386  -0.23179
 Alpha  occ. eigenvalues --   -0.19447  -0.14982  -0.14280  -0.13226   0.04856
 Alpha virt. eigenvalues --    0.06640   0.07371   0.07931   0.08253   0.08633
 Alpha virt. eigenvalues --    0.08861   0.09158   0.09436   0.10628   0.10813
 Alpha virt. eigenvalues --    0.11328   0.11695   0.12506   0.13073   0.14089

  Beta  occ. eigenvalues --  -14.19788 -10.09983 -10.09046 -10.08080 -10.07637
  Beta  occ. eigenvalues --  -10.07141 -10.06767 -10.06510 -10.06336 -10.06169
  Beta  occ. eigenvalues --  -10.06005 -10.05658  -0.81168  -0.75569  -0.68671
  Beta  occ. eigenvalues --   -0.66594  -0.64216  -0.58778  -0.57983  -0.53276
  Beta  occ. eigenvalues --   -0.49626  -0.47934  -0.44488  -0.39166  -0.38737
  Beta  occ. eigenvalues --   -0.36001  -0.34706  -0.33381  -0.32637  -0.32022
  Beta  occ. eigenvalues --   -0.31156  -0.30843  -0.29290  -0.28558  -0.27561
  Beta  occ. eigenvalues --   -0.27110  -0.25713  -0.24048  -0.23330  -0.23143
  Beta  occ. eigenvalues --   -0.18974  -0.14889  -0.14243  -0.13197
  Beta virt. eigenvalues --    0.07018   0.07658   0.07878   0.08168   0.08706
  Beta virt. eigenvalues --    0.08882   0.09335   0.09550   0.10060   0.10893
  Beta virt. eigenvalues --    0.11165   0.11815   0.12102   0.12756   0.13125

 Mulliken charges and spin densities:
               1          2
     1  C    3.680257  -4.197366
     2  C   -0.706548   1.201961
     3  C   -1.400072   1.162300
     4  C    0.000564   0.248181
     5  C    2.052681  -1.157324
     6  C   -0.799072   0.380554
     7  C   -0.059103  -0.740756
     8  C   -1.200390   0.585164
     9  C    0.397620  -1.024736
    10  N    0.018340  -0.000901
    11  C   -0.168548   0.017312
    12  C   -0.332586  -0.226694
    13  H   -0.088141   0.257842
    14  H   -0.401981   0.540519
    15  H   -0.463068   0.607275
    16  H   -0.345188   0.502766
    17  H   -0.727394   0.879135
    18  H   -0.686802   0.850688
    19  H   -0.105219   0.332336
    20  H    0.035163   0.093994
    21  H    0.002223   0.146454
    22  H   -0.079298   0.213976
    23  H    0.218552  -0.130300
    24  H   -0.045500   0.191318
    25  H    0.004027   0.134036
    26  H    0.115119   0.053107
    27  H    0.084363   0.079158
 Sum of Mulliken charges =  -1.00000   1.00000

 Dipole moment (field-independent basis, Debye):
    X=              4.2117    Y=              3.5499    Z=              0.6571  Tot=              5.5473
 Quadrupole moment (field-independent basis, Debye-Ang):
   XX=           -149.6447   YY=           -112.9569   ZZ=           -103.6107
   XY=              1.6523   XZ=             -1.7879   YZ=             -0.4206

 Summary of Natural Population Analysis:

                                       Natural Population
                Natural  -----------------------------------------------
    Atom  No    Charge         Core      Valence    Rydberg      Total
 -----------------------------------------------------------------------
      C    1   -0.29260      0.99964     2.28703    0.00594     3.29260
      C    2   -0.01234      0.99951     2.00284    0.00998     3.01234
      C    3   -0.09949      0.99947     2.09012    0.00990     3.09949
      C    4   -0.01159      0.99947     2.00190    0.01022     3.01159
      C    5   -0.03452      0.99945     2.02185    0.01323     3.03452
      C    6   -0.08680      0.99951     2.07677    0.01051     3.08680
      C    7   -0.09985      0.99950     2.09028    0.01007     3.09985
      C    8   -0.03523      0.99954     2.02012    0.01556     3.03523
      C    9   -0.28151      0.99964     2.27510    0.00677     3.28151
      N   10   -0.21240      0.99970     2.69994    0.01276     3.71240
      C   11   -0.01152      0.99964     2.00027    0.01161     3.01152
      C   12   -0.29664      0.99963     2.29226    0.00475     3.29664
      H   13    0.10481      0.00000     0.39398    0.00122     0.39519
      H   14    0.10295      0.00000     0.39553    0.00152     0.39705
      H   15    0.10497      0.00000     0.39325    0.00178     0.39503
      H   16    0.09597      0.00000     0.40246    0.00157     0.40403
      H   17    0.10018      0.00000     0.39733    0.00249     0.39982
      H   18    0.10184      0.00000     0.39638    0.00178     0.39816
      H   19    0.10353      0.00000     0.39380    0.00267     0.39647
      H   20    0.09685      0.00000     0.40208    0.00107     0.40315
      H   21    0.10140      0.00000     0.39759    0.00101     0.39860
      H   22    0.10027      0.00000     0.39882    0.00092     0.39973
      H   23    0.07440      0.00000     0.42388    0.00172     0.42560
      H   24    0.07545      0.00000     0.42330    0.00126     0.42455
      H   25    0.10099      0.00000     0.39810    0.00092     0.39901
      H   26    0.10799      0.00000     0.39090    0.00111     0.39201
      H   27    0.10291      0.00000     0.39598    0.00111     0.39709
 =======================================================================
   * Total *   -0.00000     11.99471    31.86185    0.14344    44.00000

 Normal termination of Gaussian 16 at Wed Dec  9 18:25:46 2020.
