 Gaussian 16, Revision A.03,

 -----------------------------------------------------------
 # opt freq B3LYP/6-31G(d) empiricaldispersion=gd3bj scf=xqc
 -----------------------------------------------------------

 ------------------------------
 CID_25068241_JID_2440_neutraal
 ------------------------------
 Symbolic Z-matrix:
 Charge =  0 Multiplicity = 1

 SCF Done:  E(RB3LYP) =  -577.082688610     A.U. after   15 cycles
 SCF Done:  E(RB3LYP) =  -577.085278597     A.U. after   14 cycles
 SCF Done:  E(RB3LYP) =  -577.084883780     A.U. after   14 cycles
 SCF Done:  E(RB3LYP) =  -577.086574109     A.U. after   12 cycles
 SCF Done:  E(RB3LYP) =  -577.085890794     A.U. after   13 cycles
 SCF Done:  E(RB3LYP) =  -577.086907575     A.U. after   13 cycles
 SCF Done:  E(RB3LYP) =  -577.086955996     A.U. after   12 cycles
 SCF Done:  E(RB3LYP) =  -577.086973192     A.U. after   12 cycles
 SCF Done:  E(RB3LYP) =  -577.086976926     A.U. after   10 cycles
 SCF Done:  E(RB3LYP) =  -577.086977385     A.U. after    8 cycles
 Optimization completed.
    -- Stationary point found.

 1\1\GINC-NODE115\FOpt\RB3LYP\6-31G(d)\C9H14O3\VSC10255\09-Dec-2020\0\\
 # opt freq B3LYP/6-31G(d) empiricaldispersion=gd3bj scf=xqc\\CID_25068
 241_JID_2440_neutraal\\0,1\C,0.9219156705,-0.0545043962,-0.0749871915\
 C,0.582043869,-1.5270282494,-0.3215643058\C,1.0937593149,-2.4820397149
 ,0.7816538514\C,0.5269549253,-2.1544944656,2.1270965361\C,-0.345465047
 ,-2.9325854503,2.7901145619\C,-0.944367035,-2.6392723645,4.0987886046\
 O,-1.700661793,-3.4163339169,4.6579262332\C,-0.6324877623,-1.286957051
 7,4.7776340519\O,-0.4622727223,-0.2412535025,4.18159794\O,-0.620669513

 Normal termination of Gaussian 16 at Wed Dec  9 17:20:45 2020.

 --------------------------------------------------------------------
 #N Geom=AllCheck Guess=TCheck SCRF=Check GenChk RB3LYP/6-31G(d) Freq
 --------------------------------------------------------------------

 Structure from the checkpoint file:  "JID_2440.chk"
 ------------------------------
 CID_25068241_JID_2440_neutraal
 ------------------------------
 Charge =  0 Multiplicity = 1

 SCF Done:  E(RB3LYP) =  -577.086977385     A.U. after    2 cycles

  Exact polarizability: 136.568 -10.904 107.316  -5.485   1.394  73.947
 Approx polarizability: 173.936 -37.479 172.409  -9.497   4.400 108.429

                      1                      2                      3
                      A                      A                      A
 Frequencies --     22.5345                31.5086                47.5744
 Red. masses --      4.1636                 3.3926                 3.5935
 Frc consts  --      0.0012                 0.0020                 0.0048
 IR Inten    --      1.0961                 1.7140                 0.1590

                      4                      5                      6
                      A                      A                      A
 Frequencies --     74.0861               102.1995               109.2510
 Red. masses --      3.3871                 4.0187                 2.0570
 Frc consts  --      0.0110                 0.0247                 0.0145
 IR Inten    --      0.3520                 0.3982                 0.6325

                      7                      8                      9
                      A                      A                      A
 Frequencies --    147.4067               169.6810               205.3840
 Red. masses --      3.0141                 2.8745                 2.2911
 Frc consts  --      0.0386                 0.0488                 0.0569
 IR Inten    --      0.7733                 1.4140                 1.1082

                     10                     11                     12
                      A                      A                      A
 Frequencies --    249.5822               260.7975               292.8814
 Red. masses --      1.5250                 1.4500                 2.6239
 Frc consts  --      0.0560                 0.0581                 0.1326
 IR Inten    --      5.3073                 0.6745                 3.3629

                     13                     14                     15
                      A                      A                      A
 Frequencies --    330.7555               342.1561               386.7496
 Red. masses --      2.8774                 2.6841                 4.0319
 Frc consts  --      0.1855                 0.1851                 0.3553
 IR Inten    --     10.2906                 4.9602                 7.4944

                     16                     17                     18
                      A                      A                      A
 Frequencies --    447.4353               469.0158               491.6320
 Red. masses --      3.6228                 2.8199                 5.2565
 Frc consts  --      0.4273                 0.3655                 0.7486
 IR Inten    --      6.6373                 1.7356                11.9248

                     19                     20                     21
                      A                      A                      A
 Frequencies --    622.5548               667.4649               774.7510
 Red. masses --      3.8368                 5.1249                 1.4376
 Frc consts  --      0.8761                 1.3452                 0.5084
 IR Inten    --     23.1414                 8.8372                14.3609

                     22                     23                     24
                      A                      A                      A
 Frequencies --    788.7154               794.9164               863.0160
 Red. masses --      2.8054                 1.4002                 2.8067
 Frc consts  --      1.0282                 0.5213                 1.2317
 IR Inten    --      5.3929                 5.0650                 4.3161

                     25                     26                     27
                      A                      A                      A
 Frequencies --    873.7394               875.9467               902.0552
 Red. masses --      2.2052                 2.5114                 2.2706
 Frc consts  --      0.9919                 1.1353                 1.0886
 IR Inten    --      6.3673                 7.9846                 8.4137

                     28                     29                     30
                      A                      A                      A
 Frequencies --    920.0048              1012.2551              1034.6935
 Red. masses --      1.6284                 1.4309                 1.4223
 Frc consts  --      0.8121                 0.8638                 0.8972
 IR Inten    --      0.3416                11.8623                16.5019

                     31                     32                     33
                      A                      A                      A
 Frequencies --   1042.7748              1065.9779              1124.0279
 Red. masses --      2.2662                 2.5085                 1.6471
 Frc consts  --      1.4519                 1.6794                 1.2261
 IR Inten    --     19.0530                21.6401                 3.8951

                     34                     35                     36
                      A                      A                      A
 Frequencies --   1131.0933              1149.4182              1188.3605
 Red. masses --      1.9391                 2.3884                 2.9130
 Frc consts  --      1.4616                 1.8591                 2.4238
 IR Inten    --     12.6553                31.6939               350.0837

                     37                     38                     39
                      A                      A                      A
 Frequencies --   1216.1703              1249.1922              1294.8661
 Red. masses --      2.1033                 1.3369                 1.2994
 Frc consts  --      1.8329                 1.2292                 1.2837
 IR Inten    --    169.0359                26.1959                 1.2277

                     40                     41                     42
                      A                      A                      A
 Frequencies --   1333.2835              1339.6495              1347.0609
 Red. masses --      1.4538                 1.3078                 1.5795
 Frc consts  --      1.5226                 1.3828                 1.6886
 IR Inten    --     12.7535                 2.2279                34.6491

                     43                     44                     45
                      A                      A                      A
 Frequencies --   1353.6321              1374.9978              1396.0142
 Red. masses --      1.5924                 1.3947                 1.3755
 Frc consts  --      1.7191                 1.5536                 1.5794
 IR Inten    --     30.8366                 3.8319                15.8932

                     46                     47                     48
                      A                      A                      A
 Frequencies --   1420.5058              1443.7597              1447.6787
 Red. masses --      1.3477                 1.3330                 1.2560
 Frc consts  --      1.6023                 1.6371                 1.5509
 IR Inten    --      3.6185                 8.7975                 7.0015

                     49                     50                     51
                      A                      A                      A
 Frequencies --   1511.6095              1516.7262              1520.1034
 Red. masses --      1.1056                 1.0475                 1.0844
 Frc consts  --      1.4884                 1.4198                 1.4763
 IR Inten    --      6.6861                 7.7831                 2.4097

                     52                     53                     54
                      A                      A                      A
 Frequencies --   1520.8296              1532.5531              1537.9051
 Red. masses --      1.0692                 1.0516                 1.0586
 Frc consts  --      1.4570                 1.4553                 1.4751
 IR Inten    --      1.2721                 3.1426                 5.1624

                     55                     56                     57
                      A                      A                      A
 Frequencies --   1541.7822              1708.1791              1766.7346
 Red. masses --      1.0551                 5.7738                12.0532
 Frc consts  --      1.4777                 9.9261                22.1665
 IR Inten    --      5.5409                49.5972               245.5961

                     58                     59                     60
                      A                      A                      A
 Frequencies --   1793.5619              3023.7477              3045.2322
 Red. masses --     11.3961                 1.0652                 1.0578
 Frc consts  --     21.5992                 5.7384                 5.7798
 IR Inten    --    182.1564                19.6430                24.1503

                     61                     62                     63
                      A                      A                      A
 Frequencies --   3047.5654              3063.7592              3080.6030
 Red. masses --      1.0407                 1.0359                 1.0997
 Frc consts  --      5.6950                 5.7288                 6.1490
 IR Inten    --     29.0388                14.5883                22.3585

                     64                     65                     66
                      A                      A                      A
 Frequencies --   3087.3603              3099.6656              3113.6124
 Red. masses --      1.0997                 1.0595                 1.1011
 Frc consts  --      6.1757                 5.9975                 6.2895
 IR Inten    --     24.9966                22.3285                44.1930

                     67                     68                     69
                      A                      A                      A
 Frequencies --   3124.4064              3131.9649              3142.0488
 Red. masses --      1.1028                 1.1006                 1.1044
 Frc consts  --      6.3426                 6.3607                 6.4242
 IR Inten    --     42.1550                26.1031                 4.7047

                     70                     71                     72
                      A                      A                      A
 Frequencies --   3163.7920              3176.3572              3221.0471
 Red. masses --      1.1088                 1.0906                 1.0881
 Frc consts  --      6.5389                 6.4829                 6.6512
 IR Inten    --     27.5816                 7.5623                 0.9626

 - Thermochemistry -
 -------------------
 Temperature   298.150 Kelvin.  Pressure   1.00000 Atm.
 Atom     1 has atomic number  6 and mass  12.00000

 Molecular mass:   170.09429 amu.
 Principal axes and moments of inertia in atomic units:
                           1         2         3
     Eigenvalues --  1260.930044102.547184946.23788
           X            0.99993   0.01020   0.00587
           Y           -0.01020   0.99995   0.00038
           Z           -0.00587  -0.00044   0.99998
 This molecule is an asymmetric top.
 Rotational symmetry number  1.
 Warning -- assumption of classical behavior for rotation
           may cause significant error
 Rotational temperatures (Kelvin)      0.06869     0.02111     0.01751
 Rotational constants (GHZ):           1.43128     0.43991     0.36487
 Zero-point vibrational energy     578396.6 (Joules/Mol)
                                  138.24010 (Kcal/Mol)
 Warning -- explicit consideration of  18 degrees of freedom as
           vibrations may cause significant error
 Vibrational temperatures:     32.42    45.33    68.45   106.59   147.04
          (Kelvin)            157.19   212.09   244.13   295.50   359.09
                              375.23   421.39   475.88   492.29   556.45
                              643.76   674.81   707.35   895.72   960.33
                             1114.69  1134.79  1143.71  1241.69  1257.12
                             1260.29  1297.86  1323.68  1456.41  1488.69
                             1500.32  1533.70  1617.23  1627.39  1653.76
                             1709.79  1749.80  1797.31  1863.02  1918.30
                             1927.46  1938.12  1947.57  1978.32  2008.55
                             2043.79  2077.25  2082.89  2174.87  2182.23
                             2187.09  2188.13  2205.00  2212.70  2218.28
                             2457.69  2541.94  2580.54  4350.50  4381.41
                             4384.77  4408.07  4432.30  4442.02  4459.73
                             4479.79  4495.32  4506.20  4520.71  4551.99
                             4570.07  4634.37

 Zero-point correction=                           0.220300 (Hartree/Particle)
 Thermal correction to Energy=                    0.234156
 Thermal correction to Enthalpy=                  0.235101
 Thermal correction to Gibbs Free Energy=         0.177367
 Sum of electronic and zero-point Energies=           -576.866678
 Sum of electronic and thermal Energies=              -576.852821
 Sum of electronic and thermal Enthalpies=            -576.851877
 Sum of electronic and thermal Free Energies=         -576.909610

                     E (Thermal)             CV                S
                      KCal/Mol        Cal/Mol-Kelvin    Cal/Mol-Kelvin
 Total                  146.935             48.148            121.510
 Electronic               0.000              0.000              0.000
 Translational            0.889              2.981             41.301
 Rotational               0.889              2.981             31.615
 Vibrational            145.158             42.186             48.594
 Vibration     1          0.593              1.985              6.397
 Vibration     2          0.594              1.983              5.732
 Vibration     3          0.595              1.978              4.916
 Vibration     4          0.599              1.966              4.042
 Vibration     5          0.604              1.947              3.412
 Vibration     6          0.606              1.942              3.282
 Vibration     7          0.617              1.905              2.705
 Vibration     8          0.625              1.880              2.439
 Vibration     9          0.640              1.832              2.084
 Vibration    10          0.662              1.763              1.734
 Vibration    11          0.669              1.744              1.656
 Vibration    12          0.688              1.687              1.457
 Vibration    13          0.713              1.614              1.256
 Vibration    14          0.721              1.591              1.202
 Vibration    15          0.755              1.498              1.013
 Vibration    16          0.807              1.367              0.804
 Vibration    17          0.826              1.319              0.740
 Vibration    18          0.847              1.269              0.679

                           ! Non-Optimized Parameters !

 1\1\GINC-NODE115\Freq\RB3LYP\6-31G(d)\C9H14O3\VSC10255\09-Dec-2020\0\\
 #N Geom=AllCheck Guess=TCheck SCRF=Check GenChk RB3LYP/6-31G(d) Freq\\
 CID_25068241_JID_2440_neutraal\\0,1\C,0.9219156705,-0.0545043962,-0.07
 49871915\C,0.582043869,-1.5270282494,-0.3215643058\C,1.0937593149,-2.4
 820397149,0.7816538514\C,0.5269549253,-2.1544944656,2.1270965361\C,-0.
 345465047,-2.9325854503,2.7901145619\C,-0.944367035,-2.6392723645,4.09
 87886046\O,-1.700661793,-3.4163339169,4.6579262332\C,-0.6324877623,-1.
 2869570517,4.7776340519\O,-0.4622727223,-0.2412535025,4.18159794\O,-0.

 Normal termination of Gaussian 16 at Wed Dec  9 17:26:01 2020.

 ----------------------------------------------------------------------
 # B3LYP/6-311++G(d,p) empiricaldispersion=gd3bj scf=xqc pop=npa geom=c
 heck
 ----------------------------------------------------------------------

 --------------------------------------
 CID_25068241_JID_2440_Energie_neutraal
 --------------------------------------
 Structure from the checkpoint file:  "JID_2440.chk"
 Charge =  0 Multiplicity = 1

 SCF Done:  E(RB3LYP) =  -577.257390751     A.U. after   14 cycles
 Normal termination of Gaussian 16 at Wed Dec  9 17:28:33 2020.

 ----------------------------------------------------------------------
 # B3LYP/6-311++G(d,p) empiricaldispersion=gd3bj scf=xqc pop=npa geom=c
 heck
 ----------------------------------------------------------------------

 ------------------------------------
 CID_25068241_JID_2440_Energie_kation
 ------------------------------------
 Structure from the checkpoint file:  "JID_2440.chk"
 Charge =  1 Multiplicity = 2

 SCF Done:  E(UB3LYP) =  -576.924406591     A.U. after   24 cycles
 Normal termination of Gaussian 16 at Wed Dec  9 17:34:33 2020.
 Gaussian 16:  ES64L-G16RevA.03 25-Dec-2016

 -----------------------------------
 CID_25068241_JID_2440_Energie_anion
 -----------------------------------
 Structure from the checkpoint file:  "JID_2440.chk"
 Charge = -1 Multiplicity = 2

                         Standard orientation:
 ---------------------------------------------------------------------
 Center     Atomic      Atomic             Coordinates (Angstroms)
 Number     Number       Type             X           Y           Z
 ---------------------------------------------------------------------
      1          6           0        3.544200   -1.781347    0.544054
      2          6           0        3.910296   -0.336494    0.193323
      3          6           0        3.021431    0.285985   -0.908234
      4          6           0        1.575382    0.315306   -0.525023
      5          6           0        0.884198    1.438380   -0.265979
      6          6           0       -0.526621    1.512020    0.135905
      7          8           0       -1.098184    2.574826    0.315352
      8          6           0       -1.306583    0.199320    0.371137
      9          8           0       -0.821165   -0.816351    0.829952
     10          8           0       -2.591423    0.355727    0.040413
     11          6           0       -3.456291   -0.787848    0.257559
     12          6           0       -3.367290   -1.768483   -0.900246
     13          1           0        2.541873   -1.850466    0.980125
     14          1           0        4.250351   -2.195766    1.271423
     15          1           0        3.568104   -2.422446   -0.346040
     16          1           0        3.845987    0.290012    1.091672
     17          1           0        4.952229   -0.291774   -0.147698
     18          1           0        3.372428    1.299908   -1.132860
     19          1           0        3.136296   -0.310659   -1.825362
     20          1           0        1.077401   -0.642874   -0.415676
     21          1           0        1.353354    2.416131   -0.361801
     22          1           0       -3.180311   -1.260100    1.203241
     23          1           0       -4.453532   -0.352095    0.343408
     24          1           0       -2.366622   -2.204864   -0.958611
     25          1           0       -4.089004   -2.579951   -0.754905
     26          1           0       -3.594706   -1.269718   -1.847623
 ---------------------------------------------------------------------

 SCF Done:  E(UB3LYP) =  -577.277995856     A.U. after   27 cycles

 The electronic state is 2-A.
 Alpha  occ. eigenvalues --  -19.02007 -18.95074 -18.90374 -10.12843 -10.11006
 Alpha  occ. eigenvalues --  -10.06057 -10.05111 -10.04992 -10.04733 -10.04001
 Alpha  occ. eigenvalues --  -10.00473 -10.00346  -0.95987  -0.86719  -0.84714
 Alpha  occ. eigenvalues --   -0.67817  -0.65699  -0.62183  -0.56237  -0.54504
 Alpha  occ. eigenvalues --   -0.48941  -0.45594  -0.42043  -0.40604  -0.36095
 Alpha  occ. eigenvalues --   -0.34102  -0.33685  -0.33062  -0.32206  -0.30106
 Alpha  occ. eigenvalues --   -0.29272  -0.28548  -0.27337  -0.26594  -0.25176
 Alpha  occ. eigenvalues --   -0.24429  -0.23659  -0.22672  -0.21504  -0.21387
 Alpha  occ. eigenvalues --   -0.20596  -0.19601  -0.16554  -0.14459  -0.11010
 Alpha  occ. eigenvalues --   -0.06506   0.04274
 Alpha virt. eigenvalues --    0.07549   0.08005   0.09797   0.10036   0.10553
 Alpha virt. eigenvalues --    0.11069   0.11536   0.12673   0.13213   0.13448
 Alpha virt. eigenvalues --    0.14349   0.14410   0.14860   0.15621   0.16614

  Beta  occ. eigenvalues --  -19.01956 -18.94876 -18.89610 -10.12707 -10.11007
  Beta  occ. eigenvalues --  -10.06048 -10.04940 -10.04797 -10.04727 -10.04034
  Beta  occ. eigenvalues --  -10.00540  -9.99947  -0.95788  -0.86410  -0.83382
  Beta  occ. eigenvalues --   -0.67600  -0.65646  -0.61817  -0.55961  -0.54379
  Beta  occ. eigenvalues --   -0.48462  -0.45216  -0.41584  -0.40402  -0.35959
  Beta  occ. eigenvalues --   -0.33975  -0.33477  -0.32853  -0.31923  -0.29940
  Beta  occ. eigenvalues --   -0.29090  -0.28434  -0.26949  -0.26275  -0.24749
  Beta  occ. eigenvalues --   -0.23910  -0.23536  -0.22456  -0.21323  -0.20835
  Beta  occ. eigenvalues --   -0.19495  -0.18236  -0.15824  -0.14031  -0.09019
  Beta  occ. eigenvalues --   -0.05851
  Beta virt. eigenvalues --    0.07564   0.07751   0.09676   0.09959   0.10470
  Beta virt. eigenvalues --    0.10986   0.11476   0.12034   0.12612   0.13154
  Beta virt. eigenvalues --    0.13340   0.14297   0.14813   0.15461   0.15932

 Mulliken charges and spin densities:
               1          2
     1  C   -0.470515  -0.084185
     2  C   -0.003356  -0.213855
     3  C   -0.537893   0.118627
     4  C    0.388664   0.246073
     5  C    0.149446  -0.138320
     6  C   -0.419890   0.243311
     7  O   -0.401109   0.262332
     8  C   -0.243261   0.101765
     9  O   -0.324054   0.066575
    10  O    0.028998  -0.000046
    11  C   -0.229963   0.037302
    12  C   -0.246993  -0.087750
    13  H    0.149686   0.023732
    14  H    0.057926   0.049421
    15  H    0.106957   0.007471
    16  H    0.118673  -0.000624
    17  H   -0.110610   0.214373
    18  H    0.113913   0.015846
    19  H    0.067827   0.062603
    20  H    0.082282  -0.021661
    21  H    0.121351   0.004272
    22  H    0.159667  -0.006302
    23  H    0.112705   0.023283
    24  H    0.143250   0.025511
    25  H    0.062924   0.045284
    26  H    0.123374   0.004961
 Sum of Mulliken charges =  -1.00000   1.00000

 Dipole moment (field-independent basis, Debye):
    X=             -0.4825    Y=             -4.9132    Z=             -0.9452  Tot=              5.0265
 Quadrupole moment (field-independent basis, Debye-Ang):
   XX=           -102.2019   YY=           -100.7376   ZZ=            -82.6489
   XY=             10.2923   XZ=              1.7241   YZ=             -0.1733

 Summary of Natural Population Analysis:

                                       Natural Population
                Natural  -----------------------------------------------
    Atom  No    Charge         Core      Valence    Rydberg      Total
 -----------------------------------------------------------------------
      C    1   -0.28946      0.99967     2.28490    0.00489     3.28946
      C    2   -0.18123      0.99964     2.17320    0.00839     3.18123
      C    3   -0.20890      0.99963     2.19816    0.01111     3.20890
      C    4    0.00465      0.99954     1.98764    0.00818     2.99535
      C    5   -0.16130      0.99950     2.15177    0.01003     3.16130
      C    6    0.24191      0.99961     1.73564    0.02285     2.75809
      O    7   -0.21128      0.99988     3.20462    0.00678     4.21128
      C    8    0.39524      0.99969     1.57880    0.02627     2.60476
      O    9   -0.31100      0.99987     3.30501    0.00612     4.31100
      O   10   -0.27095      0.99986     3.26197    0.00912     4.27095
      C   11   -0.01905      0.99959     2.00784    0.01162     3.01905
      C   12   -0.29933      0.99967     2.29501    0.00466     3.29933
      H   13    0.10657      0.00000     0.39219    0.00124     0.39343
      H   14    0.09114      0.00000     0.40781    0.00105     0.40886
      H   15    0.09091      0.00000     0.40778    0.00131     0.40909
      H   16    0.09343      0.00000     0.40539    0.00118     0.40657
      H   17    0.08656      0.00000     0.41158    0.00186     0.41344
      H   18    0.09397      0.00000     0.40460    0.00143     0.40603
      H   19    0.09392      0.00000     0.40474    0.00134     0.40608
      H   20    0.09551      0.00000     0.40318    0.00130     0.40449
      H   21    0.08749      0.00000     0.41007    0.00244     0.41251
      H   22    0.09060      0.00000     0.40718    0.00221     0.40940
      H   23    0.08359      0.00000     0.41515    0.00126     0.41641
      H   24    0.10782      0.00000     0.39037    0.00181     0.39218
      H   25    0.09177      0.00000     0.40684    0.00139     0.40823
      H   26    0.09743      0.00000     0.40120    0.00137     0.40257
 =======================================================================
   * Total *    0.00000     11.99614    33.85262    0.15123    46.00000

 Normal termination of Gaussian 16 at Wed Dec  9 17:41:39 2020.
