 Gaussian 16, Revision A.03,

 -----------------------------------------------------------
 # opt freq B3LYP/6-31G(d) empiricaldispersion=gd3bj scf=xqc
 -----------------------------------------------------------

 ------------------------------
 CID_12164729_JID_1071_neutraal
 ------------------------------
 Symbolic Z-matrix:
 Charge =  0 Multiplicity = 1

 SCF Done:  E(RB3LYP) =  -530.218959528     A.U. after   15 cycles
 SCF Done:  E(RB3LYP) =  -530.220399262     A.U. after   13 cycles
 SCF Done:  E(RB3LYP) =  -530.220405171     A.U. after   13 cycles
 SCF Done:  E(RB3LYP) =  -530.219450050     A.U. after   14 cycles
 SCF Done:  E(RB3LYP) =  -530.220510280     A.U. after   12 cycles
 SCF Done:  E(RB3LYP) =  -530.220515333     A.U. after    9 cycles
 Optimization completed.
    -- Stationary point found.
 Normal termination of Gaussian 16 at Tue Dec  8 19:09:05 2020.

 --------------------------------------------------------------------
 #N Geom=AllCheck Guess=TCheck SCRF=Check GenChk RB3LYP/6-31G(d) Freq
 --------------------------------------------------------------------

 Structure from the checkpoint file:  "JID_1071.chk"
 ------------------------------
 CID_12164729_JID_1071_neutraal
 ------------------------------
 Charge =  0 Multiplicity = 1

 SCF Done:  E(RB3LYP) =  -530.220515333     A.U. after    1 cycles

  Exact polarizability: 169.211  -6.421  97.279  -0.000  -0.001  32.799
 Approx polarizability: 257.952 -24.445 192.677  -0.000  -0.002  50.757

                      1                      2                      3
                      A                      A                      A
 Frequencies --     50.1115                88.0284               105.9538
 Red. masses --      8.3569                 6.0628                 6.3358
 Frc consts  --      0.0124                 0.0277                 0.0419
 IR Inten    --      0.4653                 0.0818                 0.7923

                      4                      5                      6
                      A                      A                      A
 Frequencies --    154.4277               258.5709               275.6419
 Red. masses --      3.2811                 9.6531                 3.3660
 Frc consts  --      0.0461                 0.3803                 0.1507
 IR Inten    --      5.1769                 1.0636                 2.4443

                      7                      8                      9
                      A                      A                      A
 Frequencies --    349.4401               414.6292               515.3957
 Red. masses --      6.8140                 3.5061                 2.7762
 Frc consts  --      0.4902                 0.3551                 0.4345
 IR Inten    --      1.7631                 4.1896                 4.7587

                     10                     11                     12
                      A                      A                      A
 Frequencies --    556.5211               622.1736               648.7280
 Red. masses --      5.4109                 7.8002                 6.8847
 Frc consts  --      0.9874                 1.7790                 1.7071
 IR Inten    --      3.1443                23.1255                 5.9167

                     13                     14                     15
                      A                      A                      A
 Frequencies --    711.5858               754.2377               758.4582
 Red. masses --      4.6215                 7.7983                 1.6234
 Frc consts  --      1.3787                 2.6137                 0.5502
 IR Inten    --      0.3735                12.7483                10.7240

                     16                     17                     18
                      A                      A                      A
 Frequencies --    802.5765               891.0462               897.5135
 Red. masses --      2.7384                 1.7297                 4.6298
 Frc consts  --      1.0393                 0.8092                 2.1973
 IR Inten    --     38.8761                 5.2400                 0.6236

                     19                     20                     21
                      A                      A                      A
 Frequencies --    915.4355               982.6041               994.2301
 Red. masses --      1.3959                 1.3876                 5.6962
 Frc consts  --      0.6892                 0.7893                 3.3175
 IR Inten    --      0.2554                 0.2300                46.3480

                     22                     23                     24
                      A                      A                      A
 Frequencies --   1008.0516              1014.0409              1017.1475
 Red. masses --      1.2835                 7.1506                 1.1926
 Frc consts  --      0.7684                 4.3321                 0.7270
 IR Inten    --      7.0545                 9.9623                26.6821

                     25                     26                     27
                      A                      A                      A
 Frequencies --   1078.2094              1127.7776              1188.8831
 Red. masses --      2.2929                 1.5403                 1.1277
 Frc consts  --      1.5705                 1.1542                 0.9391
 IR Inten    --      3.1389                 5.7733                 2.6908

                     28                     29                     30
                      A                      A                      A
 Frequencies --   1209.7742              1279.1950              1315.6618
 Red. masses --      1.3121                 1.8828                 3.1198
 Frc consts  --      1.1314                 1.8152                 3.1817
 IR Inten    --     11.2386                 4.7182                10.5894

                     31                     32                     33
                      A                      A                      A
 Frequencies --   1348.1439              1353.5955              1398.1571
 Red. masses --      1.3902                 2.7881                13.7803
 Frc consts  --      1.4887                 3.0098                15.8716
 IR Inten    --      7.4565                 1.3403               422.3381

                     34                     35                     36
                      A                      A                      A
 Frequencies --   1478.7351              1522.1481              1620.0933
 Red. masses --      2.1289                 2.4420                 8.2353
 Frc consts  --      2.7427                 3.3335                12.7354
 IR Inten    --     31.2726                11.8418                60.9120

                     37                     38                     39
                      A                      A                      A
 Frequencies --   1630.1656              1641.9860              1717.2554
 Red. masses --      6.8101                 5.4237                 6.0655
 Frc consts  --     10.6627                 8.6156                10.5386
 IR Inten    --    147.6702                16.6294                50.8732

                     40                     41                     42
                      A                      A                      A
 Frequencies --   3179.6243              3199.9920              3212.3358
 Red. masses --      1.0897                 1.0880                 1.0927
 Frc consts  --      6.4907                 6.5640                 6.6432
 IR Inten    --     21.0315                 3.1577                12.9885

                     43                     44                     45
                      A                      A                      A
 Frequencies --   3219.4953              3224.0185              3294.8837
 Red. masses --      1.0903                 1.0978                 1.0947
 Frc consts  --      6.6584                 6.7233                 7.0021
 IR Inten    --      1.0957                13.2835                 6.0726

 - Thermochemistry -
 -------------------
 Temperature   298.150 Kelvin.  Pressure   1.00000 Atm.
 Atom     1 has atomic number  6 and mass  12.00000

 Molecular mass:   150.04293 amu.
 Principal axes and moments of inertia in atomic units:
                           1         2         3
     Eigenvalues --   472.178503585.439754057.61824
           X            1.00000  -0.00140   0.00000
           Y            0.00140   1.00000  -0.00000
           Z           -0.00000   0.00000   1.00000
 This molecule is an asymmetric top.
 Rotational symmetry number  1.
 Warning -- assumption of classical behavior for rotation
           may cause significant error
 Rotational temperatures (Kelvin)      0.18343     0.02416     0.02135
 Rotational constants (GHZ):           3.82216     0.50335     0.44478
 Zero-point vibrational energy     329132.6 (Joules/Mol)
                                   78.66459 (Kcal/Mol)
 Warning -- explicit consideration of  10 degrees of freedom as
           vibrations may cause significant error
 Vibrational temperatures:     72.10   126.65   152.44   222.19   372.03
          (Kelvin)            396.59   502.77   596.56   741.54   800.71
                              895.17   933.37  1023.81  1085.18  1091.25
                             1154.73  1282.02  1291.32  1317.11  1413.75
                             1430.48  1450.36  1458.98  1463.45  1551.30
                             1622.62  1710.54  1740.60  1840.48  1892.94
                             1939.68  1947.52  2011.64  2127.57  2190.03
                             2330.95  2345.44  2362.45  2470.75  4574.77
                             4604.07  4621.83  4632.14  4638.64  4740.60

 Zero-point correction=                           0.125360 (Hartree/Particle)
 Thermal correction to Energy=                    0.134274
 Thermal correction to Enthalpy=                  0.135218
 Thermal correction to Gibbs Free Energy=         0.089985
 Sum of electronic and zero-point Energies=           -530.095155
 Sum of electronic and thermal Energies=              -530.086241
 Sum of electronic and thermal Enthalpies=            -530.085297
 Sum of electronic and thermal Free Energies=         -530.130530

                     E (Thermal)             CV                S
                      KCal/Mol        Cal/Mol-Kelvin    Cal/Mol-Kelvin
 Total                   84.258             32.695             95.202
 Electronic               0.000              0.000              0.000
 Translational            0.889              2.981             40.927
 Rotational               0.889              2.981             30.308
 Vibrational             82.481             26.734             23.966
 Vibration     1          0.595              1.978              4.813
 Vibration     2          0.601              1.958              3.703
 Vibration     3          0.605              1.944              3.342
 Vibration     4          0.620              1.898              2.617
 Vibration     5          0.667              1.748              1.671
 Vibration     6          0.677              1.718              1.561
 Vibration     7          0.727              1.576              1.169
 Vibration     8          0.778              1.438              0.910
 Vibration     9          0.870              1.216              0.621
 Vibration    10          0.912              1.125              0.531

 Optimization completed.
    -- Stationary point found.
 Normal termination of Gaussian 16 at Tue Dec  8 19:11:35 2020.

 ----------------------------------------------------------------------
 # B3LYP/6-311++G(d,p) empiricaldispersion=gd3bj scf=xqc pop=npa geom=c
 heck
 ----------------------------------------------------------------------

 --------------------------------------
 CID_12164729_JID_1071_Energie_neutraal
 --------------------------------------
 Structure from the checkpoint file:  "JID_1071.chk"
 Charge =  0 Multiplicity = 1

 SCF Done:  E(RB3LYP) =  -530.370068916     A.U. after   19 cycles
 Normal termination of Gaussian 16 at Tue Dec  8 19:12:46 2020.

 ----------------------------------------------------------------------
 # B3LYP/6-311++G(d,p) empiricaldispersion=gd3bj scf=xqc pop=npa geom=c
 heck
 ----------------------------------------------------------------------

 ------------------------------------
 CID_12164729_JID_1071_Energie_kation
 ------------------------------------
 Structure from the checkpoint file:  "JID_1071.chk"
 Charge =  1 Multiplicity = 2

 SCF Done:  E(UB3LYP) =  -530.024769573     A.U. after   33 cycles
 SCF Done:  E(UB3LYP) =  -530.024769573     a.u. after    1 cycles
 Normal termination of Gaussian 16 at Tue Dec  8 19:15:51 2020.
 Gaussian 16:  ES64L-G16RevA.03 25-Dec-2016

 ----------------------------------------------------------------------
 # B3LYP/6-311++G(d,p) empiricaldispersion=gd3bj scf=xqc pop=npa geom=c
 heck
 ----------------------------------------------------------------------

 -----------------------------------
 CID_12164729_JID_1071_Energie_anion
 -----------------------------------
 Structure from the checkpoint file:  "JID_1071.chk"
 Charge = -1 Multiplicity = 2

                         Standard orientation:
 ---------------------------------------------------------------------
 Center     Atomic      Atomic             Coordinates (Angstroms)
 Number     Number       Type             X           Y           Z
 ---------------------------------------------------------------------
      1          6           0       -3.128980    0.976561    0.000022
      2          6           0       -3.513943   -0.360886   -0.000011
      3          6           0       -2.513178   -1.340347   -0.000047
      4          7           0       -1.210941   -1.066698   -0.000063
      5          6           0       -0.839865    0.230378   -0.000028
      6          6           0       -1.769204    1.280176    0.000005
      7          6           0        0.592764    0.527257    0.000019
      8          6           0        1.541352   -0.414622    0.000233
      9          7           0        2.945327   -0.047613    0.000190
     10          8           0        3.745998   -0.985812   -0.000146
     11          8           0        3.254913    1.146526   -0.000132
     12          1           0       -3.870567    1.769803    0.000048
     13          1           0       -4.560517   -0.647809   -0.000015
     14          1           0       -2.778851   -2.395709   -0.000104
     15          1           0       -1.425010    2.309834    0.000021
     16          1           0        0.901171    1.568397   -0.000143
     17          1           0        1.372115   -1.481147    0.000362
 ---------------------------------------------------------------------

 SCF Done:  E(UB3LYP) =  -530.423843668     A.U. after   23 cycles

 The electronic state is 2-A.
 Alpha  occ. eigenvalues --  -18.95798 -18.95758 -14.34259 -14.17090 -10.08473
 Alpha  occ. eigenvalues --  -10.07673 -10.06704 -10.05505 -10.05186 -10.04332
 Alpha  occ. eigenvalues --  -10.02152  -1.03517  -0.86438  -0.81581  -0.68190
 Alpha  occ. eigenvalues --   -0.67276  -0.63106  -0.54835  -0.50909  -0.47965
 Alpha  occ. eigenvalues --   -0.41049  -0.39346  -0.37226  -0.35259  -0.35071
 Alpha  occ. eigenvalues --   -0.34365  -0.32558  -0.30105  -0.28120  -0.28010
 Alpha  occ. eigenvalues --   -0.25477  -0.23497  -0.18442  -0.16591  -0.14312
 Alpha  occ. eigenvalues --   -0.13291  -0.13019  -0.11180  -0.11096   0.01103
 Alpha virt. eigenvalues --    0.07580   0.08823   0.09244   0.10657   0.10752
 Alpha virt. eigenvalues --    0.12211   0.13594   0.15309   0.15621   0.16382
 Alpha virt. eigenvalues --    0.16677   0.18082   0.18659   0.18666   0.19165

  Beta  occ. eigenvalues --  -18.95480 -18.95339 -14.33935 -14.16838 -10.08549
  Beta  occ. eigenvalues --  -10.07601 -10.06678 -10.05455 -10.04982 -10.04170
  Beta  occ. eigenvalues --  -10.01888  -1.02838  -0.85751  -0.81220  -0.67849
  Beta  occ. eigenvalues --   -0.66744  -0.62634  -0.54012  -0.50852  -0.47568
  Beta  occ. eigenvalues --   -0.40613  -0.39138  -0.36901  -0.34787  -0.34163
  Beta  occ. eigenvalues --   -0.33232  -0.32175  -0.29924  -0.27897  -0.27301
  Beta  occ. eigenvalues --   -0.25305  -0.23278  -0.17056  -0.15739  -0.12984
  Beta  occ. eigenvalues --   -0.12629  -0.11769  -0.10721  -0.09670
  Beta virt. eigenvalues --    0.07038   0.07559   0.09223   0.09411   0.10631
  Beta virt. eigenvalues --    0.12192   0.12770   0.13596   0.15389   0.15614
  Beta virt. eigenvalues --    0.16384   0.17228   0.18088   0.18664   0.19287

 Mulliken charges and spin densities:
               1          2
     1  C   -0.646279   0.021070
     2  C   -0.110265   0.173209
     3  C   -0.114930  -0.052247
     4  N    0.015848   0.125484
     5  C   -0.363177   0.053537
     6  C    0.052729   0.028054
     7  C   -0.061312   0.215690
     8  C   -0.205676   0.082592
     9  N   -0.161176   0.123454
    10  O   -0.131717   0.159637
    11  O   -0.229216   0.107658
    12  H    0.128172  -0.002786
    13  H    0.130756  -0.011697
    14  H    0.142392   0.003428
    15  H    0.140155  -0.001464
    16  H    0.229745  -0.013922
    17  H    0.183951  -0.011698
 Sum of Mulliken charges =  -1.00000   1.00000

 Dipole moment (field-independent basis, Debye):
    X=             -8.6291    Y=              0.8862    Z=              0.0006  Tot=              8.6745
 Quadrupole moment (field-independent basis, Debye-Ang):
   XX=           -116.4990   YY=            -71.7312   ZZ=            -70.1172
   XY=             -1.0859   XZ=              0.0025   YZ=             -0.0003

 Summary of Natural Population Analysis:

                                       Natural Population
                Natural  -----------------------------------------------
    Atom  No    Charge         Core      Valence    Rydberg      Total
 -----------------------------------------------------------------------
      C    1   -0.09204      0.99958     2.08338    0.00909     3.09204
      C    2   -0.09981      0.99957     2.09090    0.00934     3.09981
      C    3    0.00876      0.99961     1.97684    0.01479     2.99124
      N    4   -0.19601      0.99968     2.68503    0.01130     3.69601
      C    5    0.09823      0.99953     1.88886    0.01338     2.90177
      C    6   -0.10251      0.99953     2.09481    0.00818     3.10251
      C    7   -0.05534      0.99952     2.04562    0.01020     3.05534
      C    8    0.00503      0.99944     1.98381    0.01172     2.99497
      N    9    0.26419      0.99976     2.20814    0.02791     3.23581
      O   10   -0.18351      0.99990     3.17535    0.00826     4.18351
      O   11   -0.21658      0.99990     3.20849    0.00819     4.21658
      H   12    0.09230      0.00000     0.40667    0.00103     0.40770
      H   13    0.09174      0.00000     0.40711    0.00115     0.40826
      H   14    0.08170      0.00000     0.41703    0.00127     0.41830
      H   15    0.09711      0.00000     0.40137    0.00152     0.40289
      H   16    0.10385      0.00000     0.39449    0.00166     0.39615
      H   17    0.10289      0.00000     0.39550    0.00161     0.39711
 =======================================================================
   * Total *    0.00000     10.99601    27.86341    0.14058    39.00000

 Normal termination of Gaussian 16 at Tue Dec  8 19:17:58 2020.
