 Gaussian 16, Revision A.03,

 -----------------------------------------------------------
 # opt freq B3LYP/6-31G(d) empiricaldispersion=gd3bj scf=xqc
 -----------------------------------------------------------

 ----------------------------
 CID_727489_JID_7026_neutraal
 ----------------------------
 Symbolic Z-matrix:
 Charge =  0 Multiplicity = 1

 SCF Done:  E(RB3LYP) =  -1086.81279908     A.U. after   15 cycles
 SCF Done:  E(RB3LYP) =  -1086.81881923     A.U. after   12 cycles
 SCF Done:  E(RB3LYP) =  -1086.81953080     A.U. after   12 cycles
 SCF Done:  E(RB3LYP) =  -1086.81960650     A.U. after   12 cycles
 SCF Done:  E(RB3LYP) =  -1086.81965454     A.U. after   11 cycles
 SCF Done:  E(RB3LYP) =  -1086.81967794     A.U. after   11 cycles
 SCF Done:  E(RB3LYP) =  -1086.81969865     A.U. after   11 cycles
 SCF Done:  E(RB3LYP) =  -1086.81971306     A.U. after   10 cycles
 SCF Done:  E(RB3LYP) =  -1086.81973171     A.U. after   11 cycles
 SCF Done:  E(RB3LYP) =  -1086.81973627     A.U. after   10 cycles
 SCF Done:  E(RB3LYP) =  -1086.81973840     A.U. after   10 cycles
 SCF Done:  E(RB3LYP) =  -1086.81973922     A.U. after    8 cycles
 SCF Done:  E(RB3LYP) =  -1086.81973990     A.U. after   10 cycles
 SCF Done:  E(RB3LYP) =  -1086.81974010     A.U. after    8 cycles
 SCF Done:  E(RB3LYP) =  -1086.81974020     A.U. after    8 cycles
 SCF Done:  E(RB3LYP) =  -1086.81974022     A.U. after    8 cycles
 Optimization completed.
    -- Stationary point found.
 Normal termination of Gaussian 16 at Mon Dec 14 16:40:19 2020.

 --------------------------------------------------------------------
 #N Geom=AllCheck Guess=TCheck SCRF=Check GenChk RB3LYP/6-31G(d) Freq
 --------------------------------------------------------------------

 Structure from the checkpoint file:  "JID_7026.chk"
 ----------------------------
 CID_727489_JID_7026_neutraal
 ----------------------------
 Charge =  0 Multiplicity = 1

 SCF Done:  E(RB3LYP) =  -1086.81974022     A.U. after    1 cycles

  Exact polarizability: 296.014  -2.084 168.727  -4.356   3.675  79.310
 Approx polarizability: 383.398  -2.918 318.202 -10.978   9.974 122.197

                      1                      2                      3
                      A                      A                      A
 Frequencies --     12.2797                27.2752                34.6602
 Red. masses --      3.6745                 3.3553                 2.9043
 Frc consts  --      0.0003                 0.0015                 0.0021
 IR Inten    --      0.7489                 0.7165                 0.0339

                      4                      5                      6
                      A                      A                      A
 Frequencies --     54.4041                80.8092                82.6586
 Red. masses --      5.1625                 4.6903                 7.7733
 Frc consts  --      0.0090                 0.0180                 0.0313
 IR Inten    --      0.0234                 0.2202                 0.7709

                      7                      8                      9
                      A                      A                      A
 Frequencies --    138.0991               180.7421               215.1911
 Red. masses --      5.1073                 4.0061                 2.3369
 Frc consts  --      0.0574                 0.0771                 0.0638
 IR Inten    --      0.2871                 1.2309                 0.4641

                     10                     11                     12
                      A                      A                      A
 Frequencies --    228.6641               232.9583               258.3988
 Red. masses --      1.0501                 1.9047                 3.7372
 Frc consts  --      0.0324                 0.0609                 0.1470
 IR Inten    --      0.4219                 0.3520                 1.5478

                     13                     14                     15
                      A                      A                      A
 Frequencies --    272.3404               316.2052               343.0878
 Red. masses --      5.4630                 4.5980                 3.3999
 Frc consts  --      0.2387                 0.2709                 0.2358
 IR Inten    --      0.4214                 6.8285                 5.9535

                     16                     17                     18
                      A                      A                      A
 Frequencies --    384.0815               398.9675               414.1329
 Red. masses --      3.9654                 4.3367                 3.1060
 Frc consts  --      0.3447                 0.4067                 0.3139
 IR Inten    --      2.5319                 0.3124                 0.1084

                     19                     20                     21
                      A                      A                      A
 Frequencies --    479.5869               518.5619               541.5982
 Red. masses --      4.9605                 2.7070                 2.8057
 Frc consts  --      0.6722                 0.4289                 0.4849
 IR Inten    --     11.2591                 0.4395                 3.7017

                     22                     23                     24
                      A                      A                      A
 Frequencies --    544.2495               579.2782               594.9784
 Red. masses --      4.6227                 3.5252                 3.8919
 Frc consts  --      0.8068                 0.6970                 0.8117
 IR Inten    --      8.3808                 1.2574                 1.5913

                     25                     26                     27
                      A                      A                      A
 Frequencies --    658.2816               672.3233               683.4034
 Red. masses --      6.8374                 6.6825                 2.0053
 Frc consts  --      1.7457                 1.7797                 0.5518
 IR Inten    --      0.2108                38.2999                 0.0669

                     28                     29                     30
                      A                      A                      A
 Frequencies --    700.1722               705.4900               713.3086
 Red. masses --      2.6240                 1.2462                 5.9543
 Frc consts  --      0.7579                 0.3655                 1.7850
 IR Inten    --     18.9939               117.3263                 2.9965

                     31                     32                     33
                      A                      A                      A
 Frequencies --    765.7857               791.7728               801.2095
 Red. masses --      3.8993                 4.3817                 1.1593
 Frc consts  --      1.3473                 1.6184                 0.4385
 IR Inten    --      7.7391                 4.8666                 0.5717

                     34                     35                     36
                      A                      A                      A
 Frequencies --    841.7922               844.0829               867.3688
 Red. masses --      1.5533                 3.8806                 1.4373
 Frc consts  --      0.6485                 1.6290                 0.6371
 IR Inten    --     11.7361                 5.3543                13.9221

                     37                     38                     39
                      A                      A                      A
 Frequencies --    878.1648               938.4621               952.3052
 Red. masses --      4.2332                 5.9359                 1.3230
 Frc consts  --      1.9234                 3.0801                 0.7069
 IR Inten    --      5.0396                 5.0091                 0.0505

                     40                     41                     42
                      A                      A                      A
 Frequencies --    981.4950               985.1411              1034.9689
 Red. masses --      2.3746                 1.3219                 1.8933
 Frc consts  --      1.3478                 0.7559                 1.1949
 IR Inten    --      1.6821                 0.5873                50.6779

                     43                     44                     45
                      A                      A                      A
 Frequencies --   1044.6719              1067.9316              1080.1555
 Red. masses --      2.4295                 1.7120                 1.4638
 Frc consts  --      1.5622                 1.1504                 1.0063
 IR Inten    --      0.7553                 5.7657                 0.9842

                     46                     47                     48
                      A                      A                      A
 Frequencies --   1092.5127              1098.2012              1156.9140
 Red. masses --      1.9415                 1.9939                 1.3240
 Frc consts  --      1.3653                 1.4168                 1.0441
 IR Inten    --     17.4928                14.7628                 5.5711

                     49                     50                     51
                      A                      A                      A
 Frequencies --   1221.8079              1234.5521              1247.3912
 Red. masses --      1.1414                 2.3176                 1.9806
 Frc consts  --      1.0039                 2.0812                 1.8157
 IR Inten    --     13.7840                 7.9738                 2.9490

                     52                     53                     54
                      A                      A                      A
 Frequencies --   1286.2354              1319.4167              1321.2414
 Red. masses --      1.3781                 6.7304                 3.1647
 Frc consts  --      1.3433                 6.9032                 3.2550
 IR Inten    --      0.3408                91.1238               214.4355

                     55                     56                     57
                      A                      A                      A
 Frequencies --   1335.7066              1368.2704              1371.8993
 Red. masses --      2.2227                 2.0565                 2.8265
 Frc consts  --      2.3364                 2.2684                 3.1343
 IR Inten    --    273.6754                 9.6667                 6.2704

                     58                     59                     60
                      A                      A                      A
 Frequencies --   1372.1455              1425.0045              1434.8750
 Red. masses --      1.5237                 1.3851                 2.2315
 Frc consts  --      1.6903                 1.6572                 2.7069
 IR Inten    --      8.5705                67.5632                25.3849

                     61                     62                     63
                      A                      A                      A
 Frequencies --   1435.4429              1466.5971              1500.7719
 Red. masses --      1.2549                 2.9238                 1.0620
 Frc consts  --      1.5234                 3.7053                 1.4093
 IR Inten    --      1.0028                12.4702                37.0155

                     64                     65                     66
                      A                      A                      A
 Frequencies --   1512.8484              1517.9400              1525.8272
 Red. masses --      1.0441                 1.0688                 1.0409
 Frc consts  --      1.4079                 1.4510                 1.4278
 IR Inten    --     14.4040                 1.2233                 7.5399

                     67                     68                     69
                      A                      A                      A
 Frequencies --   1537.8954              1543.4926              1582.9598
 Red. masses --      1.1697                 2.7663                 4.1041
 Frc consts  --      1.6300                 3.8830                 6.0591
 IR Inten    --      4.3799                32.2615                53.2817

                     70                     71                     72
                      A                      A                      A
 Frequencies --   1599.9888              1630.2611              1676.6702
 Red. masses --      5.2665                 6.5311                 5.7839
 Frc consts  --      7.9435                10.2270                 9.5800
 IR Inten    --    330.9047                16.9410                 0.3905

                     73                     74                     75
                      A                      A                      A
 Frequencies --   1804.8495              3045.7246              3049.0886
 Red. masses --      8.4226                 1.0596                 1.0347
 Frc consts  --     16.1651                 5.7910                 5.6678
 IR Inten    --    507.6298                38.1326                38.9731

                     76                     77                     78
                      A                      A                      A
 Frequencies --   3062.8889              3080.7205              3119.7205
 Red. masses --      1.0384                 1.1039                 1.1029
 Frc consts  --      5.7397                 6.1729                 6.3242
 IR Inten    --      2.1331                 9.4248                54.9338

                     79                     80                     81
                      A                      A                      A
 Frequencies --   3123.7554              3126.3153              3175.9643
 Red. masses --      1.1035                 1.1010                 1.0874
 Frc consts  --      6.3443                 6.3402                 6.4626
 IR Inten    --     33.2063                 4.0120                18.1943

                     82                     83                     84
                      A                      A                      A
 Frequencies --   3178.6047              3180.2562              3199.6280
 Red. masses --      1.0894                 1.1007                 1.0930
 Frc consts  --      6.4851                 6.5588                 6.5928
 IR Inten    --     25.3071                 6.5395                16.7824

                     85                     86                     87
                      A                      A                      A
 Frequencies --   3231.5083              3287.7321              3571.6632
 Red. masses --      1.0917                 1.0938                 1.0753
 Frc consts  --      6.7166                 6.9662                 8.0817
 IR Inten    --      2.3731                 3.2494                43.3998

 - Thermochemistry -
 -------------------
 Temperature   298.150 Kelvin.  Pressure   1.00000 Atm.
 Atom     1 has atomic number  6 and mass  12.00000

 Molecular mass:   246.08268 amu.
 Principal axes and moments of inertia in atomic units:
                           1         2         3
     Eigenvalues --  1329.35224********************
           X            0.99996  -0.00793   0.00311
           Y            0.00793   0.99997  -0.00178
           Z           -0.00309   0.00180   0.99999
 This molecule is an asymmetric top.
 Rotational symmetry number  1.
 Warning -- assumption of classical behavior for rotation
           may cause significant error
 Rotational temperatures (Kelvin)      0.06515     0.00746     0.00681
 Rotational constants (GHZ):           1.35761     0.15544     0.14183
 Zero-point vibrational energy     651945.6 (Joules/Mol)
                                  155.81873 (Kcal/Mol)
 Warning -- explicit consideration of  24 degrees of freedom as
           vibrations may cause significant error
 Vibrational temperatures:     17.67    39.24    49.87    78.28   116.27
          (Kelvin)            118.93   198.69   260.05   309.61   329.00
                              335.18   371.78   391.84   454.95   493.63
                              552.61   574.03   595.84   690.02   746.09
                              779.24   783.05   833.45   856.04   947.12
                              967.32   983.27  1007.39  1015.04  1026.29
                             1101.79  1139.18  1152.76  1211.15  1214.45
                             1247.95  1263.48  1350.24  1370.15  1412.15
                             1417.40  1489.09  1503.05  1536.52  1554.10
                             1571.88  1580.07  1664.54  1757.91  1776.25
                             1794.72  1850.61  1898.35  1900.97  1921.78
                             1968.64  1973.86  1974.21  2050.26  2064.47
                             2065.28  2110.11  2159.28  2176.65  2183.98
                             2195.32  2212.69  2220.74  2277.53  2302.03
                             2345.58  2412.35  2596.78  4382.12  4386.96
                             4406.81  4432.47  4488.58  4494.39  4498.07
                             4569.50  4573.30  4575.68  4603.55  4649.42
                             4730.31  5138.83

 Zero-point correction=                           0.248313 (Hartree/Particle)
 Thermal correction to Energy=                    0.264546
 Thermal correction to Enthalpy=                  0.265490
 Thermal correction to Gibbs Free Energy=         0.201301
 Sum of electronic and zero-point Energies=          -1086.571427
 Sum of electronic and thermal Energies=             -1086.555195
 Sum of electronic and thermal Enthalpies=           -1086.554250
 Sum of electronic and thermal Free Energies=        -1086.618440

                     E (Thermal)             CV                S
                      KCal/Mol        Cal/Mol-Kelvin    Cal/Mol-Kelvin
 Total                  166.005             60.649            135.098
 Electronic               0.000              0.000              0.000
 Translational            0.889              2.981             42.402
 Rotational               0.889              2.981             33.640
 Vibrational            164.227             54.688             59.055
 Vibration     1          0.593              1.987              7.603
 Vibration     2          0.593              1.984              6.018
 Vibration     3          0.594              1.983              5.543
 Vibration     4          0.596              1.976              4.651
 Vibration     5          0.600              1.962              3.871
 Vibration     6          0.600              1.961              3.827
 Vibration     7          0.614              1.915              2.830
 Vibration     8          0.630              1.866              2.321
 Vibration     9          0.645              1.818              1.999
 Vibration    10          0.651              1.797              1.889
 Vibration    11          0.654              1.791              1.856
 Vibration    12          0.667              1.749              1.673
 Vibration    13          0.675              1.724              1.581
 Vibration    14          0.703              1.643              1.330
 Vibration    15          0.722              1.589              1.198
 Vibration    16          0.753              1.504              1.023
 Vibration    17          0.765              1.472              0.966
 Vibration    18          0.778              1.440              0.912
 Vibration    19          0.836              1.295              0.711
 Vibration    20          0.874              1.209              0.613
 Vibration    21          0.897              1.158              0.562
 Vibration    22          0.899              1.152              0.556
 Vibration    23          0.936              1.076              0.487
 Vibration    24          0.953              1.042              0.458

                           ! Non-Optimized Parameters !
 Normal termination of Gaussian 16 at Mon Dec 14 16:49:31 2020.

 ----------------------------------------------------------------------
 # B3LYP/6-311++G(d,p) empiricaldispersion=gd3bj scf=xqc pop=npa geom=c
 heck
 ----------------------------------------------------------------------

 ------------------------------------
 CID_727489_JID_7026_Energie_neutraal
 ------------------------------------
 Structure from the checkpoint file:  "JID_7026.chk"
 Charge =  0 Multiplicity = 1

 SCF Done:  E(RB3LYP) =  -1087.03188013     A.U. after   15 cycles
 Normal termination of Gaussian 16 at Mon Dec 14 16:54:06 2020.

 ----------------------------------------------------------------------
 # B3LYP/6-311++G(d,p) empiricaldispersion=gd3bj scf=xqc pop=npa geom=c
 heck
 ----------------------------------------------------------------------

 ----------------------------------
 CID_727489_JID_7026_Energie_kation
 ----------------------------------
 Structure from the checkpoint file:  "JID_7026.chk"
 Charge =  1 Multiplicity = 2

 SCF Done:  E(UB3LYP) =  -1086.75484500     A.U. after   23 cycles
 Normal termination of Gaussian 16 at Mon Dec 14 17:04:21 2020.
 Gaussian 16:  ES64L-G16RevA.03 25-Dec-2016

 ----------------------------------------------------------------------
 # B3LYP/6-311++G(d,p) empiricaldispersion=gd3bj scf=xqc pop=npa geom=c
 heck
 ----------------------------------------------------------------------

 ---------------------------------
 CID_727489_JID_7026_Energie_anion
 ---------------------------------
 Structure from the checkpoint file:  "JID_7026.chk"
 Charge = -1 Multiplicity = 2

                         Standard orientation:
 ---------------------------------------------------------------------
 Center     Atomic      Atomic             Coordinates (Angstroms)
 Number     Number       Type             X           Y           Z
 ---------------------------------------------------------------------
      1          6           0        6.167985   -0.690568    1.055703
      2          6           0        5.575808   -0.533864   -0.355060
      3          6           0        4.093858   -0.244398   -0.321402
      4          6           0        3.618361    1.070609   -0.230654
      5          6           0        2.257238    1.339925   -0.148569
      6          6           0        1.317860    0.297076   -0.154198
      7          6           0        1.789673   -1.020779   -0.245820
      8          6           0        3.154212   -1.281281   -0.327764
      9          6           0       -0.128985    0.554539   -0.071326
     10          6           0       -0.738484    1.776973    0.023355
     11         16           0       -2.469077    1.606238    0.098675
     12          6           0       -2.243794   -0.142232   -0.005643
     13          7           0       -1.002336   -0.522335   -0.086178
     14          7           0       -3.255625   -1.085313   -0.006796
     15          6           0       -4.645323   -1.024769    0.064775
     16          8           0       -5.276483   -2.067137    0.040963
     17          6           0       -5.299865    0.332731    0.168342
     18          1           0        6.020671    0.222678    1.642763
     19          1           0        7.242687   -0.899984    1.011151
     20          1           0        5.680287   -1.511725    1.592369
     21          1           0        6.098451    0.275645   -0.879593
     22          1           0        5.759072   -1.450498   -0.928982
     23          1           0        4.327785    1.894959   -0.227237
     24          1           0        1.925742    2.372157   -0.084096
     25          1           0        1.070930   -1.832042   -0.255336
     26          1           0        3.497693   -2.310706   -0.400725
     27          1           0       -0.295877    2.761096    0.054539
     28          1           0       -2.902452   -2.035081   -0.074162
     29          1           0       -4.975222    0.864980    1.069116
     30          1           0       -5.060232    0.959010   -0.697904
     31          1           0       -6.377973    0.176556    0.211980
 ---------------------------------------------------------------------

 SCF Done:  E(UB3LYP) =  -1087.03627221     A.U. after   29 cycles

 The electronic state is 2-A.
 Alpha  occ. eigenvalues --  -88.75242 -18.99084 -14.25170 -14.18312 -10.17677
 Alpha  occ. eigenvalues --  -10.14165 -10.08493 -10.07144 -10.06657 -10.06191
 Alpha  occ. eigenvalues --  -10.05093 -10.04896 -10.04895 -10.04851 -10.04508
 Alpha  occ. eigenvalues --  -10.04378 -10.04278  -7.83901  -5.80221  -5.79844
 Alpha  occ. eigenvalues --   -5.79474  -0.94736  -0.86615  -0.80258  -0.73645
 Alpha  occ. eigenvalues --   -0.68013  -0.67533  -0.65154  -0.63305  -0.62166
 Alpha  occ. eigenvalues --   -0.58860  -0.52972  -0.51737  -0.48582  -0.47695
 Alpha  occ. eigenvalues --   -0.45774  -0.43649  -0.39295  -0.37820  -0.37769
 Alpha  occ. eigenvalues --   -0.36427  -0.35108  -0.34407  -0.32407  -0.32012
 Alpha  occ. eigenvalues --   -0.31296  -0.31040  -0.30790  -0.29774  -0.29119
 Alpha  occ. eigenvalues --   -0.28199  -0.27704  -0.27242  -0.24714  -0.24152
 Alpha  occ. eigenvalues --   -0.23947  -0.21780  -0.21415  -0.20407  -0.17052
 Alpha  occ. eigenvalues --   -0.16826  -0.15723  -0.13592  -0.13027  -0.08848
 Alpha  occ. eigenvalues --    0.04194
 Alpha virt. eigenvalues --    0.06405   0.07471   0.08542   0.08616   0.09014
 Alpha virt. eigenvalues --    0.09236   0.09934   0.10544   0.10846   0.11121
 Alpha virt. eigenvalues --    0.11372   0.12220   0.12556   0.12911   0.13238

  Beta  occ. eigenvalues --  -88.75188 -18.98964 -14.25229 -14.18366 -10.17552
  Beta  occ. eigenvalues --  -10.13939 -10.08495 -10.07111 -10.06666 -10.06156
  Beta  occ. eigenvalues --  -10.05138 -10.04788 -10.04735 -10.04464 -10.04429
  Beta  occ. eigenvalues --  -10.04279 -10.04267  -7.83852  -5.80200  -5.79826
  Beta  occ. eigenvalues --   -5.79286  -0.94525  -0.86465  -0.80191  -0.73460
  Beta  occ. eigenvalues --   -0.67830  -0.67215  -0.65027  -0.63076  -0.62023
  Beta  occ. eigenvalues --   -0.58576  -0.52822  -0.51408  -0.48456  -0.47539
  Beta  occ. eigenvalues --   -0.45555  -0.43391  -0.39137  -0.37693  -0.37642
  Beta  occ. eigenvalues --   -0.36099  -0.35025  -0.34276  -0.32280  -0.31947
  Beta  occ. eigenvalues --   -0.31184  -0.30718  -0.30574  -0.29714  -0.28969
  Beta  occ. eigenvalues --   -0.28014  -0.27243  -0.27015  -0.24647  -0.23740
  Beta  occ. eigenvalues --   -0.23647  -0.21686  -0.21296  -0.19731  -0.16978
  Beta  occ. eigenvalues --   -0.15996  -0.15687  -0.13028  -0.12596  -0.07323
  Beta virt. eigenvalues --    0.06632   0.07455   0.08569   0.08800   0.09009
  Beta virt. eigenvalues --    0.09148   0.09750   0.10054   0.10566   0.10974
  Beta virt. eigenvalues --    0.11320   0.11465   0.12246   0.12589   0.12854

 Mulliken charges and spin densities:
               1          2
     1  C   -0.006212  -0.591767
     2  C   -0.642162   0.265639
     3  C    0.912277   0.123999
     4  C   -0.917446  -0.057870
     5  C   -0.531293   0.086887
     6  C    0.857749  -0.034327
     7  C   -0.323093  -0.024856
     8  C   -0.638389  -0.011525
     9  C   -0.850862  -0.046305
    10  C    0.643485   0.356036
    11  S   -0.647147   0.064483
    12  C    0.419047   0.129089
    13  N    0.073571  -0.026971
    14  N   -0.159149  -0.025655
    15  C    0.184397   0.080635
    16  O   -0.360675   0.039564
    17  C   -0.502125  -0.013566
    18  H    0.088129   0.044479
    19  H   -0.210032   0.316330
    20  H    0.098837   0.034285
    21  H    0.018115   0.113133
    22  H   -0.004013   0.140474
    23  H    0.116018   0.031770
    24  H    0.029150  -0.004730
    25  H    0.144615   0.007440
    26  H    0.116867   0.012902
    27  H    0.282560  -0.017408
    28  H    0.310518   0.000813
    29  H    0.149625   0.004713
    30  H    0.151860   0.002639
    31  H    0.195777  -0.000332
 Sum of Mulliken charges =  -1.00000   1.00000

 Dipole moment (field-independent basis, Debye):
    X=             -2.0833    Y=              2.5528    Z=              0.2121  Tot=              3.3018
 Quadrupole moment (field-independent basis, Debye-Ang):
   XX=           -208.5126   YY=           -125.6940   ZZ=           -121.8410
   XY=            -10.5004   XZ=             -1.5542   YZ=              0.7991

 Summary of Natural Population Analysis:

                                       Natural Population
                Natural  -----------------------------------------------
    Atom  No    Charge         Core      Valence    Rydberg      Total
 -----------------------------------------------------------------------
      C    1   -0.28000      0.99966     2.27506    0.00528     3.28000
      C    2   -0.19854      0.99962     2.18886    0.01007     3.19854
      C    3   -0.00015      0.99950     1.99018    0.01046     3.00015
      C    4   -0.11513      0.99952     2.10682    0.00879     3.11513
      C    5   -0.07137      0.99954     2.06389    0.00793     3.07137
      C    6   -0.01991      0.99949     2.01074    0.00967     3.01991
      C    7   -0.09025      0.99954     2.08225    0.00845     3.09025
      C    8   -0.09990      0.99952     2.09166    0.00871     3.09990
      C    9    0.06191      0.99935     1.92514    0.01361     2.93809
      C   10   -0.11975      0.99942     2.11010    0.01022     3.11975
      S   11    0.16718      4.99947     2.81026    0.02308     7.83282
      C   12    0.15526      0.99961     1.82701    0.01813     2.84474
      N   13   -0.27428      0.99963     2.76307    0.01158     3.77428
      N   14   -0.32035      0.99962     2.81138    0.00935     3.82035
      C   15    0.35575      0.99973     1.62328    0.02124     2.64425
      O   16   -0.31183      0.99988     3.30490    0.00705     4.31183
      C   17   -0.33929      0.99963     2.33571    0.00395     3.33929
      H   18    0.09608      0.00000     0.40305    0.00087     0.40392
      H   19    0.09303      0.00000     0.40532    0.00165     0.40697
      H   20    0.09640      0.00000     0.40273    0.00087     0.40360
      H   21    0.09568      0.00000     0.40319    0.00113     0.40432
      H   22    0.09636      0.00000     0.40249    0.00115     0.40364
      H   23    0.09233      0.00000     0.40658    0.00108     0.40767
      H   24    0.09361      0.00000     0.40508    0.00131     0.40639
      H   25    0.10631      0.00000     0.39266    0.00104     0.39369
      H   26    0.09175      0.00000     0.40713    0.00111     0.40825
      H   27    0.10126      0.00000     0.39759    0.00115     0.39874
      H   28    0.20452      0.00000     0.29323    0.00225     0.29548
      H   29    0.11218      0.00000     0.38645    0.00137     0.38782
      H   30    0.11217      0.00000     0.38646    0.00137     0.38783
      H   31    0.10903      0.00000     0.38990    0.00107     0.39097
 =======================================================================
   * Total *    0.00007     20.99273    43.80219    0.20501    64.99993

 Normal termination of Gaussian 16 at Mon Dec 14 17:17:08 2020.
