 Gaussian 16, Revision A.03,

 -----------------------------------------------------------
 # opt freq B3LYP/6-31G(d) empiricaldispersion=gd3bj scf=xqc
 -----------------------------------------------------------

 ------------------------------
 CID_142588264_JID_357_neutraal
 ------------------------------
 Symbolic Z-matrix:
 Charge =  0 Multiplicity = 1

 SCF Done:  E(RB3LYP) =  -1514.26289329     A.U. after   17 cycles
 SCF Done:  E(RB3LYP) =  -1514.27130799     A.U. after   13 cycles
 SCF Done:  E(RB3LYP) =  -1514.27254277     A.U. after   12 cycles
 SCF Done:  E(RB3LYP) =  -1514.27265116     A.U. after   11 cycles
 SCF Done:  E(RB3LYP) =  -1514.27265845     A.U. after   11 cycles
 SCF Done:  E(RB3LYP) =  -1514.27266736     A.U. after   10 cycles
 SCF Done:  E(RB3LYP) =  -1514.27266860     A.U. after    8 cycles
 Optimization completed.
    -- Stationary point found.
 Normal termination of Gaussian 16 at Tue Dec  8 10:25:43 2020.

 --------------------------------------------------------------------
 #N Geom=AllCheck Guess=TCheck SCRF=Check GenChk RB3LYP/6-31G(d) Freq
 --------------------------------------------------------------------

 Structure from the checkpoint file:  "JID_357.chk"
 ------------------------------
 CID_142588264_JID_357_neutraal
 ------------------------------
 Charge =  0 Multiplicity = 1

 SCF Done:  E(RB3LYP) =  -1514.27266860     A.U. after    1 cycles

  Exact polarizability: 212.039 -18.813 127.887  -0.010   0.002  52.740
 Approx polarizability: 354.332 -76.046 267.113  -0.014   0.024  82.552

                      1                      2                      3
                      A                      A                      A
 Frequencies --     39.0272                64.1214                98.3298
 Red. masses --      2.9055                 5.8142                 1.2426
 Frc consts  --      0.0026                 0.0141                 0.0071
 IR Inten    --      0.2458                 2.0090                 1.1285

                      4                      5                      6
                      A                      A                      A
 Frequencies --    103.8082               112.6964               205.2868
 Red. masses --      5.9419                 8.2353                10.1391
 Frc consts  --      0.0377                 0.0616                 0.2518
 IR Inten    --      4.2016                 0.1194                 1.4099

                      7                      8                      9
                      A                      A                      A
 Frequencies --    219.3416               235.6284               381.1983
 Red. masses --      4.2718                15.7841                 9.7976
 Frc consts  --      0.1211                 0.5163                 0.8388
 IR Inten    --      0.5540                 0.3784                 3.1695

                     10                     11                     12
                      A                      A                      A
 Frequencies --    394.4115               463.8690               469.1486
 Red. masses --     23.0750                18.2507                 1.8694
 Frc consts  --      2.1149                 2.3138                 0.2424
 IR Inten    --      5.8563                 8.0720                 0.0640

                     13                     14                     15
                      A                      A                      A
 Frequencies --    516.1889               535.4073               604.3026
 Red. masses --      6.6097                 6.7986                 2.7580
 Frc consts  --      1.0377                 1.1483                 0.5934
 IR Inten    --     16.4258                 3.9970                23.7364

                     16                     17                     18
                      A                      A                      A
 Frequencies --    612.6832               655.8760               675.3919
 Red. masses --     13.5689                 2.4419                11.0385
 Frc consts  --      3.0010                 0.6189                 2.9667
 IR Inten    --     24.7397                75.6789                 2.5081

                     19                     20                     21
                      A                      A                      A
 Frequencies --    743.2366               910.8133               975.6396
 Red. masses --      4.5246                 1.4486                 5.8914
 Frc consts  --      1.4726                 0.7081                 3.3041
 IR Inten    --     27.0855                 3.9835                76.3173

                     22                     23                     24
                      A                      A                      A
 Frequencies --    999.4262              1125.9453              1167.0477
 Red. masses --      8.9391                 1.3299                 1.6008
 Frc consts  --      5.2607                 0.9933                 1.2846
 IR Inten    --    104.4442                 2.3296               164.0151

                     25                     26                     27
                      A                      A                      A
 Frequencies --   1185.3621              1285.5383              1363.4714
 Red. masses --      3.2958                 7.8617                 2.6069
 Frc consts  --      2.7284                 7.6548                 2.8554
 IR Inten    --    390.8889               327.3987               129.1393

                     28                     29                     30
                      A                      A                      A
 Frequencies --   1410.2198              1460.4695              1478.7783
 Red. masses --      1.5566                 1.2300                 1.6401
 Frc consts  --      1.8239                 1.5457                 2.1131
 IR Inten    --     82.9987                75.3566                80.0440

                     31                     32                     33
                      A                      A                      A
 Frequencies --   1522.9967              1542.4359              1615.9788
 Red. masses --      1.1341                 1.0426                 4.6864
 Frc consts  --      1.5499                 1.4615                 7.2104
 IR Inten    --     66.3672                 8.3130               873.8486

                     34                     35                     36
                      A                      A                      A
 Frequencies --   1761.1937              3002.7164              3055.3066
 Red. masses --      7.1750                 1.0408                 1.1029
 Frc consts  --     13.1126                 5.5292                 6.0657
 IR Inten    --    343.3534                34.9221                31.5601

                     37                     38                     39
                      A                      A                      A
 Frequencies --   3144.0819              3167.7399              3594.8394
 Red. masses --      1.0946                 1.0904                 1.0755
 Frc consts  --      6.3752                 6.4466                 8.1888
 IR Inten    --     32.9558                 7.6923                55.8644

 - Thermochemistry -
 -------------------
 Temperature   298.150 Kelvin.  Pressure   1.00000 Atm.
 Atom     1 has atomic number  6 and mass  12.00000

 Molecular mass:   190.96456 amu.
 Principal axes and moments of inertia in atomic units:
                           1         2         3
     Eigenvalues --   967.725474180.721975137.01046
           X            0.99974   0.02279  -0.00002
           Y           -0.02279   0.99974  -0.00006
           Z            0.00002   0.00006   1.00000
 This molecule is an asymmetric top.
 Rotational symmetry number  1.
 Warning -- assumption of classical behavior for rotation
           may cause significant error
 Rotational temperatures (Kelvin)      0.08950     0.02072     0.01686
 Rotational constants (GHZ):           1.86493     0.43168     0.35132
 Zero-point vibrational energy     256598.7 (Joules/Mol)
                                   61.32856 (Kcal/Mol)
 Warning -- explicit consideration of  16 degrees of freedom as
           vibrations may cause significant error
 Vibrational temperatures:     56.15    92.26   141.47   149.36   162.14
          (Kelvin)            295.36   315.58   339.02   548.46   567.47
                              667.40   675.00   742.68   770.33   869.46
                              881.51   943.66   971.74  1069.35  1310.46
                             1403.73  1437.95  1619.98  1679.12  1705.47
                             1849.60  1961.73  2028.99  2101.29  2127.63
                             2191.25  2219.22  2325.03  2533.96  4320.24
                             4395.90  4523.63  4557.67  5172.17

 Zero-point correction=                           0.097733 (Hartree/Particle)
 Thermal correction to Energy=                    0.108453
 Thermal correction to Enthalpy=                  0.109397
 Thermal correction to Gibbs Free Energy=         0.059126
 Sum of electronic and zero-point Energies=          -1514.174935
 Sum of electronic and thermal Energies=             -1514.164216
 Sum of electronic and thermal Enthalpies=           -1514.163271
 Sum of electronic and thermal Free Energies=        -1514.213542

                     E (Thermal)             CV                S
                      KCal/Mol        Cal/Mol-Kelvin    Cal/Mol-Kelvin
 Total                   68.055             36.502            105.804
 Electronic               0.000              0.000              0.000
 Translational            0.889              2.981             41.646
 Rotational               0.889              2.981             31.408
 Vibrational             66.278             30.540             32.749
 Vibration     1          0.594              1.981              5.308
 Vibration     2          0.597              1.971              4.326
 Vibration     3          0.604              1.950              3.487
 Vibration     4          0.605              1.946              3.382
 Vibration     5          0.607              1.939              3.222
 Vibration     6          0.640              1.832              2.085
 Vibration     7          0.647              1.812              1.965
 Vibration     8          0.655              1.786              1.836
 Vibration     9          0.751              1.510              1.034
 Vibration    10          0.761              1.482              0.983
 Vibration    11          0.821              1.330              0.755
 Vibration    12          0.826              1.318              0.740
 Vibration    13          0.871              1.214              0.619
 Vibration    14          0.890              1.172              0.575
 Vibration    15          0.963              1.023              0.442
 Vibration    16          0.972              1.005              0.428

                           ! Non-Optimized Parameters !
 Normal termination of Gaussian 16 at Tue Dec  8 10:27:52 2020.

 ----------------------------------------------------------------------
 # B3LYP/6-311++G(d,p) empiricaldispersion=gd3bj scf=xqc pop=npa geom=c
 heck
 ----------------------------------------------------------------------

 --------------------------------------
 CID_142588264_JID_357_Energie_neutraal
 --------------------------------------
 Structure from the checkpoint file:  "JID_357.chk"
 Charge =  0 Multiplicity = 1

 SCF Done:  E(RB3LYP) =  -1514.44124260     A.U. after   15 cycles
 Normal termination of Gaussian 16 at Tue Dec  8 10:28:47 2020.

 ----------------------------------------------------------------------
 # B3LYP/6-311++G(d,p) empiricaldispersion=gd3bj scf=xqc pop=npa geom=c
 heck
 ----------------------------------------------------------------------

 ------------------------------------
 CID_142588264_JID_357_Energie_kation
 ------------------------------------
 Structure from the checkpoint file:  "JID_357.chk"
 Charge =  1 Multiplicity = 2

 SCF Done:  E(UB3LYP) =  -1514.13107575     A.U. after   29 cycles
 Normal termination of Gaussian 16 at Tue Dec  8 10:30:53 2020.
 Gaussian 16:  ES64L-G16RevA.03 25-Dec-2016

 ----------------------------------------------------------------------
 # B3LYP/6-311++G(d,p) empiricaldispersion=gd3bj scf=xqc pop=npa geom=c
 heck
 ----------------------------------------------------------------------

 -----------------------------------
 CID_142588264_JID_357_Energie_anion
 -----------------------------------
 Structure from the checkpoint file:  "JID_357.chk"
 Charge = -1 Multiplicity = 2

                         Standard orientation:
 ---------------------------------------------------------------------
 Center     Atomic      Atomic             Coordinates (Angstroms)
 Number     Number       Type             X           Y           Z
 ---------------------------------------------------------------------
      1          6           0       -4.325465   -1.281008    0.001730
      2          7           0       -3.992735    0.138040   -0.001051
      3          6           0       -2.774079    0.484839   -0.001838
      4          7           0       -1.666393   -0.372185   -0.000438
      5          6           0       -0.349713   -0.025458   -0.000109
      6          7           0        0.556572   -0.956943   -0.000400
      7          6           0        1.861925   -0.584719   -0.000071
      8         16           0        3.194562   -1.551384   -0.000274
      9         16           0        2.142879    1.197457    0.000474
     10         16           0        0.091553    1.703358    0.000540
     11          1           0       -5.411563   -1.392337    0.003310
     12          1           0       -3.934901   -1.794805    0.893283
     13          1           0       -3.937316   -1.797585   -0.889276
     14          1           0       -2.516801    1.543724   -0.003941
     15          1           0       -1.821436   -1.374195   -0.000275
 ---------------------------------------------------------------------

 SCF Done:  E(UB3LYP) =  -1514.48489431     A.U. after   21 cycles

 The electronic state is 2-A.
 Alpha  occ. eigenvalues --  -88.75344 -88.74327 -88.64815 -14.24935 -14.18273
 Alpha  occ. eigenvalues --  -14.17882 -10.13248 -10.12809 -10.10909 -10.09667
 Alpha  occ. eigenvalues --   -7.83922  -7.82850  -7.73601  -5.80308  -5.79962
 Alpha  occ. eigenvalues --   -5.79415  -5.79308  -5.78778  -5.78163  -5.69952
 Alpha  occ. eigenvalues --   -5.69502  -5.69193  -0.88243  -0.82428  -0.77559
 Alpha  occ. eigenvalues --   -0.67435  -0.64254  -0.60952  -0.54601  -0.52360
 Alpha  occ. eigenvalues --   -0.47882  -0.42740  -0.39536  -0.36932  -0.34723
 Alpha  occ. eigenvalues --   -0.33950  -0.31670  -0.29993  -0.27723  -0.25172
 Alpha  occ. eigenvalues --   -0.24367  -0.22129  -0.18739  -0.17867  -0.15432
 Alpha  occ. eigenvalues --   -0.14783  -0.12286  -0.08233  -0.07276   0.01472
 Alpha virt. eigenvalues --    0.06933   0.07528   0.10235   0.10365   0.10630
 Alpha virt. eigenvalues --    0.11962   0.12286   0.13469   0.13604   0.14548
 Alpha virt. eigenvalues --    0.15035   0.15238   0.15552   0.16038   0.17209

  Beta  occ. eigenvalues --  -88.75319 -88.74303 -88.64724 -14.24993 -14.18473
  Beta  occ. eigenvalues --  -14.17608 -10.12731 -10.12549 -10.10382 -10.09681
  Beta  occ. eigenvalues --   -7.83900  -7.82829  -7.73520  -5.80304  -5.79966
  Beta  occ. eigenvalues --   -5.79405  -5.79204  -5.78780  -5.78071  -5.69920
  Beta  occ. eigenvalues --   -5.69206  -5.69141  -0.87875  -0.82039  -0.77242
  Beta  occ. eigenvalues --   -0.67367  -0.63513  -0.60854  -0.54246  -0.51940
  Beta  occ. eigenvalues --   -0.47657  -0.42264  -0.39294  -0.36606  -0.34232
  Beta  occ. eigenvalues --   -0.33815  -0.30398  -0.29893  -0.27322  -0.24255
  Beta  occ. eigenvalues --   -0.24166  -0.21653  -0.17508  -0.16768  -0.15319
  Beta  occ. eigenvalues --   -0.14672  -0.11569  -0.07094  -0.07074
  Beta virt. eigenvalues --    0.06984   0.07551   0.07962   0.10302   0.10355
  Beta virt. eigenvalues --    0.11219   0.12061   0.13374   0.13475   0.13660
  Beta virt. eigenvalues --    0.14537   0.15270   0.15662   0.16069   0.16169

 Mulliken charges and spin densities:
               1          2
     1  C   -0.450169  -0.015133
     2  N   -0.187408   0.125419
     3  C   -0.144869   0.060561
     4  N   -0.032260  -0.015828
     5  C   -0.345005   0.351708
     6  N    0.166898  -0.099216
     7  C   -0.015761   0.253421
     8  S   -0.669745   0.198795
     9  S    0.020702   0.053779
    10  S   -0.191507   0.060313
    11  H    0.139122  -0.000099
    12  H    0.119474   0.016387
    13  H    0.119565   0.016336
    14  H    0.161319  -0.007354
    15  H    0.309645   0.000910
 Sum of Mulliken charges =  -1.00000   1.00000

 Dipole moment (field-independent basis, Debye):
    X=             -5.2774    Y=              1.6007    Z=              0.0014  Tot=              5.5148
 Quadrupole moment (field-independent basis, Debye-Ang):
   XX=           -137.6751   YY=            -95.7677   ZZ=            -89.1336
   XY=             17.2956   XZ=             -0.0103   YZ=             -0.0042

 Summary of Natural Population Analysis:

                                       Natural Population
                Natural  -----------------------------------------------
    Atom  No    Charge         Core      Valence    Rydberg      Total
 -----------------------------------------------------------------------
      C    1   -0.20452      0.99965     2.19654    0.00833     3.20452
      N    2   -0.22621      0.99967     2.71240    0.01414     3.72621
      C    3    0.15500      0.99963     1.82865    0.01673     2.84500
      N    4   -0.31893      0.99963     2.80754    0.01177     3.81893
      C    5    0.27789      0.99958     1.70540    0.01712     2.72211
      N    6   -0.32001      0.99957     2.80521    0.01523     3.82001
      C    7    0.02959      0.99969     1.95071    0.02001     2.97041
      S    8   -0.05051      4.99945     3.03358    0.01748     8.05051
      S    9    0.06765      4.99951     2.91124    0.02159     7.93235
      S   10    0.03399      4.99959     2.94752    0.01890     7.96601
      H   11    0.09191      0.00000     0.40698    0.00111     0.40809
      H   12    0.08734      0.00000     0.41124    0.00142     0.41266
      H   13    0.08736      0.00000     0.41122    0.00142     0.41264
      H   14    0.08633      0.00000     0.41206    0.00161     0.41367
      H   15    0.20312      0.00000     0.29493    0.00195     0.29688
 =======================================================================
   * Total *    0.00000     21.99598    26.83521    0.16881    49.00000

 Normal termination of Gaussian 16 at Tue Dec  8 10:32:47 2020.
