 Gaussian 16, Revision A.03,

 -----------------------------------------------------------
 # opt freq B3LYP/6-31G(d) empiricaldispersion=gd3bj scf=xqc
 -----------------------------------------------------------

 --------------------------------
 CID_127695440_JID_10344_neutraal
 --------------------------------
 Symbolic Z-matrix:
 Charge =  0 Multiplicity = 1

 SCF Done:  E(RB3LYP) =  -932.302497654     A.U. after   14 cycles
 SCF Done:  E(RB3LYP) =  -932.309463436     A.U. after   13 cycles
 SCF Done:  E(RB3LYP) =  -932.310320750     A.U. after   12 cycles
 SCF Done:  E(RB3LYP) =  -932.310932295     A.U. after   12 cycles
 SCF Done:  E(RB3LYP) =  -932.311148104     A.U. after   11 cycles
 SCF Done:  E(RB3LYP) =  -932.311309600     A.U. after   12 cycles
 SCF Done:  E(RB3LYP) =  -932.311416773     A.U. after   11 cycles
 SCF Done:  E(RB3LYP) =  -932.311499276     A.U. after   12 cycles
 SCF Done:  E(RB3LYP) =  -932.311740420     A.U. after   11 cycles
 SCF Done:  E(RB3LYP) =  -932.311990949     A.U. after   12 cycles
 SCF Done:  E(RB3LYP) =  -932.313931950     A.U. after    8 cycles
 SCF Done:  E(RB3LYP) =  -932.313932252     A.U. after    8 cycles
 SCF Done:  E(RB3LYP) =  -932.313932394     A.U. after    7 cycles
 SCF Done:  E(RB3LYP) =  -932.313932442     A.U. after    7 cycles
 SCF Done:  E(RB3LYP) =  -932.313932448     A.U. after    6 cycles
 SCF Done:  E(RB3LYP) =  -932.313932443     A.U. after    6 cycles
 Optimization completed.
    -- Stationary point found.
 Normal termination of Gaussian 16 at Sun Dec 13 21:23:11 2020.

 --------------------------------------------------------------------
 #N Geom=AllCheck Guess=TCheck SCRF=Check GenChk RB3LYP/6-31G(d) Freq
 --------------------------------------------------------------------

 Structure from the checkpoint file:  "JID_10344.chk"
 --------------------------------
 CID_127695440_JID_10344_neutraal
 --------------------------------
 Charge =  0 Multiplicity = 1

 SCF Done:  E(RB3LYP) =  -932.313932443     A.U. after    1 cycles

  Exact polarizability: 185.226  -3.818 158.768  -0.598   8.062 143.801
 Approx polarizability: 238.796  -6.329 228.051  -3.187  21.499 244.793

                      1                      2                      3
                      A                      A                      A
 Frequencies --     22.1187                33.0838                36.9017
 Red. masses --      3.7879                 5.0161                 4.3662
 Frc consts  --      0.0011                 0.0032                 0.0035
 IR Inten    --      0.1775                 0.7174                 0.1864

                      4                      5                      6
                      A                      A                      A
 Frequencies --     53.4735                69.9343                80.4870
 Red. masses --      2.3485                 4.1178                 6.4258
 Frc consts  --      0.0040                 0.0119                 0.0245
 IR Inten    --      0.1306                 0.4371                 5.4323

                      7                      8                      9
                      A                      A                      A
 Frequencies --     90.5374               109.7495               140.4337
 Red. masses --      4.7579                 5.4530                 3.4886
 Frc consts  --      0.0230                 0.0387                 0.0405
 IR Inten    --      1.2006                 0.7907                 3.6981

                     10                     11                     12
                      A                      A                      A
 Frequencies --    160.9816               197.7132               242.0289
 Red. masses --      3.7762                 4.7865                 3.4784
 Frc consts  --      0.0577                 0.1102                 0.1200
 IR Inten    --      0.9154                 0.6663                 1.5042

                     13                     14                     15
                      A                      A                      A
 Frequencies --    254.7403               259.2160               300.0386
 Red. masses --      1.4233                 1.9711                 3.4426
 Frc consts  --      0.0544                 0.0780                 0.1826
 IR Inten    --      0.2654                 0.3755                 0.1042

                     16                     17                     18
                      A                      A                      A
 Frequencies --    325.8216               347.3166               362.1426
 Red. masses --      2.9098                 3.0170                 3.2856
 Frc consts  --      0.1820                 0.2144                 0.2539
 IR Inten    --      2.3335                 0.1023                 4.4063

                     19                     20                     21
                      A                      A                      A
 Frequencies --    388.0198               413.4447               466.0556
 Red. masses --      2.6114                 1.9364                 3.3613
 Frc consts  --      0.2316                 0.1950                 0.4302
 IR Inten    --      5.4584                 5.1288                 8.8638

                     22                     23                     24
                      A                      A                      A
 Frequencies --    498.9226               518.7245               540.7426
 Red. masses --      3.7499                 2.6594                 3.3795
 Frc consts  --      0.5500                 0.4216                 0.5822
 IR Inten    --      6.4494                 4.5320                 3.6273

                     25                     26                     27
                      A                      A                      A
 Frequencies --    577.6765               600.3535               624.1803
 Red. masses --      3.7740                 2.9024                 5.3386
 Frc consts  --      0.7420                 0.6163                 1.2255
 IR Inten    --     18.5117                14.2072                10.4306

                     28                     29                     30
                      A                      A                      A
 Frequencies --    664.1909               688.5141               696.1628
 Red. masses --      5.4588                 5.1516                 3.7095
 Frc consts  --      1.4188                 1.4389                 1.0592
 IR Inten    --      3.8741                 4.6913                20.7651

                     31                     32                     33
                      A                      A                      A
 Frequencies --    747.1533               772.9435               779.0260
 Red. masses --      3.9443                 3.7523                 2.1555
 Frc consts  --      1.2973                 1.3208                 0.7707
 IR Inten    --      4.3774                 3.0471                 1.7571

                     34                     35                     36
                      A                      A                      A
 Frequencies --    808.4933               840.5027               857.9808
 Red. masses --      1.8589                 1.6384                 2.8884
 Frc consts  --      0.7159                 0.6819                 1.2527
 IR Inten    --     19.0936                45.4634                 0.9522

                     37                     38                     39
                      A                      A                      A
 Frequencies --    882.2170               889.4089               893.0182
 Red. masses --      1.5752                 1.3679                 2.1686
 Frc consts  --      0.7223                 0.6375                 1.0189
 IR Inten    --     13.7557                10.2890                16.3688

                     40                     41                     42
                      A                      A                      A
 Frequencies --    902.0293               905.9886               932.4407
 Red. masses --      1.8209                 1.2991                 2.2981
 Frc consts  --      0.8729                 0.6283                 1.1772
 IR Inten    --      7.8611                 2.1029                10.4152

                     43                     44                     45
                      A                      A                      A
 Frequencies --    952.9532               974.8781               982.0695
 Red. masses --      2.0385                 2.6637                 6.0063
 Frc consts  --      1.0907                 1.4915                 3.4130
 IR Inten    --      3.3311                11.3633                11.2735

                     46                     47                     48
                      A                      A                      A
 Frequencies --    997.0950              1006.3758              1033.6062
 Red. masses --      2.1169                 1.6925                 3.3319
 Frc consts  --      1.2400                 1.0099                 2.0973
 IR Inten    --     31.0833                 5.8422                 5.0179

                     49                     50                     51
                      A                      A                      A
 Frequencies --   1035.7285              1048.8394              1080.3886
 Red. masses --      2.6006                 3.1335                 2.0216
 Frc consts  --      1.6437                 2.0309                 1.3903
 IR Inten    --     28.3387                31.1625                10.9129

                     52                     53                     54
                      A                      A                      A
 Frequencies --   1106.2978              1115.3790              1132.1384
 Red. masses --      3.5511                 1.8537                 2.3288
 Frc consts  --      2.5607                 1.3587                 1.7587
 IR Inten    --     40.2588                 3.0074                33.0505

                     55                     56                     57
                      A                      A                      A
 Frequencies --   1153.6659              1161.1249              1165.7805
 Red. masses --      2.7325                 2.6499                 1.9543
 Frc consts  --      2.1428                 2.1049                 1.5649
 IR Inten    --     15.4569                45.7197                 8.7920

                     58                     59                     60
                      A                      A                      A
 Frequencies --   1169.0661              1179.7403              1187.6203
 Red. masses --      1.6673                 2.0865                 2.0929
 Frc consts  --      1.3426                 1.7110                 1.7392
 IR Inten    --      6.2421               118.9225                 6.9724

                     61                     62                     63
                      A                      A                      A
 Frequencies --   1222.0368              1236.9421              1247.9371
 Red. masses --      1.9778                 1.3854                 1.7205
 Frc consts  --      1.7402                 1.2489                 1.5786
 IR Inten    --      5.5791                15.1184                19.8840

                     64                     65                     66
                      A                      A                      A
 Frequencies --   1256.9777              1261.9767              1277.5853
 Red. masses --      1.8648                 1.1512                 2.0379
 Frc consts  --      1.7359                 1.0802                 1.9598
 IR Inten    --     13.3955                 1.5916                37.5679

                     67                     68                     69
                      A                      A                      A
 Frequencies --   1300.1293              1307.2476              1314.5092
 Red. masses --      1.5713                 1.3658                 1.6274
 Frc consts  --      1.5649                 1.3752                 1.6568
 IR Inten    --     54.4059                 2.8839                93.2960

                     70                     71                     72
                      A                      A                      A
 Frequencies --   1328.3993              1335.2306              1352.1022
 Red. masses --      1.7015                 1.8515                 1.2258
 Frc consts  --      1.7690                 1.9448                 1.3203
 IR Inten    --     43.2083                86.7607                22.6476

                     73                     74                     75
                      A                      A                      A
 Frequencies --   1358.7578              1377.5942              1384.5574
 Red. masses --      1.6892                 1.3288                 1.2898
 Frc consts  --      1.8374                 1.4858                 1.4567
 IR Inten    --     12.2204                 5.1685                 5.5725

                     76                     77                     78
                      A                      A                      A
 Frequencies --   1390.1814              1397.0490              1408.1890
 Red. masses --      1.5535                 3.6230                 1.4782
 Frc consts  --      1.7689                 4.1662                 1.7271
 IR Inten    --     26.4056                 5.4875                21.4648

                     79                     80                     81
                      A                      A                      A
 Frequencies --   1411.1213              1413.6133              1420.3448
 Red. masses --      1.3979                 1.5349                 1.3516
 Frc consts  --      1.6400                 1.8072                 1.6066
 IR Inten    --      0.3526                11.3717                 0.6299

                     82                     83                     84
                      A                      A                      A
 Frequencies --   1437.8212              1444.9475              1470.7061
 Red. masses --      1.3705                 1.4043                 2.6630
 Frc consts  --      1.6693                 1.7274                 3.3937
 IR Inten    --      7.4450                14.4403                47.5012

                     85                     86                     87
                      A                      A                      A
 Frequencies --   1472.1153              1498.8226              1507.2975
 Red. masses --      2.1634                 1.4711                 1.1173
 Frc consts  --      2.7623                 1.9472                 1.4956
 IR Inten    --    198.2493                21.3142                11.2610

                     88                     89                     90
                      A                      A                      A
 Frequencies --   1510.5282              1518.1324              1521.2524
 Red. masses --      1.0998                 1.1223                 1.0580
 Frc consts  --      1.4785                 1.5240                 1.4426
 IR Inten    --      3.9979                 4.0900                 7.4195

                     91                     92                     93
                      A                      A                      A
 Frequencies --   1526.3227              1528.2552              1531.3111
 Red. masses --      1.0960                 1.1360                 1.0501
 Frc consts  --      1.5044                 1.5632                 1.4508
 IR Inten    --      0.1534                20.6303                11.3785

                     94                     95                     96
                      A                      A                      A
 Frequencies --   1557.8443              1558.5199              1777.5090
 Red. masses --      1.1115                 3.5609                 7.6891
 Frc consts  --      1.5893                 5.0961                14.3137
 IR Inten    --      0.2723                48.4121               323.4704

                     97                     98                     99
                      A                      A                      A
 Frequencies --   2937.7972              3016.6598              3031.8016
 Red. masses --      1.0823                 1.0734                 1.0693
 Frc consts  --      5.5035                 5.7553                 5.7908
 IR Inten    --     53.8851                36.0028                83.1961

                    100                    101                    102
                      A                      A                      A
 Frequencies --   3033.8532              3044.3577              3059.5271
 Red. masses --      1.0741                 1.0724                 1.0357
 Frc consts  --      5.8247                 5.8557                 5.7120
 IR Inten    --     17.5689                20.0642                13.3653

                    103                    104                    105
                      A                      A                      A
 Frequencies --   3063.3698              3065.5999              3070.8542
 Red. masses --      1.0838                 1.0606                 1.0642
 Frc consts  --      5.9926                 5.8726                 5.9125
 IR Inten    --     50.9578                30.3468                21.4698

                    106                    107                    108
                      A                      A                      A
 Frequencies --   3095.0819              3108.3475              3108.9032
 Red. masses --      1.0974                 1.0884                 1.1040
 Frc consts  --      6.1939                 6.1957                 6.2870
 IR Inten    --     23.8918                 8.7263                35.2487

                    109                    110                    111
                      A                      A                      A
 Frequencies --   3126.3140              3132.1901              3138.0434
 Red. masses --      1.1005                 1.1018                 1.0939
 Frc consts  --      6.3373                 6.3687                 6.3466
 IR Inten    --     31.5672                36.2903                 8.3551

                    112                    113                    114
                      A                      A                      A
 Frequencies --   3142.3165              3172.6553              3173.6396
 Red. masses --      1.1030                 1.0907                 1.0909
 Frc consts  --      6.4172                 6.4682                 6.4737
 IR Inten    --     12.8275                 3.9149                 4.6173

                    115                    116                    117
                      A                      A                      A
 Frequencies --   3267.4630              3275.2254              3526.4541
 Red. masses --      1.0997                 1.0981                 1.0739
 Frc consts  --      6.9172                 6.9401                 7.8684
 IR Inten    --     21.3040                14.5450                12.6101

 - Thermochemistry -
 -------------------
 Temperature   298.150 Kelvin.  Pressure   1.00000 Atm.
 Atom     1 has atomic number  6 and mass  12.00000

 Molecular mass:   279.16953 amu.
 Principal axes and moments of inertia in atomic units:
                           1         2         3
     Eigenvalues --  2916.844458566.752779744.12817
           X            0.99986  -0.01640  -0.00326
           Y            0.01641   0.99986   0.00173
           Z            0.00324  -0.00178   0.99999
 This molecule is an asymmetric top.
 Rotational symmetry number  1.
 Warning -- assumption of classical behavior for rotation
           may cause significant error
 Rotational temperatures (Kelvin)      0.02969     0.01011     0.00889
 Rotational constants (GHZ):           0.61873     0.21067     0.18521
 Zero-point vibrational energy     932560.7 (Joules/Mol)
                                  222.88736 (Kcal/Mol)
 Warning -- explicit consideration of  26 degrees of freedom as
           vibrations may cause significant error
 Vibrational temperatures:     31.82    47.60    53.09    76.94   100.62
          (Kelvin)            115.80   130.26   157.90   202.05   231.62
                              284.47   348.23   366.51   372.95   431.69
                              468.78   499.71   521.04   558.27   594.85
                              670.55   717.84   746.33   778.01   831.15
                              863.77   898.06   955.62   990.62  1001.62
                             1074.99  1112.09  1120.84  1163.24  1209.30
                             1234.44  1269.31  1279.66  1284.85  1297.82
                             1303.52  1341.57  1371.09  1402.63  1412.98
                             1434.60  1447.95  1487.13  1490.18  1509.05
                             1554.44  1591.72  1604.78  1628.89  1659.87
                             1670.60  1677.30  1682.03  1697.38  1708.72
                             1758.24  1779.68  1795.50  1808.51  1815.70
                             1838.16  1870.60  1880.84  1891.29  1911.27
                             1921.10  1945.37  1954.95  1982.05  1992.07
                             2000.16  2010.04  2026.07  2030.29  2033.87
                             2043.56  2068.70  2078.96  2116.02  2118.05
                             2156.47  2168.66  2173.31  2184.25  2188.74
                             2196.04  2198.82  2203.22  2241.39  2242.36
                             2557.44  4226.83  4340.30  4362.09  4365.04
                             4380.15  4401.98  4407.51  4410.71  4418.27
                             4453.13  4472.22  4473.02  4498.07  4506.52
                             4514.94  4521.09  4564.74  4566.16  4701.15
                             4712.32  5073.78

 Zero-point correction=                           0.355194 (Hartree/Particle)
 Thermal correction to Energy=                    0.373258
 Thermal correction to Enthalpy=                  0.374202
 Thermal correction to Gibbs Free Energy=         0.306606
 Sum of electronic and zero-point Energies=           -931.958739
 Sum of electronic and thermal Energies=              -931.940675
 Sum of electronic and thermal Enthalpies=            -931.939730
 Sum of electronic and thermal Free Energies=         -932.007327

                     E (Thermal)             CV                S
                      KCal/Mol        Cal/Mol-Kelvin    Cal/Mol-Kelvin
 Total                  234.223             68.878            142.269
 Electronic               0.000              0.000              0.000
 Translational            0.889              2.981             42.778
 Rotational               0.889              2.981             33.853
 Vibrational            232.445             62.916             65.637
 Vibration     1          0.593              1.985              6.434
 Vibration     2          0.594              1.983              5.635
 Vibration     3          0.594              1.982              5.419
 Vibration     4          0.596              1.976              4.685
 Vibration     5          0.598              1.968              4.155
 Vibration     6          0.600              1.962              3.879
 Vibration     7          0.602              1.956              3.648
 Vibration     8          0.606              1.941              3.273
 Vibration     9          0.615              1.913              2.798
 Vibration    10          0.622              1.890              2.538
 Vibration    11          0.637              1.843              2.154
 Vibration    12          0.658              1.776              1.788
 Vibration    13          0.665              1.755              1.698
 Vibration    14          0.668              1.747              1.667
 Vibration    15          0.693              1.674              1.417
 Vibration    16          0.710              1.624              1.281
 Vibration    17          0.725              1.581              1.178
 Vibration    18          0.736              1.550              1.113
 Vibration    19          0.756              1.496              1.008
 Vibration    20          0.777              1.441              0.915
 Vibration    21          0.823              1.325              0.749
 Vibration    22          0.854              1.252              0.661
 Vibration    23          0.874              1.209              0.613
 Vibration    24          0.896              1.160              0.564
 Vibration    25          0.934              1.080              0.490
 Vibration    26          0.959              1.031              0.449

                           ! Non-Optimized Parameters !
 Normal termination of Gaussian 16 at Sun Dec 13 21:47:21 2020.

 ----------------------------------------------------------------------
 # B3LYP/6-311++G(d,p) empiricaldispersion=gd3bj scf=xqc pop=npa geom=c
 heck
 ----------------------------------------------------------------------

 ----------------------------------------
 CID_127695440_JID_10344_Energie_neutraal
 ----------------------------------------
 Structure from the checkpoint file:  "JID_10344.chk"
 Charge =  0 Multiplicity = 1

 SCF Done:  E(RB3LYP) =  -932.572594789     A.U. after   16 cycles
 Normal termination of Gaussian 16 at Sun Dec 13 21:57:24 2020.

 ----------------------------------------------------------------------
 # B3LYP/6-311++G(d,p) empiricaldispersion=gd3bj scf=xqc pop=npa geom=c
 heck
 ----------------------------------------------------------------------

 --------------------------------------
 CID_127695440_JID_10344_Energie_kation
 --------------------------------------
 Structure from the checkpoint file:  "JID_10344.chk"
 Charge =  1 Multiplicity = 2

 SCF Done:  E(UB3LYP) =  -932.258240245     A.U. after   29 cycles
 Normal termination of Gaussian 16 at Sun Dec 13 22:21:46 2020.
 Gaussian 16:  ES64L-G16RevA.03 25-Dec-2016

 ----------------------------------------------------------------------
 # B3LYP/6-311++G(d,p) empiricaldispersion=gd3bj scf=xqc pop=npa geom=c
 heck
 ----------------------------------------------------------------------

 -------------------------------------
 CID_127695440_JID_10344_Energie_anion
 -------------------------------------
 Structure from the checkpoint file:  "JID_10344.chk"
 Charge = -1 Multiplicity = 2

                         Standard orientation:
 ---------------------------------------------------------------------
 Center     Atomic      Atomic             Coordinates (Angstroms)
 Number     Number       Type             X           Y           Z
 ---------------------------------------------------------------------
      1          6           0       -3.542129   -1.689799    0.428599
      2          6           0       -3.567771   -0.174796    0.380087
      3          6           0       -2.285136    0.496544   -0.145629
      4          6           0       -2.798218    1.886752   -0.549423
      5          6           0       -4.284160    1.625182   -0.888131
      6          8           0       -4.561450    0.261603   -0.540048
      7          7           0       -1.168916    0.542349    0.804223
      8          6           0       -0.416760   -0.630719    1.035803
      9          8           0       -0.350248   -1.140064    2.148609
     10          7           0        0.241476   -1.133927   -0.063970
     11          6           0        0.918955   -2.425845    0.063233
     12          6           0        2.438785   -2.262192    0.008871
     13          6           0        2.850513   -1.525585   -1.268945
     14          6           0        2.125701   -0.176636   -1.384706
     15          6           0        0.604493   -0.353935   -1.240134
     16          7           0        2.650438    0.767624   -0.391733
     17          6           0        2.025024    1.600001    0.477778
     18          7           0        2.914292    2.323674    1.141885
     19          6           0        4.097614    1.889691    0.625683
     20          7           0        3.997971    0.952629   -0.305893
     21          1           0       -4.520610   -2.078165    0.726522
     22          1           0       -2.797452   -2.030045    1.155079
     23          1           0       -3.294476   -2.098688   -0.557119
     24          1           0       -3.780224    0.225476    1.390295
     25          1           0       -1.965370   -0.058047   -1.031095
     26          1           0       -2.236247    2.315931   -1.383744
     27          1           0       -2.699132    2.573130    0.298909
     28          1           0       -4.504814    1.740346   -1.953752
     29          1           0       -4.946277    2.299493   -0.327850
     30          1           0       -1.482404    0.869671    1.715219
     31          1           0        0.583303   -3.068376   -0.764586
     32          1           0        0.596089   -2.869526    1.003786
     33          1           0        2.916994   -3.247410    0.048538
     34          1           0        2.771600   -1.700808    0.889272
     35          1           0        3.928441   -1.353627   -1.302284
     36          1           0        2.579471   -2.124561   -2.149133
     37          1           0        2.318434    0.258418   -2.372702
     38          1           0        0.112070    0.616180   -1.204897
     39          1           0        0.255850   -0.871590   -2.144590
     40          1           0        0.951876    1.639081    0.602647
     41          1           0        5.058163    2.272381    0.942895
 ---------------------------------------------------------------------

 SCF Done:  E(UB3LYP) =  -932.568603563     A.U. after   32 cycles

 The electronic state is 2-A.
 Alpha  occ. eigenvalues --  -19.04123 -19.00047 -14.30319 -14.25472 -14.24467
 Alpha  occ. eigenvalues --  -14.24312 -14.21093 -10.20821 -10.14089 -10.13917
 Alpha  occ. eigenvalues --  -10.13404 -10.13326 -10.12896 -10.12565 -10.12429
 Alpha  occ. eigenvalues --  -10.11219 -10.08935 -10.08236 -10.08111 -10.07899
 Alpha  occ. eigenvalues --   -0.98443  -0.96721  -0.96017  -0.86261  -0.83463
 Alpha  occ. eigenvalues --   -0.81156  -0.75191  -0.70919  -0.69147  -0.68860
 Alpha  occ. eigenvalues --   -0.67442  -0.60564  -0.59243  -0.57669  -0.53602
 Alpha  occ. eigenvalues --   -0.52433  -0.52097  -0.50677  -0.49915  -0.47404
 Alpha  occ. eigenvalues --   -0.45357  -0.43536  -0.41794  -0.40607  -0.39775
 Alpha  occ. eigenvalues --   -0.38384  -0.38090  -0.37395  -0.36748  -0.36111
 Alpha  occ. eigenvalues --   -0.35406  -0.34532  -0.33502  -0.32950  -0.32343
 Alpha  occ. eigenvalues --   -0.31755  -0.31110  -0.30178  -0.30019  -0.29766
 Alpha  occ. eigenvalues --   -0.29033  -0.27446  -0.26509  -0.25950  -0.25388
 Alpha  occ. eigenvalues --   -0.25040  -0.24896  -0.23283  -0.20359  -0.19591
 Alpha  occ. eigenvalues --   -0.18853  -0.18175  -0.17695  -0.16085  -0.15676
 Alpha  occ. eigenvalues --    0.03775
 Alpha virt. eigenvalues --    0.05963   0.06887   0.07394   0.07831   0.08213
 Alpha virt. eigenvalues --    0.08649   0.08817   0.09197   0.09876   0.10355
 Alpha virt. eigenvalues --    0.10642   0.10881   0.10953   0.11603   0.12170

  Beta  occ. eigenvalues --  -19.04120 -19.00022 -14.30294 -14.25481 -14.24467
  Beta  occ. eigenvalues --  -14.24283 -14.21086 -10.20801 -10.14086 -10.13884
  Beta  occ. eigenvalues --  -10.13387 -10.13308 -10.12883 -10.12563 -10.12388
  Beta  occ. eigenvalues --  -10.11203 -10.08907 -10.08232 -10.08089 -10.07891
  Beta  occ. eigenvalues --   -0.98400  -0.96685  -0.96006  -0.86240  -0.83448
  Beta  occ. eigenvalues --   -0.81117  -0.75137  -0.70886  -0.69121  -0.68833
  Beta  occ. eigenvalues --   -0.67395  -0.60517  -0.59207  -0.57620  -0.53577
  Beta  occ. eigenvalues --   -0.52387  -0.52051  -0.50638  -0.49866  -0.47355
  Beta  occ. eigenvalues --   -0.45321  -0.43497  -0.41744  -0.40575  -0.39687
  Beta  occ. eigenvalues --   -0.38333  -0.38057  -0.37358  -0.36718  -0.36067
  Beta  occ. eigenvalues --   -0.35378  -0.34480  -0.33471  -0.32924  -0.32304
  Beta  occ. eigenvalues --   -0.31709  -0.31067  -0.30131  -0.29975  -0.29734
  Beta  occ. eigenvalues --   -0.29004  -0.27409  -0.26473  -0.25913  -0.25356
  Beta  occ. eigenvalues --   -0.24997  -0.24863  -0.23242  -0.20326  -0.19471
  Beta  occ. eigenvalues --   -0.18827  -0.18156  -0.17544  -0.16048  -0.15652
  Beta virt. eigenvalues --    0.06069   0.06704   0.07371   0.07688   0.08083
  Beta virt. eigenvalues --    0.08292   0.08957   0.09435   0.09574   0.10193
  Beta virt. eigenvalues --    0.10478   0.10822   0.11062   0.11234   0.11855

 Mulliken charges and spin densities:
               1          2
     1  C   -0.060695  -0.375563
     2  C   -0.274689   0.008151
     3  C   -0.719375   0.374092
     4  C    0.508506  -0.598109
     5  C    0.260627  -0.691784
     6  O   -0.063397   0.018945
     7  N   -0.021136   0.003961
     8  C   -0.637448   0.247599
     9  O   -0.256702   0.006498
    10  N    0.229907  -0.020380
    11  C    0.123727  -0.303053
    12  C   -0.463572   0.041931
    13  C    0.830377  -1.398428
    14  C   -0.664986   1.031493
    15  C    0.689701  -1.499280
    16  N    0.161546  -0.103722
    17  C   -0.118031  -0.246470
    18  N   -0.056281   0.018782
    19  C   -0.050666  -0.038512
    20  N   -0.074046  -0.014206
    21  H    0.133033   0.035628
    22  H    0.225313  -0.014452
    23  H    0.004237   0.146216
    24  H    0.042859   0.090803
    25  H    0.474026  -0.184528
    26  H   -0.361051   0.524173
    27  H    0.027904   0.124758
    28  H   -0.215256   0.387779
    29  H    0.025461   0.121520
    30  H    0.316927  -0.007934
    31  H   -0.120293   0.305111
    32  H    0.134658   0.049515
    33  H    0.025594   0.148782
    34  H    0.170967   0.010115
    35  H    0.166655   0.031270
    36  H   -0.237916   0.398490
    37  H   -0.866137   1.187348
    38  H    0.321350  -0.113393
    39  H   -0.941900   1.166396
    40  H    0.189724   0.118490
    41  H    0.140477   0.011967
 Sum of Mulliken charges =  -1.00000   1.00000

 Dipole moment (field-independent basis, Debye):
    X=             -1.1719    Y=             -0.6640    Z=              6.1483  Tot=              6.2941
 Quadrupole moment (field-independent basis, Debye-Ang):
   XX=           -182.0101   YY=           -162.7558   ZZ=           -180.7955
   XY=             -1.3030   XZ=             -2.2042   YZ=             -2.2767

 Summary of Natural Population Analysis:

                                       Natural Population
                Natural  -----------------------------------------------
    Atom  No    Charge         Core      Valence    Rydberg      Total
 -----------------------------------------------------------------------
      C    1   -0.29493      0.99963     2.28999    0.00531     3.29493
      C    2    0.06519      0.99955     1.92139    0.01388     2.93481
      C    3   -0.02401      0.99953     2.00961    0.01487     3.02401
      C    4   -0.20606      0.99962     2.19746    0.00898     3.20606
      C    5   -0.00903      0.99960     1.99772    0.01171     3.00903
      O    6   -0.30343      0.99989     3.29480    0.00875     4.30343
      N    7   -0.34839      0.99968     2.83829    0.01042     3.84839
      C    8    0.41710      0.99965     1.55906    0.02419     2.58290
      O    9   -0.33238      0.99987     3.32793    0.00458     4.33238
      N   10   -0.26941      0.99963     2.75817    0.01160     3.76941
      C   11   -0.08388      0.99961     2.07415    0.01012     3.08388
      C   12   -0.19775      0.99962     2.19060    0.00754     3.19775
      C   13   -0.19525      0.99960     2.18643    0.00921     3.19525
      C   14   -0.00599      0.99956     1.99098    0.01545     3.00599
      C   15   -0.09562      0.99958     2.08237    0.01368     3.09562
      N   16   -0.11551      0.99964     2.60161    0.01425     3.61551
      C   17    0.11010      0.99962     1.87353    0.01675     2.88990
      N   18   -0.26567      0.99973     2.75694    0.00900     3.76567
      C   19    0.08481      0.99971     1.89712    0.01836     2.91519
      N   20   -0.15950      0.99973     2.64929    0.01048     3.65950
      H   21    0.10188      0.00000     0.39729    0.00083     0.39812
      H   22    0.10891      0.00000     0.39034    0.00075     0.39109
      H   23    0.10378      0.00000     0.39501    0.00120     0.39622
      H   24    0.07352      0.00000     0.42514    0.00134     0.42648
      H   25    0.10472      0.00000     0.39237    0.00291     0.39528
      H   26    0.11199      0.00000     0.38618    0.00183     0.38801
      H   27    0.09785      0.00000     0.40088    0.00127     0.40215
      H   28    0.09161      0.00000     0.40691    0.00148     0.40839
      H   29    0.07928      0.00000     0.41950    0.00121     0.42072
      H   30    0.18930      0.00000     0.30889    0.00182     0.31070
      H   31    0.09364      0.00000     0.40514    0.00122     0.40636
      H   32    0.11443      0.00000     0.38459    0.00099     0.38557
      H   33    0.10143      0.00000     0.39784    0.00074     0.39857
      H   34    0.10190      0.00000     0.39695    0.00116     0.39810
      H   35    0.11288      0.00000     0.38560    0.00153     0.38712
      H   36    0.10494      0.00000     0.39304    0.00202     0.39506
      H   37    0.11432      0.00000     0.38221    0.00347     0.38568
      H   38    0.11330      0.00000     0.38378    0.00292     0.38670
      H   39    0.11078      0.00000     0.38395    0.00528     0.38922
      H   40    0.10950      0.00000     0.38834    0.00216     0.39050
      H   41    0.08968      0.00000     0.40958    0.00073     0.41032
 =======================================================================
   * Total *   -0.00000     19.99307    54.73096    0.27597    75.00000

 Normal termination of Gaussian 16 at Sun Dec 13 22:47:58 2020.
