 Gaussian 16, Revision A.03,

 -----------------------------------------------------------
 # opt freq B3LYP/6-31G(d) empiricaldispersion=gd3bj scf=xqc
 -----------------------------------------------------------

 -------------------------------
 CID_79955291_JID_10507_neutraal
 -------------------------------
 Symbolic Z-matrix:
 Charge =  0 Multiplicity = 1

 SCF Done:  E(RB3LYP) =  -1186.08595615     A.U. after   14 cycles
 SCF Done:  E(RB3LYP) =  -1186.09379344     A.U. after   12 cycles
 SCF Done:  E(RB3LYP) =  -1186.09337798     A.U. after   12 cycles
 SCF Done:  E(RB3LYP) =  -1186.09450087     A.U. after   12 cycles
 SCF Done:  E(RB3LYP) =  -1186.09502911     A.U. after   11 cycles
 SCF Done:  E(RB3LYP) =  -1186.09504818     A.U. after   11 cycles
 SCF Done:  E(RB3LYP) =  -1186.09512387     A.U. after   10 cycles
 SCF Done:  E(RB3LYP) =  -1186.09512712     A.U. after    9 cycles
 SCF Done:  E(RB3LYP) =  -1186.09513232     A.U. after    9 cycles
 SCF Done:  E(RB3LYP) =  -1186.09513801     A.U. after   10 cycles
 SCF Done:  E(RB3LYP) =  -1186.09514590     A.U. after   10 cycles
 SCF Done:  E(RB3LYP) =  -1186.09514799     A.U. after   10 cycles
 SCF Done:  E(RB3LYP) =  -1186.09514806     A.U. after    9 cycles
 SCF Done:  E(RB3LYP) =  -1186.09514804     A.U. after    8 cycles
 SCF Done:  E(RB3LYP) =  -1186.09514808     A.U. after    7 cycles
 Optimization completed.
    -- Stationary point found.
 Normal termination of Gaussian 16 at Sat Dec 12 15:55:40 2020.

 --------------------------------------------------------------------
 #N Geom=AllCheck Guess=TCheck SCRF=Check GenChk RB3LYP/6-31G(d) Freq
 --------------------------------------------------------------------

 Structure from the checkpoint file:  "JID_10507.chk"
 -------------------------------
 CID_79955291_JID_10507_neutraal
 -------------------------------
 Charge =  0 Multiplicity = 1

 SCF Done:  E(RB3LYP) =  -1186.09514808     A.U. after    1 cycles

  Exact polarizability: 225.025  14.462 167.840  -4.157   7.275 182.354
 Approx polarizability: 320.163  30.168 251.559 -17.699  11.220 311.759

                      1                      2                      3
                      A                      A                      A
 Frequencies --     10.8895                63.6746                77.6754
 Red. masses --      3.6622                 4.5766                 3.9231
 Frc consts  --      0.0003                 0.0109                 0.0139
 IR Inten    --      1.0326                 0.0515                 0.2444

                      4                      5                      6
                      A                      A                      A
 Frequencies --    106.0777               122.4023               132.3742
 Red. masses --      2.8770                 4.3212                 4.5061
 Frc consts  --      0.0191                 0.0381                 0.0465
 IR Inten    --      0.9716                 0.0988                 0.6771

                      7                      8                      9
                      A                      A                      A
 Frequencies --    175.6373               180.7529               204.1149
 Red. masses --      3.8922                 2.8290                 2.0842
 Frc consts  --      0.0707                 0.0545                 0.0512
 IR Inten    --      0.9089                 1.6533                 1.5702

                     10                     11                     12
                      A                      A                      A
 Frequencies --    219.3706               237.9327               245.8587
 Red. masses --      1.2607                 2.3397                 2.3080
 Frc consts  --      0.0357                 0.0780                 0.0822
 IR Inten    --      1.1115                 2.4337                 4.5599

                     13                     14                     15
                      A                      A                      A
 Frequencies --    264.0120               274.3448               295.1146
 Red. masses --      2.2859                 2.3603                 3.2971
 Frc consts  --      0.0939                 0.1047                 0.1692
 IR Inten    --      2.4290                 0.5476                 2.7724

                     16                     17                     18
                      A                      A                      A
 Frequencies --    299.1974               317.4104               331.8677
 Red. masses --      1.2305                 3.4877                 2.5192
 Frc consts  --      0.0649                 0.2070                 0.1635
 IR Inten    --      1.1065                 2.8498                 2.3182

                     19                     20                     21
                      A                      A                      A
 Frequencies --    362.2750               385.4885               386.4605
 Red. masses --      2.2273                 1.7220                 2.0325
 Frc consts  --      0.1722                 0.1508                 0.1789
 IR Inten    --      9.3267                20.2015                 1.8068

                     22                     23                     24
                      A                      A                      A
 Frequencies --    406.8550               425.2384               452.5928
 Red. masses --      1.6470                 2.5421                 2.8932
 Frc consts  --      0.1606                 0.2708                 0.3492
 IR Inten    --     13.6946                 0.4856                 5.1853

                     25                     26                     27
                      A                      A                      A
 Frequencies --    470.3252               476.7845               503.5959
 Red. masses --      3.0049                 2.8244                 3.2207
 Frc consts  --      0.3916                 0.3783                 0.4812
 IR Inten    --      1.2013                 7.6899                 3.8427

                     28                     29                     30
                      A                      A                      A
 Frequencies --    507.0943               529.6379               561.0801
 Red. masses --      3.1822                 2.7487                 3.2134
 Frc consts  --      0.4821                 0.4543                 0.5960
 IR Inten    --     16.9948                12.4295                44.8817

                     31                     32                     33
                      A                      A                      A
 Frequencies --    583.6724               611.3105               628.4926
 Red. masses --      2.4988                 2.8865                 3.3841
 Frc consts  --      0.5016                 0.6356                 0.7876
 IR Inten    --     89.2286                41.3834                50.9408

                     34                     35                     36
                      A                      A                      A
 Frequencies --    678.9371               695.3952               720.7947
 Red. masses --      4.5439                 4.4642                 5.6691
 Frc consts  --      1.2341                 1.2719                 1.7354
 IR Inten    --      2.0273                 2.8010                 9.1559

                     37                     38                     39
                      A                      A                      A
 Frequencies --    743.9216               748.4220               762.1005
 Red. masses --      3.2390                 2.9662                 2.9790
 Frc consts  --      1.0561                 0.9789                 1.0194
 IR Inten    --      4.1042                24.8353                21.9082

                     40                     41                     42
                      A                      A                      A
 Frequencies --    777.8780               784.9640               819.2267
 Red. masses --      2.4454                 2.6252                 3.9580
 Frc consts  --      0.8718                 0.9530                 1.5651
 IR Inten    --      3.5781                10.5694                 1.7126

                     43                     44                     45
                      A                      A                      A
 Frequencies --    834.8866               880.5859               892.6666
 Red. masses --      1.9544                 1.4240                 2.2836
 Frc consts  --      0.8026                 0.6506                 1.0721
 IR Inten    --      1.4859                 0.4829                 3.0915

                     46                     47                     48
                      A                      A                      A
 Frequencies --    910.4348               947.7334               952.7911
 Red. masses --      1.9322                 1.8331                 1.5842
 Frc consts  --      0.9436                 0.9701                 0.8473
 IR Inten    --      2.7309                 7.6781                 3.2804

                     49                     50                     51
                      A                      A                      A
 Frequencies --    963.3830               971.6967               986.7664
 Red. masses --      1.8838                 1.5219                 1.3961
 Frc consts  --      1.0301                 0.8466                 0.8009
 IR Inten    --      4.8255                 2.8316                 0.7751

                     52                     53                     54
                      A                      A                      A
 Frequencies --    991.2772               997.0318              1010.4897
 Red. masses --      2.7128                 2.5164                 1.5784
 Frc consts  --      1.5706                 1.4738                 0.9496
 IR Inten    --      1.8785                 2.6101                 1.9130

                     55                     56                     57
                      A                      A                      A
 Frequencies --   1025.3025              1036.3211              1045.8609
 Red. masses --      1.6726                 2.5361                 2.2574
 Frc consts  --      1.0360                 1.6047                 1.4548
 IR Inten    --     15.0404                55.9920                17.0385

                     58                     59                     60
                      A                      A                      A
 Frequencies --   1054.7616              1071.9382              1080.5025
 Red. masses --      2.1402                 1.8545                 1.5616
 Frc consts  --      1.4028                 1.2555                 1.0741
 IR Inten    --      1.8662                11.7728                 1.1822

                     61                     62                     63
                      A                      A                      A
 Frequencies --   1086.7062              1140.9856              1149.3510
 Red. masses --      2.1232                 2.0477                 1.7606
 Frc consts  --      1.4773                 1.5707                 1.3703
 IR Inten    --      4.3079                16.8633                20.2284

                     64                     65                     66
                      A                      A                      A
 Frequencies --   1175.8400              1192.3410              1197.7576
 Red. masses --      1.6270                 1.9598                 1.1106
 Frc consts  --      1.3254                 1.6416                 0.9388
 IR Inten    --      4.5443                 4.6025                 1.6650

                     67                     68                     69
                      A                      A                      A
 Frequencies --   1200.1623              1218.1107              1227.6524
 Red. masses --      1.9001                 1.4150                 2.4410
 Frc consts  --      1.6125                 1.2370                 2.1675
 IR Inten    --     14.5741                 1.2561                15.6630

                     70                     71                     72
                      A                      A                      A
 Frequencies --   1245.2526              1265.0834              1268.9442
 Red. masses --      2.0841                 3.1150                 1.5675
 Frc consts  --      1.9041                 2.9373                 1.4871
 IR Inten    --      6.8040                22.8116                22.0884

                     73                     74                     75
                      A                      A                      A
 Frequencies --   1283.3110              1310.3714              1317.5571
 Red. masses --      1.7215                 1.5529                 1.5521
 Frc consts  --      1.6704                 1.5710                 1.5874
 IR Inten    --      8.3395                 3.3776                 2.3660

                     76                     77                     78
                      A                      A                      A
 Frequencies --   1319.0348              1348.8675              1349.8634
 Red. masses --      1.4529                 1.6322                 4.8941
 Frc consts  --      1.4894                 1.7497                 5.2542
 IR Inten    --      1.3883                26.2500                 0.4618

                     79                     80                     81
                      A                      A                      A
 Frequencies --   1359.0533              1394.9447              1423.0120
 Red. masses --      1.3218                 1.4763                 3.1463
 Frc consts  --      1.4384                 1.6925                 3.7538
 IR Inten    --      9.0585                 8.1529               150.9407

                     82                     83                     84
                      A                      A                      A
 Frequencies --   1428.0490              1439.2674              1450.2479
 Red. masses --      1.2711                 1.2507                 1.2259
 Frc consts  --      1.5273                 1.5265                 1.5192
 IR Inten    --     14.2490                 3.3930                17.7324

                     85                     86                     87
                      A                      A                      A
 Frequencies --   1487.2872              1497.8988              1503.8124
 Red. masses --      1.9785                 1.0894                 1.0830
 Frc consts  --      2.5785                 1.4401                 1.4430
 IR Inten    --      2.7420                 0.8285                 1.6462

                     88                     89                     90
                      A                      A                      A
 Frequencies --   1511.0467              1515.0658              1519.8421
 Red. masses --      1.0722                 1.0795                 1.0703
 Frc consts  --      1.4424                 1.4599                 1.4566
 IR Inten    --      9.5766                 3.7036                 6.2964

                     91                     92                     93
                      A                      A                      A
 Frequencies --   1525.1729              1529.9357              1539.0186
 Red. masses --      1.1100                 1.0962                 1.0870
 Frc consts  --      1.5213                 1.5118                 1.5169
 IR Inten    --     16.6943                 3.3955                 4.6992

                     94                     95                     96
                      A                      A                      A
 Frequencies --   1546.5635              1548.7840              1557.7140
 Red. masses --      1.9382                 1.1134                 1.0887
 Frc consts  --      2.7314                 1.5735                 1.5564
 IR Inten    --     52.7817                 8.8914                 3.1543

                     97                     98                     99
                      A                      A                      A
 Frequencies --   1638.9196              1648.3778              1661.4988
 Red. masses --      5.5036                 1.2589                 5.5573
 Frc consts  --      8.7098                 2.0154                 9.0388
 IR Inten    --     15.0381                73.1875                 2.2737

                    100                    101                    102
                      A                      A                      A
 Frequencies --   1753.6190              3026.5366              3033.9149
 Red. masses --      6.0702                 1.0755                 1.0678
 Frc consts  --     10.9983                 5.8042                 5.7907
 IR Inten    --    259.9610                43.4355                25.4960

                    103                    104                    105
                      A                      A                      A
 Frequencies --   3055.5314              3056.0109              3063.4642
 Red. masses --      1.0403                 1.0389                 1.0479
 Frc consts  --      5.7227                 5.7165                 5.7943
 IR Inten    --     28.2178                13.5329                17.0429

                    106                    107                    108
                      A                      A                      A
 Frequencies --   3071.6167              3092.2032              3093.4555
 Red. masses --      1.0601                 1.0877                 1.0710
 Frc consts  --      5.8928                 6.1276                 6.0385
 IR Inten    --     45.3085                16.4279                22.0193

                    109                    110                    111
                      A                      A                      A
 Frequencies --   3110.8477              3118.3754              3120.2878
 Red. masses --      1.0996                 1.1006                 1.0992
 Frc consts  --      6.2696                 6.3056                 6.3053
 IR Inten    --     20.9914                15.0005                31.5479

                    112                    113                    114
                      A                      A                      A
 Frequencies --   3125.9493              3129.8845              3144.8167
 Red. masses --      1.0942                 1.0891                 1.1005
 Frc consts  --      6.2994                 6.2858                 6.4126
 IR Inten    --     29.0668                37.0365                20.3771

                    115                    116                    117
                      A                      A                      A
 Frequencies --   3146.4198              3155.5204              3177.9424
 Red. masses --      1.1017                 1.1001                 1.0868
 Frc consts  --      6.4258                 6.4540                 6.4671
 IR Inten    --     19.7141                 4.0706                 9.6392

                    118                    119                    120
                      A                      A                      A
 Frequencies --   3189.0694              3199.0196              3199.3590
 Red. masses --      1.0877                 1.0929                 1.0926
 Frc consts  --      6.5177                 6.5895                 6.5890
 IR Inten    --      5.0367                11.9582                24.3230

                    121                    122                    123
                      A                      A                      A
 Frequencies --   3212.0254              3564.8351              3675.4675
 Red. masses --      1.0978                 1.0466                 1.0998
 Frc consts  --      6.6729                 7.8365                 8.7539
 IR Inten    --     21.9802                22.5837                22.1515

 - Thermochemistry -
 -------------------
 Temperature   298.150 Kelvin.  Pressure   1.00000 Atm.
 Atom     1 has atomic number  6 and mass  12.00000

 Molecular mass:   289.16127 amu.
 Principal axes and moments of inertia in atomic units:
                           1         2         3
     Eigenvalues --  3751.088176845.631937505.72380
           X            0.99982   0.01731   0.00798
           Y           -0.01750   0.99953   0.02534
           Z           -0.00754  -0.02547   0.99965
 This molecule is an asymmetric top.
 Rotational symmetry number  1.
 Warning -- assumption of classical behavior for rotation
           may cause significant error
 Rotational temperatures (Kelvin)      0.02309     0.01265     0.01154
 Rotational constants (GHZ):           0.48112     0.26363     0.24045
 Zero-point vibrational energy     979589.4 (Joules/Mol)
                                  234.12748 (Kcal/Mol)
 Warning -- explicit consideration of  32 degrees of freedom as
           vibrations may cause significant error
 Vibrational temperatures:     15.67    91.61   111.76   152.62   176.11
          (Kelvin)            190.46   252.70   260.06   293.68   315.63
                              342.33   353.74   379.85   394.72   424.60
                              430.48   456.68   477.48   521.23   554.63
                              556.03   585.37   611.82   651.18   676.69
                              685.99   724.56   729.60   762.03   807.27
                              839.77   879.54   904.26   976.84  1000.52
                             1037.06  1070.34  1076.81  1096.49  1119.19
                             1129.39  1178.68  1201.22  1266.97  1284.35
                             1309.91  1363.58  1370.85  1386.09  1398.05
                             1419.74  1426.23  1434.51  1453.87  1475.18
                             1491.03  1504.76  1517.57  1542.28  1554.60
                             1563.53  1641.62  1653.66  1691.77  1715.51
                             1723.31  1726.77  1752.59  1766.32  1791.64
                             1820.17  1825.73  1846.40  1885.33  1895.67
                             1897.80  1940.72  1942.15  1955.37  2007.01
                             2047.40  2054.64  2070.78  2086.58  2139.87
                             2155.14  2163.65  2174.06  2179.84  2186.71
                             2194.38  2201.24  2214.30  2225.16  2228.35
                             2241.20  2358.04  2371.65  2390.53  2523.07
                             4354.51  4365.13  4396.23  4396.92  4407.64
                             4419.37  4448.99  4450.79  4475.82  4486.65
                             4489.40  4497.54  4503.21  4524.69  4527.00
                             4540.09  4572.35  4588.36  4602.68  4603.16
                             4621.39  5129.00  5288.18

 Zero-point correction=                           0.373106 (Hartree/Particle)
 Thermal correction to Energy=                    0.391956
 Thermal correction to Enthalpy=                  0.392900
 Thermal correction to Gibbs Free Energy=         0.326878
 Sum of electronic and zero-point Energies=          -1185.722042
 Sum of electronic and thermal Energies=             -1185.703192
 Sum of electronic and thermal Enthalpies=           -1185.702248
 Sum of electronic and thermal Free Energies=        -1185.768270

                     E (Thermal)             CV                S
                      KCal/Mol        Cal/Mol-Kelvin    Cal/Mol-Kelvin
 Total                  245.956             76.807            138.955
 Electronic               0.000              0.000              0.000
 Translational            0.889              2.981             42.883
 Rotational               0.889              2.981             33.621
 Vibrational            244.179             70.845             62.450
 Vibration     1          0.593              1.987              7.842
 Vibration     2          0.597              1.972              4.340
 Vibration     3          0.599              1.964              3.949
 Vibration     4          0.605              1.944              3.339
 Vibration     5          0.610              1.930              3.062
 Vibration     6          0.612              1.921              2.911
 Vibration     7          0.628              1.872              2.374
 Vibration     8          0.630              1.866              2.321
 Vibration     9          0.640              1.834              2.096
 Vibration    10          0.647              1.812              1.964
 Vibration    11          0.656              1.783              1.818
 Vibration    12          0.660              1.770              1.760
 Vibration    13          0.671              1.739              1.635
 Vibration    14          0.677              1.721              1.569
 Vibration    15          0.689              1.683              1.444
 Vibration    16          0.692              1.675              1.421
 Vibration    17          0.704              1.640              1.323
 Vibration    18          0.714              1.612              1.251
 Vibration    19          0.736              1.550              1.112
 Vibration    20          0.754              1.501              1.018
 Vibration    21          0.755              1.499              1.014
 Vibration    22          0.772              1.455              0.938
 Vibration    23          0.787              1.415              0.874
 Vibration    24          0.811              1.355              0.788
 Vibration    25          0.827              1.316              0.737
 Vibration    26          0.833              1.302              0.719
 Vibration    27          0.859              1.242              0.649
 Vibration    28          0.862              1.234              0.641
 Vibration    29          0.885              1.184              0.588
 Vibration    30          0.917              1.116              0.522
 Vibration    31          0.941              1.067              0.479
 Vibration    32          0.970              1.008              0.431

 Optimization completed.
    -- Stationary point found.
 Normal termination of Gaussian 16 at Sat Dec 12 16:24:27 2020.

 ----------------------------------------------------------------------
 # B3LYP/6-311++G(d,p) empiricaldispersion=gd3bj scf=xqc pop=npa geom=c
 heck
 ----------------------------------------------------------------------

 ---------------------------------------
 CID_79955291_JID_10507_Energie_neutraal
 ---------------------------------------
 Structure from the checkpoint file:  "JID_10507.chk"
 Charge =  0 Multiplicity = 1

 SCF Done:  E(RB3LYP) =  -1186.33371373     A.U. after   15 cycles
 Normal termination of Gaussian 16 at Sat Dec 12 16:36:01 2020.

 ----------------------------------------------------------------------
 # B3LYP/6-311++G(d,p) empiricaldispersion=gd3bj scf=xqc pop=npa geom=c
 heck
 ----------------------------------------------------------------------

 -------------------------------------
 CID_79955291_JID_10507_Energie_kation
 -------------------------------------
 Structure from the checkpoint file:  "JID_10507.chk"
 Charge =  1 Multiplicity = 2

 SCF Done:  E(UB3LYP) =  -1186.05583363     A.U. after   27 cycles
 Normal termination of Gaussian 16 at Sat Dec 12 17:03:50 2020.
 Gaussian 16:  ES64L-G16RevA.03 25-Dec-2016

 ----------------------------------------------------------------------
 # B3LYP/6-311++G(d,p) empiricaldispersion=gd3bj scf=xqc pop=npa geom=c
 heck
 ----------------------------------------------------------------------

 ------------------------------------
 CID_79955291_JID_10507_Energie_anion
 ------------------------------------
 Structure from the checkpoint file:  "JID_10507.chk"
 Charge = -1 Multiplicity = 2

                         Standard orientation:
 ---------------------------------------------------------------------
 Center     Atomic      Atomic             Coordinates (Angstroms)
 Number     Number       Type             X           Y           Z
 ---------------------------------------------------------------------
      1          6           0       -2.011809    0.329798    2.485559
      2          6           0       -2.406412   -0.268797    1.160022
      3          6           0       -3.548834   -1.082197    1.094085
      4          6           0       -4.003042   -1.616570   -0.106744
      5          6           0       -3.325569   -1.322148   -1.291482
      6          6           0       -2.190374   -0.522542   -1.244836
      7          6           0       -1.703127   -0.016916   -0.029238
      8          7           0       -0.507644    0.801163   -0.037354
      9          6           0       -0.570063    1.882998   -0.957217
     10          7           0        0.350098    1.989247   -1.841041
     11          6           0        1.197455    0.805425   -1.700675
     12          6           0        0.853521    0.168932   -0.316291
     13          6           0        0.747127   -1.359629   -0.402477
     14         16           0        2.318153   -2.165091   -0.880702
     15          6           0        3.385977   -1.469826    0.432842
     16          6           0        3.292197    0.051907    0.492570
     17          6           0        1.878849    0.617085    0.794183
     18          6           0        1.996190    2.151739    0.851825
     19          6           0        1.446713    0.146067    2.194150
     20          7           0       -1.653189    2.726396   -0.850866
     21          1           0       -2.896711    0.489051    3.110158
     22          1           0       -1.333496   -0.325902    3.043518
     23          1           0       -1.501031    1.285799    2.350855
     24          1           0       -4.097086   -1.281824    2.011631
     25          1           0       -4.892140   -2.240439   -0.122178
     26          1           0       -3.681272   -1.707513   -2.242536
     27          1           0       -1.666159   -0.264638   -2.160656
     28          1           0        2.249705    1.084199   -1.777220
     29          1           0        1.008497    0.097921   -2.520574
     30          1           0        0.043062   -1.645740   -1.184269
     31          1           0        0.376756   -1.793613    0.529791
     32          1           0        3.128300   -1.928106    1.393147
     33          1           0        4.404368   -1.783184    0.183633
     34          1           0        3.966995    0.412662    1.281269
     35          1           0        3.670106    0.464032   -0.448869
     36          1           0        1.034125    2.607442    1.102372
     37          1           0        2.712970    2.434107    1.631909
     38          1           0        2.338632    2.582112   -0.092739
     39          1           0        1.244748   -0.927008    2.251196
     40          1           0        2.239465    0.367712    2.918288
     41          1           0        0.549717    0.673708    2.512487
     42          1           0       -1.991451    2.882091    0.089885
     43          1           0       -1.556215    3.568970   -1.402682
 ---------------------------------------------------------------------

 SCF Done:  E(UB3LYP) =  -1186.32250115     A.U. after   33 cycles
 SCF Done:  E(UB3LYP) =  -1186.32250115     a.u. after    1 cycles

 The electronic state is 2-A.
 Alpha  occ. eigenvalues --  -88.75256 -14.23846 -14.22943 -14.18309 -10.16684
 Alpha  occ. eigenvalues --  -10.13382 -10.12193 -10.11280 -10.11068 -10.09888
 Alpha  occ. eigenvalues --  -10.09887 -10.09734 -10.08940 -10.08878 -10.08850
 Alpha  occ. eigenvalues --  -10.08584 -10.08469 -10.07030 -10.06318 -10.06182
 Alpha  occ. eigenvalues --   -7.83891  -5.80281  -5.79931  -5.79251  -0.90800
 Alpha  occ. eigenvalues --   -0.81383  -0.79136  -0.76204  -0.75001  -0.69985
 Alpha  occ. eigenvalues --   -0.68683  -0.67596  -0.64899  -0.61509  -0.59752
 Alpha  occ. eigenvalues --   -0.59283  -0.56966  -0.53571  -0.52353  -0.51431
 Alpha  occ. eigenvalues --   -0.49539  -0.47712  -0.44654  -0.44261  -0.40887
 Alpha  occ. eigenvalues --   -0.40648  -0.39076  -0.38598  -0.38144  -0.36448
 Alpha  occ. eigenvalues --   -0.35812  -0.34967  -0.34215  -0.33438  -0.32936
 Alpha  occ. eigenvalues --   -0.32278  -0.32071  -0.31840  -0.31428  -0.29955
 Alpha  occ. eigenvalues --   -0.29831  -0.28586  -0.28043  -0.27221  -0.26981
 Alpha  occ. eigenvalues --   -0.26755  -0.26417  -0.25765  -0.24591  -0.23801
 Alpha  occ. eigenvalues --   -0.22538  -0.22081  -0.18309  -0.17016  -0.16176
 Alpha  occ. eigenvalues --   -0.15674  -0.13986  -0.13075   0.03981
 Alpha virt. eigenvalues --    0.05624   0.06087   0.06453   0.06847   0.07210
 Alpha virt. eigenvalues --    0.07596   0.07896   0.08295   0.09024   0.09461
 Alpha virt. eigenvalues --    0.09875   0.10183   0.10503   0.10912   0.11500

  Beta  occ. eigenvalues --  -88.75255 -14.23845 -14.22898 -14.18297 -10.16678
  Beta  occ. eigenvalues --  -10.13378 -10.12186 -10.11268 -10.11062 -10.09886
  Beta  occ. eigenvalues --  -10.09884 -10.09731 -10.08934 -10.08872 -10.08839
  Beta  occ. eigenvalues --  -10.08573 -10.08453 -10.06990 -10.06295 -10.06164
  Beta  occ. eigenvalues --   -7.83890  -5.80280  -5.79929  -5.79250  -0.90782
  Beta  occ. eigenvalues --   -0.81341  -0.79112  -0.76184  -0.74984  -0.69971
  Beta  occ. eigenvalues --   -0.68655  -0.67575  -0.64875  -0.61483  -0.59702
  Beta  occ. eigenvalues --   -0.59244  -0.56940  -0.53546  -0.52326  -0.51401
  Beta  occ. eigenvalues --   -0.49506  -0.47654  -0.44618  -0.44217  -0.40865
  Beta  occ. eigenvalues --   -0.40611  -0.39048  -0.38571  -0.38126  -0.36420
  Beta  occ. eigenvalues --   -0.35786  -0.34942  -0.34198  -0.33409  -0.32905
  Beta  occ. eigenvalues --   -0.32253  -0.32035  -0.31821  -0.31405  -0.29934
  Beta  occ. eigenvalues --   -0.29796  -0.28564  -0.28021  -0.27199  -0.26956
  Beta  occ. eigenvalues --   -0.26726  -0.26387  -0.25739  -0.24568  -0.23780
  Beta  occ. eigenvalues --   -0.22521  -0.22067  -0.18283  -0.16984  -0.16151
  Beta  occ. eigenvalues --   -0.15640  -0.13972  -0.13056
  Beta virt. eigenvalues --    0.05944   0.06239   0.06496   0.06910   0.07185
  Beta virt. eigenvalues --    0.07459   0.08092   0.08161   0.08597   0.09418
  Beta virt. eigenvalues --    0.09839   0.10045   0.10325   0.10734   0.11362

 Mulliken charges and spin densities:
               1          2
     1  C    2.399157  -3.141139
     2  C   -1.204520   1.539076
     3  C   -0.562035   0.575066
     4  C    0.068089  -0.447312
     5  C   -0.077969  -0.230832
     6  C   -0.245315   0.340149
     7  C    0.218641  -0.526257
     8  N    0.661117   0.039594
     9  C    0.485046  -0.556555
    10  N    0.012649   0.071154
    11  C    0.089879  -0.907758
    12  C   -0.179874  -0.181010
    13  C   -0.302983  -0.308441
    14  S    0.105821  -0.178079
    15  C   -0.358488  -0.547390
    16  C   -0.089251   0.175072
    17  C   -0.535109   0.873186
    18  C   -0.120858  -0.394588
    19  C    0.040126  -0.633795
    20  N   -0.611802   0.313443
    21  H   -0.386301   0.562899
    22  H   -0.046948   0.224005
    23  H   -0.256978   0.427116
    24  H   -0.449093   0.637618
    25  H   -0.313770   0.469160
    26  H    0.008455   0.162790
    27  H    0.110380   0.089562
    28  H    0.248013  -0.075823
    29  H    0.148805   0.021574
    30  H    0.216811   0.024357
    31  H    0.217424   0.014550
    32  H    0.060593   0.142251
    33  H   -0.002317   0.241492
    34  H   -0.028561   0.185432
    35  H    0.024516   0.114865
    36  H   -0.168764   0.343935
    37  H   -0.207560   0.388868
    38  H    0.104727   0.076770
    39  H   -0.092573   0.244976
    40  H   -0.201399   0.380323
    41  H    0.389096  -0.266978
    42  H   -0.119155   0.375718
    43  H   -0.047723   0.340955
 Sum of Mulliken charges =  -1.00000   1.00000

 Dipole moment (field-independent basis, Debye):
    X=              3.6087    Y=             -2.8488    Z=             -4.0723  Tot=              6.1419
 Quadrupole moment (field-independent basis, Debye-Ang):
   XX=           -202.3053   YY=           -184.3385   ZZ=           -181.0002
   XY=              1.4435   XZ=              7.3203   YZ=             -0.2779

 Summary of Natural Population Analysis:

                                       Natural Population
                Natural  -----------------------------------------------
    Atom  No    Charge         Core      Valence    Rydberg      Total
 -----------------------------------------------------------------------
      C    1   -0.29359      0.99963     2.28756    0.00640     3.29359
      C    2   -0.01274      0.99944     2.00234    0.01096     3.01274
      C    3   -0.09459      0.99951     2.08530    0.00978     3.09459
      C    4   -0.09630      0.99956     2.08690    0.00984     3.09630
      C    5   -0.10457      0.99955     2.09520    0.00982     3.10457
      C    6   -0.10290      0.99950     2.09465    0.00875     3.10290
      C    7    0.07647      0.99940     1.90909    0.01504     2.92353
      N    8   -0.29957      0.99963     2.78025    0.01970     3.79957
      C    9    0.31183      0.99956     1.66803    0.02058     2.68817
      N   10   -0.29220      0.99966     2.78301    0.00953     3.79220
      C   11   -0.09934      0.99955     2.08818    0.01161     3.09934
      C   12    0.07665      0.99948     1.90700    0.01687     2.92335
      C   13   -0.26085      0.99950     2.24940    0.01195     3.26085
      S   14    0.09040      4.99963     2.89416    0.01580     7.90960
      C   15   -0.24847      0.99958     2.23863    0.01026     3.24847
      C   16   -0.19471      0.99957     2.18405    0.01109     3.19471
      C   17   -0.04379      0.99952     2.02753    0.01675     3.04379
      C   18   -0.28704      0.99962     2.27975    0.00767     3.28704
      C   19   -0.29125      0.99961     2.28348    0.00816     3.29125
      N   20   -0.39749      0.99969     2.88878    0.00903     3.89749
      H   21    0.10600      0.00000     0.39243    0.00158     0.39400
      H   22    0.10705      0.00000     0.39172    0.00123     0.39295
      H   23    0.10890      0.00000     0.38896    0.00214     0.39110
      H   24    0.10255      0.00000     0.39612    0.00132     0.39745
      H   25    0.10123      0.00000     0.39785    0.00092     0.39877
      H   26    0.10036      0.00000     0.39889    0.00075     0.39964
      H   27    0.10492      0.00000     0.39371    0.00137     0.39508
      H   28    0.09649      0.00000     0.40209    0.00142     0.40351
      H   29    0.09199      0.00000     0.40662    0.00140     0.40801
      H   30    0.11653      0.00000     0.38235    0.00112     0.38347
      H   31    0.10908      0.00000     0.38938    0.00154     0.39092
      H   32    0.10108      0.00000     0.39751    0.00141     0.39892
      H   33    0.10651      0.00000     0.39262    0.00087     0.39349
      H   34    0.10373      0.00000     0.39511    0.00116     0.39627
      H   35    0.10033      0.00000     0.39838    0.00129     0.39967
      H   36    0.10618      0.00000     0.39213    0.00168     0.39382
      H   37    0.10008      0.00000     0.39897    0.00096     0.39992
      H   38    0.10411      0.00000     0.39488    0.00101     0.39589
      H   39    0.09735      0.00000     0.40129    0.00136     0.40265
      H   40    0.10132      0.00000     0.39757    0.00111     0.39868
      H   41    0.10922      0.00000     0.38890    0.00188     0.39078
      H   42    0.19476      0.00000     0.30180    0.00343     0.30524
      H   43    0.19430      0.00000     0.30361    0.00210     0.30570
 =======================================================================
   * Total *    0.00000     23.99120    53.73615    0.27265    78.00000

 Normal termination of Gaussian 16 at Sat Dec 12 17:37:55 2020.
