 Gaussian 16, Revision A.03,

 -----------------------------------------------------------
 # opt freq B3LYP/6-31G(d) empiricaldispersion=gd3bj scf=xqc
 -----------------------------------------------------------

 -----------------------------
 CID_15452518_JID_581_neutraal
 -----------------------------
 Symbolic Z-matrix:
 Charge =  0 Multiplicity = 1

 SCF Done:  E(RB3LYP) =  -492.019890123     A.U. after   15 cycles
 SCF Done:  E(RB3LYP) =  -492.026939912     A.U. after   13 cycles
 SCF Done:  E(RB3LYP) =  -492.026472411     A.U. after   13 cycles
 SCF Done:  E(RB3LYP) =  -492.025944625     A.U. after   13 cycles
 SCF Done:  E(RB3LYP) =  -492.025973857     A.U. after   13 cycles
 SCF Done:  E(RB3LYP) =  -492.027336942     A.U. after   10 cycles
 SCF Done:  E(RB3LYP) =  -492.028256112     A.U. after   12 cycles
 SCF Done:  E(RB3LYP) =  -492.028373913     A.U. after   12 cycles
 SCF Done:  E(RB3LYP) =  -492.028599832     A.U. after   11 cycles
 SCF Done:  E(RB3LYP) =  -492.028753507     A.U. after   11 cycles
 SCF Done:  E(RB3LYP) =  -492.029807644     A.U. after    8 cycles
 SCF Done:  E(RB3LYP) =  -492.029808289     A.U. after    8 cycles
 SCF Done:  E(RB3LYP) =  -492.029808653     A.U. after    8 cycles
 SCF Done:  E(RB3LYP) =  -492.029808875     A.U. after    8 cycles
 SCF Done:  E(RB3LYP) =  -492.029808979     A.U. after    7 cycles
 SCF Done:  E(RB3LYP) =  -492.029809021     A.U. after    7 cycles
 Optimization completed.
    -- Stationary point found.
 Normal termination of Gaussian 16 at Tue Dec  8 12:23:02 2020.

 --------------------------------------------------------------------
 #N Geom=AllCheck Guess=TCheck SCRF=Check GenChk RB3LYP/6-31G(d) Freq
 --------------------------------------------------------------------

 Structure from the checkpoint file:  "JID_581.chk"
 -----------------------------
 CID_15452518_JID_581_neutraal
 -----------------------------
 Charge =  0 Multiplicity = 1

 SCF Done:  E(RB3LYP) =  -492.029809021     A.U. after    1 cycles

  Exact polarizability: 100.004  -7.255  83.089   6.080  -1.127  67.020
 Approx polarizability: 123.484 -15.912 134.336  12.699  -3.197  97.684

                      1                      2                      3
                      A                      A                      A
 Frequencies --     49.8590                85.9433               113.4359
 Red. masses --      4.5345                 2.7692                 1.6523
 Frc consts  --      0.0066                 0.0121                 0.0125
 IR Inten    --      3.7779                 0.1595                 0.9528

                      4                      5                      6
                      A                      A                      A
 Frequencies --    127.9471               156.6098               171.3947
 Red. masses --      2.6644                 1.1060                 4.2765
 Frc consts  --      0.0257                 0.0160                 0.0740
 IR Inten    --      6.2870                 0.0717                 8.7668

                      7                      8                      9
                      A                      A                      A
 Frequencies --    226.8692               245.8388               320.4247
 Red. masses --      2.6008                 3.6745                 4.1759
 Frc consts  --      0.0789                 0.1308                 0.2526
 IR Inten    --      8.1882                 6.0023                15.5124

                     10                     11                     12
                      A                      A                      A
 Frequencies --    344.9133               377.3799               423.2955
 Red. masses --      2.3714                 1.1760                 2.0637
 Frc consts  --      0.1662                 0.0987                 0.2179
 IR Inten    --     33.0238                54.3123                 0.5988

                     13                     14                     15
                      A                      A                      A
 Frequencies --    448.6835               477.9576               504.9065
 Red. masses --      1.8874                 2.6832                 1.5866
 Frc consts  --      0.2239                 0.3612                 0.2383
 IR Inten    --     10.6381                 2.9208                22.6294

                     16                     17                     18
                      A                      A                      A
 Frequencies --    581.7808               607.9391               651.8945
 Red. masses --      4.4117                 3.9104                 2.1322
 Frc consts  --      0.8798                 0.8515                 0.5339
 IR Inten    --     21.1035                 9.8192               107.4750

                     19                     20                     21
                      A                      A                      A
 Frequencies --    728.1295               765.6506               812.5882
 Red. masses --      4.6444                 1.3595                 4.3164
 Frc consts  --      1.4508                 0.4696                 1.6792
 IR Inten    --      2.5140               259.2175               105.0245

                     22                     23                     24
                      A                      A                      A
 Frequencies --    816.0274               905.0203               994.3750
 Red. masses --      2.2953                 3.6512                 3.0398
 Frc consts  --      0.9005                 1.7620                 1.7709
 IR Inten    --    185.6197                 8.0740                 5.7470

                     25                     26                     27
                      A                      A                      A
 Frequencies --   1044.2268              1064.3327              1100.3664
 Red. masses --      1.9155                 2.6225                 1.4175
 Frc consts  --      1.2306                 1.7503                 1.0112
 IR Inten    --     65.4807                 5.6495                 8.1816

                     28                     29                     30
                      A                      A                      A
 Frequencies --   1134.4566              1141.4334              1185.0149
 Red. masses --      1.4105                 1.2210                 1.3882
 Frc consts  --      1.0696                 0.9373                 1.1485
 IR Inten    --     11.3142                 1.8099                 6.8771

                     31                     32                     33
                      A                      A                      A
 Frequencies --   1199.3163              1240.9321              1296.5203
 Red. masses --      1.6580                 1.6084                 1.6077
 Frc consts  --      1.4051                 1.4593                 1.5923
 IR Inten    --     55.8154                14.9208                12.0035

                     34                     35                     36
                      A                      A                      A
 Frequencies --   1299.4848              1366.3199              1448.6460
 Red. masses --      3.7562                 1.3193                 1.4978
 Frc consts  --      3.7371                 1.4512                 1.8520
 IR Inten    --     41.6096                10.1747                51.7488

                     37                     38                     39
                      A                      A                      A
 Frequencies --   1456.8823              1465.2711              1496.5412
 Red. masses --      2.1463                 2.1899                 1.2173
 Frc consts  --      2.6840                 2.7702                 1.6063
 IR Inten    --     87.3629                64.6800                26.2603

                     40                     41                     42
                      A                      A                      A
 Frequencies --   1521.7999              1529.6982              1533.2548
 Red. masses --      1.0561                 1.0787                 1.0476
 Frc consts  --      1.4410                 1.4872                 1.4510
 IR Inten    --     15.0438                10.0835                10.7760

                     43                     44                     45
                      A                      A                      A
 Frequencies --   1553.5861              1564.6707              1662.7830
 Red. masses --      1.0723                 1.3198                 1.2908
 Frc consts  --      1.5248                 1.9038                 2.1028
 IR Inten    --      8.2754                27.4133                36.3816

                     46                     47                     48
                      A                      A                      A
 Frequencies --   1700.7769              1730.7942              1761.0717
 Red. masses --      1.9730                 3.1522                 2.3009
 Frc consts  --      3.3626                 5.5636                 4.2044
 IR Inten    --    224.2499               223.4300               410.2535

                     49                     50                     51
                      A                      A                      A
 Frequencies --   3028.0626              3036.7999              3038.3064
 Red. masses --      1.0430                 1.0499                 1.0535
 Frc consts  --      5.6346                 5.7045                 5.7297
 IR Inten    --     43.8487                79.9420                48.6188

                     52                     53                     54
                      A                      A                      A
 Frequencies --   3083.4281              3086.7096              3093.1550
 Red. masses --      1.1043                 1.1016                 1.0967
 Frc consts  --      6.1860                 6.1840                 6.1822
 IR Inten    --     42.9064                28.5472                21.8023

                     55                     56                     57
                      A                      A                      A
 Frequencies --   3169.3766              3191.4682              3472.1357
 Red. masses --      1.0999                 1.0964                 1.0588
 Frc consts  --      6.5094                 6.5793                 7.5207
 IR Inten    --      0.6696                 1.4791               146.0397

                     58                     59                     60
                      A                      A                      A
 Frequencies --   3529.8130              3617.1499              3635.1021
 Red. masses --      1.0489                 1.0899                 1.0959
 Frc consts  --      7.6998                 8.4016                 8.5317
 IR Inten    --      9.4732                40.2873                13.2135

 - Thermochemistry -
 -------------------
 Temperature   298.150 Kelvin.  Pressure   1.00000 Atm.
 Atom     1 has atomic number  6 and mass  12.00000

 Molecular mass:   144.10111 amu.
 Principal axes and moments of inertia in atomic units:
                           1         2         3
     Eigenvalues --   818.388792118.998032421.64385
           X            0.99980  -0.01929  -0.00565
           Y            0.01916   0.99959  -0.02128
           Z            0.00605   0.02117   0.99976
 This molecule is an asymmetric top.
 Rotational symmetry number  1.
 Warning -- assumption of classical behavior for rotation
           may cause significant error
 Rotational temperatures (Kelvin)      0.10583     0.04087     0.03577
 Rotational constants (GHZ):           2.20524     0.85170     0.74525
 Zero-point vibrational energy     498953.7 (Joules/Mol)
                                  119.25281 (Kcal/Mol)
 Warning -- explicit consideration of  17 degrees of freedom as
           vibrations may cause significant error
 Vibrational temperatures:     71.74   123.65   163.21   184.09   225.33
          (Kelvin)            246.60   326.41   353.71   461.02   496.25
                              542.97   609.03   645.56   687.67   726.45
                              837.05   874.69   937.93  1047.62  1101.60
                             1169.13  1174.08  1302.12  1430.68  1502.41
                             1531.34  1583.18  1632.23  1642.27  1704.97
                             1725.55  1785.42  1865.40  1869.67  1965.83
                             2084.28  2096.13  2108.20  2153.19  2189.53
                             2200.89  2206.01  2235.26  2251.21  2392.37
                             2447.04  2490.23  2533.79  4356.71  4369.28
                             4371.45  4436.37  4441.09  4450.36  4560.03
                             4591.81  4995.63  5078.61  5204.27  5230.10

 Zero-point correction=                           0.190041 (Hartree/Particle)
 Thermal correction to Energy=                    0.201370
 Thermal correction to Enthalpy=                  0.202315
 Thermal correction to Gibbs Free Energy=         0.153038
 Sum of electronic and zero-point Energies=           -491.839768
 Sum of electronic and thermal Energies=              -491.828439
 Sum of electronic and thermal Enthalpies=            -491.827495
 Sum of electronic and thermal Free Energies=         -491.876771

                     E (Thermal)             CV                S
                      KCal/Mol        Cal/Mol-Kelvin    Cal/Mol-Kelvin
 Total                  126.362             41.032            103.711
 Electronic               0.000              0.000              0.000
 Translational            0.889              2.981             40.807
 Rotational               0.889              2.981             29.819
 Vibrational            124.584             35.071             33.084
 Vibration     1          0.595              1.978              4.823
 Vibration     2          0.601              1.959              3.750
 Vibration     3          0.607              1.938              3.209
 Vibration     4          0.611              1.925              2.977
 Vibration     5          0.620              1.895              2.590
 Vibration     6          0.626              1.878              2.420
 Vibration     7          0.651              1.800              1.904
 Vibration     8          0.660              1.770              1.760
 Vibration     9          0.706              1.634              1.308
 Vibration    10          0.723              1.586              1.189
 Vibration    11          0.748              1.518              1.050
 Vibration    12          0.785              1.420              0.881
 Vibration    13          0.808              1.364              0.800
 Vibration    14          0.834              1.299              0.716
 Vibration    15          0.860              1.239              0.646
 Vibration    16          0.939              1.071              0.482
 Vibration    17          0.967              1.015              0.436

 Optimization completed.
    -- Stationary point found.
 Normal termination of Gaussian 16 at Tue Dec  8 12:27:11 2020.

 ----------------------------------------------------------------------
 # B3LYP/6-311++G(d,p) empiricaldispersion=gd3bj scf=xqc pop=npa geom=c
 heck
 ----------------------------------------------------------------------

 -------------------------------------
 CID_15452518_JID_581_Energie_neutraal
 -------------------------------------
 Structure from the checkpoint file:  "JID_581.chk"
 Charge =  0 Multiplicity = 1

 SCF Done:  E(RB3LYP) =  -492.188658698     A.U. after   14 cycles
 Normal termination of Gaussian 16 at Tue Dec  8 12:29:34 2020.

 ----------------------------------------------------------------------
 # B3LYP/6-311++G(d,p) empiricaldispersion=gd3bj scf=xqc pop=npa geom=c
 heck
 ----------------------------------------------------------------------

 -----------------------------------
 CID_15452518_JID_581_Energie_kation
 -----------------------------------
 Structure from the checkpoint file:  "JID_581.chk"
 Charge =  1 Multiplicity = 2

 SCF Done:  E(UB3LYP) =  -491.891849419     A.U. after   23 cycles
 Normal termination of Gaussian 16 at Tue Dec  8 12:40:15 2020.
 Gaussian 16:  ES64L-G16RevA.03 25-Dec-2016

 ----------------------------------------------------------------------
 # B3LYP/6-311++G(d,p) empiricaldispersion=gd3bj scf=xqc pop=npa geom=c
 heck
 ----------------------------------------------------------------------

 ----------------------------------
 CID_15452518_JID_581_Energie_anion
 ----------------------------------
 Structure from the checkpoint file:  "JID_581.chk"
 Charge = -1 Multiplicity = 2

                         Standard orientation:
 ---------------------------------------------------------------------
 Center     Atomic      Atomic             Coordinates (Angstroms)
 Number     Number       Type             X           Y           Z
 ---------------------------------------------------------------------
      1          6           0        2.827244    0.351636   -0.971869
      2          7           0        1.803491   -0.234584   -0.122224
      3          6           0        1.822487   -1.683398    0.024059
      4          6           0        0.868192    0.569329    0.455280
      5          8           0        0.810585    1.786584    0.233633
      6          6           0       -0.172095   -0.094110    1.364470
      7          7           0       -1.180559   -0.834951    0.614884
      8          6           0       -1.989879   -0.146436   -0.116515
      9          7           0       -2.067542    1.232777   -0.214392
     10          7           0       -2.923972   -0.824644   -0.904771
     11          1           0        3.825701    0.083371   -0.604215
     12          1           0        2.708115    1.433980   -0.956621
     13          1           0        2.728478   -0.012694   -2.002741
     14          1           0        0.829249   -2.051047    0.283049
     15          1           0        2.102755   -2.128634   -0.937031
     16          1           0        2.555550   -2.007815    0.775676
     17          1           0        0.313268   -0.787709    2.059261
     18          1           0       -0.602291    0.719087    1.964269
     19          1           0       -2.473113    1.567624   -1.079794
     20          1           0       -1.210709    1.731774    0.022143
     21          1           0       -2.974323   -1.799255   -0.629804
     22          1           0       -3.842979   -0.393678   -0.910283
 ---------------------------------------------------------------------

 SCF Done:  E(UB3LYP) =  -492.174477843     A.U. after   30 cycles

 The electronic state is 2-A.
 Alpha  occ. eigenvalues --  -18.98722 -14.24495 -14.21406 -14.20900 -14.17133
 Alpha  occ. eigenvalues --  -10.16803 -10.16225 -10.09607 -10.09583 -10.09390
 Alpha  occ. eigenvalues --   -0.93748  -0.87162  -0.83607  -0.76556  -0.76232
 Alpha  occ. eigenvalues --   -0.63501  -0.61238  -0.57639  -0.48389  -0.44454
 Alpha  occ. eigenvalues --   -0.43382  -0.42330  -0.39101  -0.37743  -0.37434
 Alpha  occ. eigenvalues --   -0.34927  -0.34049  -0.31366  -0.30435  -0.30359
 Alpha  occ. eigenvalues --   -0.29948  -0.27813  -0.27706  -0.26456  -0.17987
 Alpha  occ. eigenvalues --   -0.16966  -0.15123  -0.14473  -0.11994   0.04537
 Alpha virt. eigenvalues --    0.06129   0.08139   0.08661   0.09216   0.09648
 Alpha virt. eigenvalues --    0.11128   0.11532   0.11675   0.12455   0.13037
 Alpha virt. eigenvalues --    0.13361   0.14053   0.15323   0.16092   0.16148

  Beta  occ. eigenvalues --  -18.98715 -14.24493 -14.21368 -14.20838 -14.17119
  Beta  occ. eigenvalues --  -10.16801 -10.16224 -10.09599 -10.09543 -10.09351
  Beta  occ. eigenvalues --   -0.93739  -0.87122  -0.83594  -0.76475  -0.76184
  Beta  occ. eigenvalues --   -0.63458  -0.61183  -0.57583  -0.48322  -0.44405
  Beta  occ. eigenvalues --   -0.43345  -0.42248  -0.39056  -0.37698  -0.37393
  Beta  occ. eigenvalues --   -0.34872  -0.34007  -0.31336  -0.30403  -0.30322
  Beta  occ. eigenvalues --   -0.29906  -0.27776  -0.27669  -0.26435  -0.17968
  Beta  occ. eigenvalues --   -0.16912  -0.15088  -0.14449  -0.11969
  Beta virt. eigenvalues --    0.07018   0.07830   0.08747   0.09217   0.09908
  Beta virt. eigenvalues --    0.10242   0.11596   0.11729   0.12189   0.12700
  Beta virt. eigenvalues --    0.13320   0.13819   0.14171   0.15470   0.16148

 Mulliken charges and spin densities:
               1          2
     1  C    0.735024  -0.999719
     2  N   -0.202957   0.282170
     3  C    0.799800  -1.199053
     4  C   -0.592107   0.653476
     5  O   -0.354826   0.001837
     6  C    0.401280  -1.094659
     7  N   -0.086174  -0.034119
     8  C    0.632086  -0.678126
     9  N   -0.211928  -0.139266
    10  N   -0.484954   0.218980
    11  H   -0.367345   0.518767
    12  H   -0.048409   0.217184
    13  H   -0.252094   0.405952
    14  H    0.078732   0.117895
    15  H   -0.321148   0.466536
    16  H   -0.412742   0.579310
    17  H    0.143716   0.035324
    18  H    0.018215   0.172470
    19  H   -0.199989   0.455984
    20  H    0.317943  -0.074917
    21  H   -0.049085   0.298469
    22  H   -0.543037   0.795505
 Sum of Mulliken charges =  -1.00000   1.00000

 Dipole moment (field-independent basis, Debye):
    X=              1.4067    Y=              1.4251    Z=              2.6115  Tot=              3.2908
 Quadrupole moment (field-independent basis, Debye-Ang):
   XX=           -135.7801   YY=            -95.9705   ZZ=            -89.5213
   XY=              3.5496   XZ=             -4.6222   YZ=             -1.1037

 Summary of Natural Population Analysis:

                                       Natural Population
                Natural  -----------------------------------------------
    Atom  No    Charge         Core      Valence    Rydberg      Total
 -----------------------------------------------------------------------
      C    1   -0.17930      0.99964     2.17134    0.00832     3.17930
      N    2   -0.24600      0.99965     2.73569    0.01066     3.74600
      C    3   -0.18037      0.99963     2.17248    0.00826     3.18037
      C    4    0.34203      0.99963     1.63651    0.02184     2.65797
      O    5   -0.34717      0.99988     3.34156    0.00573     4.34717
      C    6   -0.13848      0.99957     2.12827    0.01064     3.13848
      N    7   -0.31754      0.99965     2.80582    0.01207     3.81754
      C    8    0.30882      0.99963     1.67461    0.01694     2.69118
      N    9   -0.41963      0.99970     2.91016    0.00976     3.91963
      N   10   -0.40510      0.99972     2.89508    0.01029     3.90510
      H   11    0.09453      0.00000     0.40384    0.00163     0.40547
      H   12    0.11392      0.00000     0.38491    0.00117     0.38608
      H   13    0.09479      0.00000     0.40388    0.00133     0.40521
      H   14    0.11482      0.00000     0.38317    0.00201     0.38518
      H   15    0.09849      0.00000     0.39989    0.00161     0.40151
      H   16    0.09210      0.00000     0.40601    0.00189     0.40790
      H   17    0.09960      0.00000     0.39874    0.00166     0.40040
      H   18    0.09729      0.00000     0.40122    0.00149     0.40271
      H   19    0.19158      0.00000     0.30600    0.00242     0.30842
      H   20    0.20555      0.00000     0.29184    0.00261     0.29445
      H   21    0.19138      0.00000     0.30538    0.00324     0.30862
      H   22    0.18867      0.00000     0.30035    0.01097     0.31133
 =======================================================================
   * Total *    0.00000      9.99668    28.85677    0.14655    39.00000

 Normal termination of Gaussian 16 at Tue Dec  8 12:49:37 2020.
