 Gaussian 16, Revision A.03,

 -----------------------------------------------------------
 # opt freq B3LYP/6-31G(d) empiricaldispersion=gd3bj scf=xqc
 -----------------------------------------------------------

 ----------------------------
 CID_760500_JID_6626_neutraal
 ----------------------------
 Symbolic Z-matrix:
 Charge =  0 Multiplicity = 1

 SCF Done:  E(RB3LYP) =  -684.720175718     A.U. after   16 cycles
 SCF Done:  E(RB3LYP) =  -684.704565846     A.U. after   14 cycles
 SCF Done:  E(RB3LYP) =  -684.724408034     A.U. after   14 cycles
 SCF Done:  E(RB3LYP) =  -684.726745741     A.U. after   12 cycles
 SCF Done:  E(RB3LYP) =  -684.727138965     A.U. after   11 cycles
 SCF Done:  E(RB3LYP) =  -684.727375997     A.U. after   12 cycles
 SCF Done:  E(RB3LYP) =  -684.727497114     A.U. after   12 cycles
 SCF Done:  E(RB3LYP) =  -684.727595676     A.U. after   11 cycles
 SCF Done:  E(RB3LYP) =  -684.727738749     A.U. after   12 cycles
 SCF Done:  E(RB3LYP) =  -684.727802899     A.U. after   11 cycles
 SCF Done:  E(RB3LYP) =  -684.727905503     A.U. after    8 cycles
 SCF Done:  E(RB3LYP) =  -684.727905486     A.U. after    7 cycles
 SCF Done:  E(RB3LYP) =  -684.727905557     A.U. after    7 cycles
 SCF Done:  E(RB3LYP) =  -684.727905530     A.U. after    6 cycles
 SCF Done:  E(RB3LYP) =  -684.727905561     A.U. after    6 cycles
 Optimization completed.
    -- Stationary point found.
 Normal termination of Gaussian 16 at Fri Dec 11 00:10:34 2020.

 --------------------------------------------------------------------
 #N Geom=AllCheck Guess=TCheck SCRF=Check GenChk RB3LYP/6-31G(d) Freq
 --------------------------------------------------------------------

 Structure from the checkpoint file:  "JID_6626.chk"
 ----------------------------
 CID_760500_JID_6626_neutraal
 ----------------------------
 Charge =  0 Multiplicity = 1

 SCF Done:  E(RB3LYP) =  -684.727905561     A.U. after    1 cycles

  Exact polarizability: 196.364  -0.745 143.762   9.590   7.460 108.564
 Approx polarizability: 290.216   2.433 261.126  17.216  19.479 161.590

                      1                      2                      3
                      A                      A                      A
 Frequencies --     20.0880                26.3313                44.2692
 Red. masses --      3.2472                 1.0773                 5.1082
 Frc consts  --      0.0008                 0.0004                 0.0059
 IR Inten    --      0.2120                 0.3600                 2.8351

                      4                      5                      6
                      A                      A                      A
 Frequencies --     64.8585               102.3225               126.3902
 Red. masses --      3.9510                 4.1280                 1.3991
 Frc consts  --      0.0098                 0.0255                 0.0132
 IR Inten    --      1.1058                 2.5869                 0.9069

                      7                      8                      9
                      A                      A                      A
 Frequencies --    133.5855               156.4676               177.1083
 Red. masses --      1.0809                 1.7221                 3.8026
 Frc consts  --      0.0114                 0.0248                 0.0703
 IR Inten    --      0.0371                 2.5604                 0.4251

                     10                     11                     12
                      A                      A                      A
 Frequencies --    210.0514               257.6721               277.1693
 Red. masses --      3.6720                 2.8023                 4.3280
 Frc consts  --      0.0955                 0.1096                 0.1959
 IR Inten    --      0.7403                 4.8743                 3.3340

                     13                     14                     15
                      A                      A                      A
 Frequencies --    311.0099               328.3877               367.3442
 Red. masses --      4.8899                 3.7557                 2.9324
 Frc consts  --      0.2787                 0.2386                 0.2331
 IR Inten    --      0.1178                 0.4399                 0.6950

                     16                     17                     18
                      A                      A                      A
 Frequencies --    414.9507               424.8877               452.9290
 Red. masses --      3.1600                 3.3295                 5.3440
 Frc consts  --      0.3206                 0.3541                 0.6459
 IR Inten    --      0.4095                 0.4905                 1.2511

                     19                     20                     21
                      A                      A                      A
 Frequencies --    500.1789               585.1514               595.2919
 Red. masses --      3.0757                 4.8567                 3.8668
 Frc consts  --      0.4534                 0.9798                 0.8073
 IR Inten    --      0.3404                11.3815                28.6128

                     22                     23                     24
                      A                      A                      A
 Frequencies --    645.6786               654.9468               679.6521
 Red. masses --      5.5843                 5.8293                 7.5994
 Frc consts  --      1.3717                 1.4733                 2.0683
 IR Inten    --      5.6381                 1.2277                 3.5087

                     25                     26                     27
                      A                      A                      A
 Frequencies --    687.4346               700.5989               728.5479
 Red. masses --      5.4456                 5.4349                 3.3791
 Frc consts  --      1.5162                 1.5718                 1.0567
 IR Inten    --      0.2818                 0.9029                 3.3072

                     28                     29                     30
                      A                      A                      A
 Frequencies --    778.6349               823.2577               833.4889
 Red. masses --      4.8344                 3.2829                 1.6811
 Frc consts  --      1.7269                 1.3109                 0.6881
 IR Inten    --      2.3384                 6.4361                19.4534

                     31                     32                     33
                      A                      A                      A
 Frequencies --    857.6658               892.8535               960.2294
 Red. masses --      1.2582                 4.6246                 1.3041
 Frc consts  --      0.5453                 2.1721                 0.7084
 IR Inten    --      1.0303                19.8439                 0.8643

                     34                     35                     36
                      A                      A                      A
 Frequencies --    980.9915               995.9680              1003.2440
 Red. masses --      1.3870                 1.4593                 1.6153
 Frc consts  --      0.7864                 0.8529                 0.9579
 IR Inten    --      2.3446                 3.6441                 6.8543

                     37                     38                     39
                      A                      A                      A
 Frequencies --   1024.6190              1040.3201              1046.4061
 Red. masses --      1.4148                 2.8561                 1.9841
 Frc consts  --      0.8751                 1.8212                 1.2800
 IR Inten    --      3.4685                 2.6881                 2.1621

                     40                     41                     42
                      A                      A                      A
 Frequencies --   1074.7845              1078.9746              1081.2352
 Red. masses --      1.5501                 1.9206                 2.2857
 Frc consts  --      1.0550                 1.3174                 1.5743
 IR Inten    --      9.3268                 0.6918                 4.1522

                     43                     44                     45
                      A                      A                      A
 Frequencies --   1085.1408              1085.8720              1166.3935
 Red. masses --      2.3996                 2.5163                 1.3916
 Frc consts  --      1.6648                 1.7481                 1.1155
 IR Inten    --      2.3390                 3.6963                 3.0938

                     46                     47                     48
                      A                      A                      A
 Frequencies --   1214.8512              1233.7777              1246.8073
 Red. masses --      2.7583                 1.6941                 2.8241
 Frc consts  --      2.3985                 1.5193                 2.5866
 IR Inten    --     39.3067                 3.5776                 9.9522

                     49                     50                     51
                      A                      A                      A
 Frequencies --   1254.2249              1350.4524              1360.2205
 Red. masses --      2.6565                 2.8344                 5.9925
 Frc consts  --      2.4622                 3.0456                 6.5324
 IR Inten    --      1.0559                12.8651                 6.5209

                     52                     53                     54
                      A                      A                      A
 Frequencies --   1361.7759              1425.2146              1428.7874
 Red. masses --      1.9367                 1.4473                 1.5908
 Frc consts  --      2.1160                 1.7321                 1.9134
 IR Inten    --      3.8148                22.2972                18.9107

                     55                     56                     57
                      A                      A                      A
 Frequencies --   1434.2552              1442.4037              1453.5636
 Red. masses --      1.2513                 1.2488                 2.1307
 Frc consts  --      1.5166                 1.5308                 2.6524
 IR Inten    --      2.0308                 0.9590                66.1726

                     58                     59                     60
                      A                      A                      A
 Frequencies --   1466.2906              1506.9570              1507.7183
 Red. masses --      2.2467                 1.0493                 1.0642
 Frc consts  --      2.8460                 1.4040                 1.4253
 IR Inten    --     27.5357                 3.9991                 8.2241

                     61                     62                     63
                      A                      A                      A
 Frequencies --   1514.1304              1515.9615              1519.9033
 Red. masses --      1.0537                 1.1515                 1.1620
 Frc consts  --      1.4233                 1.5591                 1.5816
 IR Inten    --      7.0866                 0.2970                11.7749

                     64                     65                     66
                      A                      A                      A
 Frequencies --   1521.1654              1562.0291              1572.7126
 Red. masses --      1.4088                 2.3680                 3.9004
 Frc consts  --      1.9207                 3.4042                 5.6840
 IR Inten    --      8.0245                 3.8335                 9.8208

                     67                     68                     69
                      A                      A                      A
 Frequencies --   1583.3528              1618.9517              1667.5181
 Red. masses --      6.5595                 5.2596                 5.7752
 Frc consts  --      9.6889                 8.1221                 9.4615
 IR Inten    --     30.2568                10.3356               132.4772

                     70                     71                     72
                      A                      A                      A
 Frequencies --   1688.7632              3048.2494              3053.9791
 Red. masses --      7.5943                 1.0390                 1.0395
 Frc consts  --     12.7608                 5.6879                 5.7120
 IR Inten    --     56.2621                19.9961                20.6725

                     73                     74                     75
                      A                      A                      A
 Frequencies --   3057.0963              3104.6920              3107.3884
 Red. masses --      1.0381                 1.0980                 1.1000
 Frc consts  --      5.7161                 6.2360                 6.2581
 IR Inten    --     14.6473                15.1929                10.5455

                     76                     77                     78
                      A                      A                      A
 Frequencies --   3111.2208              3134.1568              3145.6816
 Red. masses --      1.1015                 1.1023                 1.0877
 Frc consts  --      6.2822                 6.3797                 6.3414
 IR Inten    --     12.0871                14.9009                15.6977

                     79                     80                     81
                      A                      A                      A
 Frequencies --   3163.2560              3164.5832              3182.6141
 Red. masses --      1.0997                 1.0999                 1.0872
 Frc consts  --      6.4833                 6.4898                 6.4885
 IR Inten    --      4.0794                 5.3790                 8.9828

                     82                     83                     84
                      A                      A                      A
 Frequencies --   3193.0584              3200.0403              3264.4162
 Red. masses --      1.0904                 1.0945                 1.0917
 Frc consts  --      6.5500                 6.6033                 6.8546
 IR Inten    --     10.0764                19.0897                 1.5718

 - Thermochemistry -
 -------------------
 Temperature   298.150 Kelvin.  Pressure   1.00000 Atm.
 Atom     1 has atomic number  6 and mass  12.00000

 Molecular mass:   214.12185 amu.
 Principal axes and moments of inertia in atomic units:
                           1         2         3
     Eigenvalues --  1838.217265419.498075643.29854
           X            0.99979  -0.01920   0.00720
           Y            0.01908   0.99968   0.01659
           Z           -0.00752  -0.01645   0.99984
 This molecule is an asymmetric top.
 Rotational symmetry number  1.
 Warning -- assumption of classical behavior for rotation
           may cause significant error
 Rotational temperatures (Kelvin)      0.04712     0.01598     0.01535
 Rotational constants (GHZ):           0.98179     0.33301     0.31980
 Zero-point vibrational energy     645179.6 (Joules/Mol)
                                  154.20162 (Kcal/Mol)
 Warning -- explicit consideration of  21 degrees of freedom as
           vibrations may cause significant error
 Vibrational temperatures:     28.90    37.88    63.69    93.32   147.22
          (Kelvin)            181.85   192.20   225.12   254.82   302.22
                              370.73   398.78   447.47   472.48   528.53
                              597.02   611.32   651.66   719.65   841.90
                              856.49   928.99   942.32   977.87   989.07
                             1008.01  1048.22  1120.28  1184.48  1199.20
                             1233.99  1284.62  1381.56  1411.43  1432.98
                             1443.44  1474.20  1496.79  1505.54  1546.38
                             1552.40  1555.66  1561.28  1562.33  1678.18
                             1747.90  1775.13  1793.88  1804.55  1943.00
                             1957.05  1959.29  2050.57  2055.71  2063.57
                             2075.30  2091.35  2109.67  2168.18  2169.27
                             2178.50  2181.13  2186.80  2188.62  2247.41
                             2262.78  2278.09  2329.31  2399.19  2429.75
                             4385.75  4393.99  4398.48  4466.96  4470.84
                             4476.35  4509.35  4525.93  4551.22  4553.13
                             4579.07  4594.10  4604.14  4696.77

 Zero-point correction=                           0.245736 (Hartree/Particle)
 Thermal correction to Energy=                    0.260965
 Thermal correction to Enthalpy=                  0.261909
 Thermal correction to Gibbs Free Energy=         0.201008
 Sum of electronic and zero-point Energies=           -684.482170
 Sum of electronic and thermal Energies=              -684.466941
 Sum of electronic and thermal Enthalpies=            -684.465997
 Sum of electronic and thermal Free Energies=         -684.526897

                     E (Thermal)             CV                S
                      KCal/Mol        Cal/Mol-Kelvin    Cal/Mol-Kelvin
 Total                  163.758             55.934            128.175
 Electronic               0.000              0.000              0.000
 Translational            0.889              2.981             41.988
 Rotational               0.889              2.981             32.397
 Vibrational            161.980             49.972             53.791
 Vibration     1          0.593              1.986              6.625
 Vibration     2          0.593              1.985              6.088
 Vibration     3          0.595              1.980              5.058
 Vibration     4          0.597              1.971              4.304
 Vibration     5          0.604              1.947              3.410
 Vibration     6          0.611              1.927              3.000
 Vibration     7          0.613              1.920              2.894
 Vibration     8          0.620              1.895              2.592
 Vibration     9          0.628              1.871              2.359
 Vibration    10          0.642              1.825              2.043
 Vibration    11          0.667              1.750              1.677
 Vibration    12          0.678              1.716              1.551
 Vibration    13          0.700              1.653              1.357
 Vibration    14          0.712              1.619              1.268
 Vibration    15          0.740              1.539              1.091
 Vibration    16          0.778              1.438              0.909
 Vibration    17          0.787              1.416              0.876
 Vibration    18          0.811              1.354              0.787
 Vibration    19          0.856              1.250              0.658
 Vibration    20          0.942              1.063              0.476
 Vibration    21          0.953              1.042              0.458

 Optimization completed.
    -- Stationary point found.
 Normal termination of Gaussian 16 at Fri Dec 11 00:20:24 2020.

 ----------------------------------------------------------------------
 # B3LYP/6-311++G(d,p) empiricaldispersion=gd3bj scf=xqc pop=npa geom=c
 heck
 ----------------------------------------------------------------------

 ------------------------------------
 CID_760500_JID_6626_Energie_neutraal
 ------------------------------------
 Structure from the checkpoint file:  "JID_6626.chk"
 Charge =  0 Multiplicity = 1

 SCF Done:  E(RB3LYP) =  -684.903764018     A.U. after   16 cycles
 Normal termination of Gaussian 16 at Fri Dec 11 00:25:07 2020.

 ----------------------------------------------------------------------
 # B3LYP/6-311++G(d,p) empiricaldispersion=gd3bj scf=xqc pop=npa geom=c
 heck
 ----------------------------------------------------------------------

 ----------------------------------
 CID_760500_JID_6626_Energie_kation
 ----------------------------------
 Structure from the checkpoint file:  "JID_6626.chk"
 Charge =  1 Multiplicity = 2

 SCF Done:  E(UB3LYP) =  -684.593574487     A.U. after   33 cycles
 SCF Done:  E(UB3LYP) =  -684.593574487     a.u. after    1 cycles
 Normal termination of Gaussian 16 at Fri Dec 11 00:39:10 2020.
 Gaussian 16:  ES64L-G16RevA.03 25-Dec-2016

 ----------------------------------------------------------------------
 # B3LYP/6-311++G(d,p) empiricaldispersion=gd3bj scf=xqc pop=npa geom=c
 heck
 ----------------------------------------------------------------------

 ---------------------------------
 CID_760500_JID_6626_Energie_anion
 ---------------------------------
 Structure from the checkpoint file:  "JID_6626.chk"
 Charge = -1 Multiplicity = 2

                         Standard orientation:
 ---------------------------------------------------------------------
 Center     Atomic      Atomic             Coordinates (Angstroms)
 Number     Number       Type             X           Y           Z
 ---------------------------------------------------------------------
      1          6           0        4.542937   -1.336374   -0.402868
      2          6           0        3.287997   -0.509550   -0.293929
      3          6           0        2.039170   -1.059102   -0.622310
      4          6           0        0.865346   -0.328166   -0.499754
      5          6           0        0.906678    1.006779   -0.044826
      6          6           0        2.161271    1.565397    0.256165
      7          6           0        3.328625    0.818674    0.143985
      8          6           0       -0.250391    1.898941    0.104496
      9          7           0       -1.521004    1.700643    0.178883
     10          7           0       -1.920100    0.352979    0.170738
     11          6           0       -2.617260   -0.263707   -0.838051
     12          7           0       -2.876195   -1.505193   -0.483827
     13          7           0       -2.378935   -1.695035    0.793612
     14          6           0       -1.810525   -0.574421    1.182692
     15          6           0       -1.156917   -0.313517    2.493336
     16          6           0       -2.964795    0.399128   -2.123660
     17          1           0        4.594618   -2.075687    0.406590
     18          1           0        4.573104   -1.891025   -1.347108
     19          1           0        5.440476   -0.713949   -0.342236
     20          1           0        1.985419   -2.083913   -0.980013
     21          1           0       -0.069743   -0.797468   -0.772324
     22          1           0        2.215819    2.599092    0.588230
     23          1           0        4.283945    1.272955    0.392436
     24          1           0        0.004037    2.958132    0.173775
     25          1           0       -1.335600   -1.173741    3.141385
     26          1           0       -0.075020   -0.173719    2.387808
     27          1           0       -1.566658    0.583777    2.970483
     28          1           0       -2.068489    0.679212   -2.690058
     29          1           0       -3.556395   -0.294860   -2.723773
     30          1           0       -3.544694    1.312952   -1.952692
 ---------------------------------------------------------------------

 SCF Done:  E(UB3LYP) =  -684.930091606     A.U. after   24 cycles

 The electronic state is 2-A.
 Alpha  occ. eigenvalues --  -14.25362 -14.18310 -14.18195 -14.17103 -10.09847
 Alpha  occ. eigenvalues --  -10.09785 -10.06328 -10.05649 -10.05494 -10.04881
 Alpha  occ. eigenvalues --  -10.03672 -10.03532 -10.03438 -10.03372 -10.03306
 Alpha  occ. eigenvalues --  -10.02761  -0.93143  -0.83095  -0.72510  -0.70263
 Alpha  occ. eigenvalues --   -0.69924  -0.64600  -0.61922  -0.61096  -0.58169
 Alpha  occ. eigenvalues --   -0.57163  -0.50619  -0.47551  -0.47124  -0.45661
 Alpha  occ. eigenvalues --   -0.42095  -0.39091  -0.36274  -0.33550  -0.33127
 Alpha  occ. eigenvalues --   -0.32526  -0.31015  -0.30807  -0.30697  -0.30524
 Alpha  occ. eigenvalues --   -0.28931  -0.28616  -0.28600  -0.27443  -0.26706
 Alpha  occ. eigenvalues --   -0.25847  -0.23758  -0.22684  -0.20548  -0.19999
 Alpha  occ. eigenvalues --   -0.19080  -0.17322  -0.12993  -0.12685  -0.11690
 Alpha  occ. eigenvalues --   -0.11197  -0.10107   0.03309
 Alpha virt. eigenvalues --    0.07854   0.09069   0.09417   0.09951   0.10873
 Alpha virt. eigenvalues --    0.11255   0.11411   0.11591   0.12837   0.12852
 Alpha virt. eigenvalues --    0.13435   0.13617   0.14507   0.14803   0.14910

  Beta  occ. eigenvalues --  -14.25389 -14.18304 -14.18185 -14.16534 -10.09816
  Beta  occ. eigenvalues --  -10.09755 -10.06328 -10.05650 -10.05526 -10.04531
  Beta  occ. eigenvalues --  -10.03747 -10.03639 -10.03261 -10.03167 -10.03036
  Beta  occ. eigenvalues --  -10.02530  -0.93024  -0.82595  -0.72120  -0.70177
  Beta  occ. eigenvalues --   -0.69487  -0.64152  -0.61894  -0.60808  -0.58154
  Beta  occ. eigenvalues --   -0.56864  -0.50070  -0.47416  -0.46962  -0.45183
  Beta  occ. eigenvalues --   -0.41935  -0.38884  -0.36101  -0.33437  -0.32863
  Beta  occ. eigenvalues --   -0.32368  -0.30913  -0.30746  -0.30393  -0.30309
  Beta  occ. eigenvalues --   -0.28833  -0.28547  -0.28472  -0.27382  -0.26654
  Beta  occ. eigenvalues --   -0.25650  -0.22611  -0.22411  -0.20413  -0.19382
  Beta  occ. eigenvalues --   -0.17766  -0.16834  -0.12581  -0.12057  -0.11428
  Beta  occ. eigenvalues --   -0.10352  -0.08786
  Beta virt. eigenvalues --    0.07801   0.09027   0.09382   0.09663   0.10113
  Beta virt. eigenvalues --    0.10974   0.11368   0.11488   0.11881   0.12822
  Beta virt. eigenvalues --    0.12847   0.13429   0.13588   0.14503   0.14812

 Mulliken charges and spin densities:
               1          2
     1  C   -0.632143  -0.033517
     2  C    0.532202   0.248575
     3  C   -0.127437  -0.069982
     4  C   -0.528978   0.220395
     5  C    1.277083  -0.026711
     6  C   -0.483356   0.200894
     7  C   -0.791400  -0.031244
     8  C   -0.812208   0.196198
     9  N   -0.388656   0.272703
    10  N    0.312022  -0.029744
    11  C    0.335401   0.015859
    12  N   -0.124933   0.001455
    13  N   -0.056619   0.004417
    14  C    0.170671  -0.020228
    15  C   -0.803338   0.017522
    16  C   -0.703026   0.002781
    17  H    0.122435   0.032441
    18  H    0.111173   0.013666
    19  H    0.116505   0.002580
    20  H    0.168026   0.006167
    21  H    0.039074  -0.016317
    22  H    0.106659   0.002888
    23  H    0.094503   0.002326
    24  H    0.137698  -0.018219
    25  H    0.147986   0.000747
    26  H    0.159782  -0.000687
    27  H    0.152920   0.002506
    28  H    0.155739   0.001690
    29  H    0.148165   0.000417
    30  H    0.164050   0.000423
 Sum of Mulliken charges =  -1.00000   1.00000

 Dipole moment (field-independent basis, Debye):
    X=              2.6772    Y=              1.7243    Z=             -0.1203  Tot=              3.1867
 Quadrupole moment (field-independent basis, Debye-Ang):
   XX=           -136.4744   YY=           -120.0369   ZZ=           -102.4771
   XY=             -8.6643   XZ=              3.5420   YZ=              0.8054

 Summary of Natural Population Analysis:

                                       Natural Population
                Natural  -----------------------------------------------
    Atom  No    Charge         Core      Valence    Rydberg      Total
 -----------------------------------------------------------------------
      C    1   -0.29358      0.99965     2.28964    0.00429     3.29358
      C    2    0.05315      0.99952     1.93920    0.00812     2.94685
      C    3   -0.13263      0.99953     2.12449    0.00861     3.13263
      C    4   -0.04045      0.99953     2.03271    0.00821     3.04045
      C    5   -0.06504      0.99949     2.05620    0.00935     3.06504
      C    6   -0.04508      0.99955     2.03712    0.00842     3.04508
      C    7   -0.13392      0.99953     2.12586    0.00853     3.13392
      C    8    0.11854      0.99961     1.86729    0.01455     2.88146
      N    9   -0.09668      0.99967     2.58282    0.01418     3.59668
      N   10   -0.13922      0.99953     2.62480    0.01490     3.63922
      C   11    0.17713      0.99961     1.80471    0.01855     2.82287
      N   12   -0.18010      0.99968     2.66694    0.01348     3.68010
      N   13   -0.17857      0.99968     2.66513    0.01376     3.67857
      C   14    0.18040      0.99961     1.80087    0.01912     2.81960
      C   15   -0.30723      0.99963     2.30335    0.00425     3.30723
      C   16   -0.30447      0.99963     2.30056    0.00427     3.30447
      H   17    0.10114      0.00000     0.39789    0.00097     0.39886
      H   18    0.09846      0.00000     0.40061    0.00092     0.40154
      H   19    0.09443      0.00000     0.40467    0.00089     0.40557
      H   20    0.09211      0.00000     0.40657    0.00132     0.40789
      H   21    0.10042      0.00000     0.39788    0.00170     0.39958
      H   22    0.08826      0.00000     0.41020    0.00154     0.41174
      H   23    0.08911      0.00000     0.40983    0.00106     0.41089
      H   24    0.07646      0.00000     0.42206    0.00148     0.42354
      H   25    0.10665      0.00000     0.39243    0.00092     0.39335
      H   26    0.11474      0.00000     0.38433    0.00093     0.38526
      H   27    0.10541      0.00000     0.39359    0.00100     0.39459
      H   28    0.10746      0.00000     0.39154    0.00100     0.39254
      H   29    0.10600      0.00000     0.39309    0.00092     0.39400
      H   30    0.10712      0.00000     0.39185    0.00104     0.39288
 =======================================================================
   * Total *    0.00000     15.99345    40.81825    0.18830    57.00000

 Normal termination of Gaussian 16 at Fri Dec 11 00:48:58 2020.
