 Gaussian 16, Revision A.03,

 -----------------------------------------------------------
 # opt freq B3LYP/6-31G(d) empiricaldispersion=gd3bj scf=xqc
 -----------------------------------------------------------

 ------------------------------
 CID_64579162_JID_3345_neutraal
 ------------------------------
 Symbolic Z-matrix:
 Charge =  0 Multiplicity = 1

 SCF Done:  E(RB3LYP) =  -647.249223501     A.U. after   14 cycles
 SCF Done:  E(RB3LYP) =  -647.253443295     A.U. after   12 cycles
 SCF Done:  E(RB3LYP) =  -647.254041376     A.U. after   12 cycles
 SCF Done:  E(RB3LYP) =  -647.254256149     A.U. after   12 cycles
 SCF Done:  E(RB3LYP) =  -647.254351289     A.U. after   11 cycles
 SCF Done:  E(RB3LYP) =  -647.254498593     A.U. after   11 cycles
 SCF Done:  E(RB3LYP) =  -647.254619580     A.U. after   11 cycles
 SCF Done:  E(RB3LYP) =  -647.254655168     A.U. after   11 cycles
 SCF Done:  E(RB3LYP) =  -647.254663621     A.U. after    9 cycles
 SCF Done:  E(RB3LYP) =  -647.254668961     A.U. after    9 cycles
 SCF Done:  E(RB3LYP) =  -647.254670460     A.U. after    7 cycles
 SCF Done:  E(RB3LYP) =  -647.254670641     A.U. after    8 cycles
 SCF Done:  E(RB3LYP) =  -647.254670757     A.U. after    8 cycles
 SCF Done:  E(RB3LYP) =  -647.254670853     A.U. after    7 cycles
 SCF Done:  E(RB3LYP) =  -647.254670882     A.U. after    6 cycles
 Optimization completed.
    -- Stationary point found.
 Normal termination of Gaussian 16 at Wed Dec  9 22:58:04 2020.

 --------------------------------------------------------------------
 #N Geom=AllCheck Guess=TCheck SCRF=Check GenChk RB3LYP/6-31G(d) Freq
 --------------------------------------------------------------------

 Structure from the checkpoint file:  "JID_3345.chk"
 ------------------------------
 CID_64579162_JID_3345_neutraal
 ------------------------------
 Charge =  0 Multiplicity = 1

 SCF Done:  E(RB3LYP) =  -647.254670882     A.U. after    1 cycles

  Exact polarizability: 139.337  -5.663 103.933 -11.403   1.626  67.100
 Approx polarizability: 168.640  -9.757 174.504 -17.491   6.011 102.114

                      1                      2                      3
                      A                      A                      A
 Frequencies --     28.5497                29.0153                45.7186
 Red. masses --      5.3637                 5.3398                 4.2051
 Frc consts  --      0.0026                 0.0026                 0.0052
 IR Inten    --      1.9880                 0.7710                 8.1637

                      4                      5                      6
                      A                      A                      A
 Frequencies --     62.0187                96.3074               112.3901
 Red. masses --      3.9994                 4.5301                 4.7744
 Frc consts  --      0.0091                 0.0248                 0.0355
 IR Inten    --      5.6489                 0.2162                 2.5322

                      7                      8                      9
                      A                      A                      A
 Frequencies --    140.9082               178.8033               242.5188
 Red. masses --      4.0962                 1.2622                 2.3088
 Frc consts  --      0.0479                 0.0238                 0.0800
 IR Inten    --      4.7499               223.0363                23.7051

                     10                     11                     12
                      A                      A                      A
 Frequencies --    269.2896               305.0828               312.4728
 Red. masses --      2.4681                 2.5052                 2.7359
 Frc consts  --      0.1055                 0.1374                 0.1574
 IR Inten    --      9.3450                34.7740                 1.3885

                     13                     14                     15
                      A                      A                      A
 Frequencies --    351.8737               406.6164               434.4967
 Red. masses --      1.7441                 2.4970                 4.9405
 Frc consts  --      0.1272                 0.2432                 0.5495
 IR Inten    --     94.6458                19.7101                 8.3464

                     16                     17                     18
                      A                      A                      A
 Frequencies --    469.2485               489.5636               622.5265
 Red. masses --      3.2513                 1.5332                 3.0856
 Frc consts  --      0.4218                 0.2165                 0.7045
 IR Inten    --      5.2658                 7.1184                 7.5867

                     19                     20                     21
                      A                      A                      A
 Frequencies --    637.3333               655.6601               667.8851
 Red. masses --      2.8311                 2.1403                 4.2072
 Frc consts  --      0.6776                 0.5421                 1.1057
 IR Inten    --      4.8052                 5.3923                11.4395

                     22                     23                     24
                      A                      A                      A
 Frequencies --    730.5680               784.9290               792.0905
 Red. masses --      3.8011                 2.0605                 2.3087
 Frc consts  --      1.1953                 0.7480                 0.8534
 IR Inten    --      9.5684                48.7171                39.9930

                     25                     26                     27
                      A                      A                      A
 Frequencies --    814.4896               848.4264               861.8635
 Red. masses --      1.6558                 1.7411                 1.4845
 Frc consts  --      0.6472                 0.7384                 0.6497
 IR Inten    --     26.2872                35.3785                15.1722

                     28                     29                     30
                      A                      A                      A
 Frequencies --    937.7102               959.0925               984.6458
 Red. masses --      2.6993                 2.3362                 2.2112
 Frc consts  --      1.3984                 1.2661                 1.2631
 IR Inten    --     40.6679                26.5539                 2.1759

                     31                     32                     33
                      A                      A                      A
 Frequencies --   1010.1902              1014.1289              1047.9088
 Red. masses --      3.0070                 2.9492                 2.2306
 Frc consts  --      1.8080                 1.7871                 1.4432
 IR Inten    --     30.0789                 0.4512                74.6586

                     34                     35                     36
                      A                      A                      A
 Frequencies --   1049.9894              1090.0036              1117.6302
 Red. masses --      2.2806                 1.9705                 2.1805
 Frc consts  --      1.4814                 1.3794                 1.6047
 IR Inten    --     55.4499                 1.6916                22.2625

                     37                     38                     39
                      A                      A                      A
 Frequencies --   1172.0470              1197.1004              1220.2454
 Red. masses --      3.3762                 1.2829                 1.4367
 Frc consts  --      2.7325                 1.0832                 1.2604
 IR Inten    --     31.4433                31.6204                 6.7689

                     40                     41                     42
                      A                      A                      A
 Frequencies --   1239.4311              1271.5078              1280.3911
 Red. masses --      2.6437                 1.6003                 2.8986
 Frc consts  --      2.3928                 1.5244                 2.7997
 IR Inten    --      0.6820                 9.6185                16.8354

                     43                     44                     45
                      A                      A                      A
 Frequencies --   1313.9817              1322.9380              1384.4682
 Red. masses --      1.7446                 1.2922                 1.2430
 Frc consts  --      1.7747                 1.3325                 1.4038
 IR Inten    --    141.9071                 0.1560                 3.7979

                     46                     47                     48
                      A                      A                      A
 Frequencies --   1396.7084              1419.3160              1423.6156
 Red. masses --      1.7383                 1.6614                 2.5246
 Frc consts  --      1.9979                 1.9719                 3.0145
 IR Inten    --     16.0528                54.1060                15.7400

                     49                     50                     51
                      A                      A                      A
 Frequencies --   1435.8319              1490.4409              1521.3069
 Red. masses --      1.2813                 1.0923                 1.0959
 Frc consts  --      1.5563                 1.4296                 1.4944
 IR Inten    --     77.5584                 7.3083                 1.1579

                     52                     53                     54
                      A                      A                      A
 Frequencies --   1524.1723              1529.9063              1613.6670
 Red. masses --      1.0904                 1.2098                 7.8059
 Frc consts  --      1.4925                 1.6684                11.9757
 IR Inten    --      0.4065                32.1551                 6.2325

                     55                     56                     57
                      A                      A                      A
 Frequencies --   1645.2858              1671.5189              1803.0273
 Red. masses --      1.2463                 6.4681                 9.0736
 Frc consts  --      1.9877                10.6475                17.3793
 IR Inten    --    103.9250                 1.1328               256.2426

                     58                     59                     60
                      A                      A                      A
 Frequencies --   3000.2489              3011.4492              3034.2214
 Red. masses --      1.0721                 1.0603                 1.0614
 Frc consts  --      5.6860                 5.6656                 5.7572
 IR Inten    --     61.6642                34.8543                34.4299

                     61                     62                     63
                      A                      A                      A
 Frequencies --   3054.7836              3078.0374              3126.5794
 Red. masses --      1.1008                 1.1017                 1.0919
 Frc consts  --      6.0524                 6.1501                 6.2890
 IR Inten    --     25.2866                21.4800                20.9656

                     64                     65                     66
                      A                      A                      A
 Frequencies --   3263.3415              3275.9914              3484.7581
 Red. masses --      1.0932                 1.1011                 1.0731
 Frc consts  --      6.8590                 6.9623                 7.6775
 IR Inten    --      6.3488                 1.3557                 2.6350

                     67                     68                     69
                      A                      A                      A
 Frequencies --   3586.5557              3711.8589              3740.6293
 Red. masses --      1.0450                 1.1048                 1.0661
 Frc consts  --      7.9198                 8.9687                 8.7893
 IR Inten    --     34.0050                30.0560                14.0890

 - Thermochemistry -
 -------------------
 Temperature   298.150 Kelvin.  Pressure   1.00000 Atm.
 Atom     1 has atomic number  6 and mass  12.00000

 Molecular mass:   184.08479 amu.
 Principal axes and moments of inertia in atomic units:
                           1         2         3
     Eigenvalues --   774.662546146.059076643.85713
           X            0.99993  -0.00943  -0.00646
           Y            0.00940   0.99994  -0.00564
           Z            0.00651   0.00558   0.99996
 This molecule is an asymmetric top.
 Rotational symmetry number  1.
 Warning -- assumption of classical behavior for rotation
           may cause significant error
 Rotational temperatures (Kelvin)      0.11181     0.01409     0.01304
 Rotational constants (GHZ):           2.32971     0.29364     0.27164
 Zero-point vibrational energy     537406.2 (Joules/Mol)
                                  128.44318 (Kcal/Mol)
 Warning -- explicit consideration of  17 degrees of freedom as
           vibrations may cause significant error
 Vibrational temperatures:     41.08    41.75    65.78    89.23   138.56
          (Kelvin)            161.70   202.74   257.26   348.93   387.45
                              438.95   449.58   506.27   585.03   625.14
                              675.14   704.37   895.68   916.98   943.35
                              960.94  1051.12  1129.34  1139.64  1171.87
                             1220.70  1240.03  1349.16  1379.92  1416.69
                             1453.44  1459.11  1507.71  1510.70  1568.27
                             1608.02  1686.31  1722.36  1755.66  1783.26
                             1829.42  1842.20  1890.53  1903.41  1991.94
                             2009.55  2042.08  2048.27  2065.84  2144.41
                             2188.82  2192.94  2201.19  2321.71  2367.20
                             2404.94  2594.15  4316.69  4332.80  4365.57
                             4395.15  4428.61  4498.45  4695.22  4713.42
                             5013.79  5160.25  5340.54  5381.93

 Zero-point correction=                           0.204687 (Hartree/Particle)
 Thermal correction to Energy=                    0.218333
 Thermal correction to Enthalpy=                  0.219277
 Thermal correction to Gibbs Free Energy=         0.161832
 Sum of electronic and zero-point Energies=           -647.049984
 Sum of electronic and thermal Energies=              -647.036338
 Sum of electronic and thermal Enthalpies=            -647.035394
 Sum of electronic and thermal Free Energies=         -647.092839

                     E (Thermal)             CV                S
                      KCal/Mol        Cal/Mol-Kelvin    Cal/Mol-Kelvin
 Total                  137.006             48.559            120.904
 Electronic               0.000              0.000              0.000
 Translational            0.889              2.981             41.537
 Rotational               0.889              2.981             31.826
 Vibrational            135.228             42.598             47.541
 Vibration     1          0.593              1.984              5.928
 Vibration     2          0.593              1.984              5.896
 Vibration     3          0.595              1.979              4.994
 Vibration     4          0.597              1.972              4.392
 Vibration     5          0.603              1.952              3.528
 Vibration     6          0.607              1.939              3.227
 Vibration     7          0.615              1.912              2.792
 Vibration     8          0.629              1.868              2.341
 Vibration     9          0.659              1.775              1.784
 Vibration    10          0.674              1.730              1.601
 Vibration    11          0.696              1.664              1.389
 Vibration    12          0.701              1.650              1.349
 Vibration    13          0.728              1.571              1.158
 Vibration    14          0.771              1.456              0.939
 Vibration    15          0.795              1.395              0.844
 Vibration    16          0.826              1.318              0.740
 Vibration    17          0.845              1.273              0.685

                           ! Non-Optimized Parameters !
 Normal termination of Gaussian 16 at Wed Dec  9 23:03:07 2020.

 ----------------------------------------------------------------------
 # B3LYP/6-311++G(d,p) empiricaldispersion=gd3bj scf=xqc pop=npa geom=c
 heck
 ----------------------------------------------------------------------

 --------------------------------------
 CID_64579162_JID_3345_Energie_neutraal
 --------------------------------------
 Structure from the checkpoint file:  "JID_3345.chk"
 Charge =  0 Multiplicity = 1

 SCF Done:  E(RB3LYP) =  -647.464257059     A.U. after   15 cycles
 Normal termination of Gaussian 16 at Wed Dec  9 23:05:09 2020.

 ----------------------------------------------------------------------
 # B3LYP/6-311++G(d,p) empiricaldispersion=gd3bj scf=xqc pop=npa geom=c
 heck
 ----------------------------------------------------------------------

 ------------------------------------
 CID_64579162_JID_3345_Energie_kation
 ------------------------------------
 Structure from the checkpoint file:  "JID_3345.chk"
 Charge =  1 Multiplicity = 2

 SCF Done:  E(UB3LYP) =  -647.166108779     A.U. after   24 cycles
 Normal termination of Gaussian 16 at Wed Dec  9 23:09:06 2020.
 Gaussian 16:  ES64L-G16RevA.03 25-Dec-2016

 ----------------------------------------------------------------------
 # B3LYP/6-311++G(d,p) empiricaldispersion=gd3bj scf=xqc pop=npa geom=c
 heck
 ----------------------------------------------------------------------

 -----------------------------------
 CID_64579162_JID_3345_Energie_anion
 -----------------------------------
 Structure from the checkpoint file:  "JID_3345.chk"
 Charge = -1 Multiplicity = 2

                         Standard orientation:
 ---------------------------------------------------------------------
 Center     Atomic      Atomic             Coordinates (Angstroms)
 Number     Number       Type             X           Y           Z
 ---------------------------------------------------------------------
      1          6           0       -1.159592    1.738911   -0.294729
      2          6           0       -0.664684    0.468389   -0.329224
      3          8           0       -1.660951   -0.419588   -0.011626
      4          6           0       -2.804054    0.304591    0.217419
      5          6           0       -2.546798    1.632792    0.053153
      6          6           0       -4.014257   -0.496325    0.551012
      7          8           0       -4.446628   -1.331371   -0.522992
      8          6           0        0.687691   -0.083761   -0.606708
      9          7           0        1.302650   -0.631956    0.613286
     10          6           0        2.646498   -1.123154    0.384019
     11          6           0        3.674113   -0.011241    0.102694
     12          8           0        3.451874    1.156448    0.392134
     13          7           0        4.843159   -0.422777   -0.467936
     14          1           0       -0.598629    2.641352   -0.494292
     15          1           0       -3.259919    2.437801    0.162914
     16          1           0       -3.827045   -1.097267    1.455397
     17          1           0       -4.842463    0.183059    0.767533
     18          1           0       -3.685059   -1.880837   -0.767345
     19          1           0        0.612658   -0.904017   -1.333452
     20          1           0        1.287053    0.715450   -1.068971
     21          1           0        1.364682    0.128860    1.289945
     22          1           0        2.985567   -1.668170    1.276287
     23          1           0        2.632731   -1.847477   -0.440592
     24          1           0        5.048562   -1.398100   -0.624923
     25          1           0        5.593337    0.247352   -0.565898
 ---------------------------------------------------------------------

 SCF Done:  E(UB3LYP) =  -647.456663388     A.U. after   33 cycles
 SCF Done:  E(UB3LYP) =  -647.456663388     a.u. after    1 cycles

 The electronic state is 2-A.
 Alpha  occ. eigenvalues --  -19.10230 -19.04777 -18.99094 -14.22534 -14.20687
 Alpha  occ. eigenvalues --  -10.17202 -10.14991 -10.14204 -10.14134 -10.11195
 Alpha  occ. eigenvalues --  -10.10328 -10.09161 -10.08788  -1.02751  -0.94732
 Alpha  occ. eigenvalues --   -0.94031  -0.81769  -0.80027  -0.72095  -0.70099
 Alpha  occ. eigenvalues --   -0.64119  -0.59432  -0.55451  -0.52293  -0.48209
 Alpha  occ. eigenvalues --   -0.47298  -0.44997  -0.43679  -0.41798  -0.39735
 Alpha  occ. eigenvalues --   -0.38381  -0.37544  -0.36176  -0.35523  -0.33774
 Alpha  occ. eigenvalues --   -0.33279  -0.32666  -0.31178  -0.30147  -0.29919
 Alpha  occ. eigenvalues --   -0.27903  -0.27270  -0.26275  -0.20774  -0.20284
 Alpha  occ. eigenvalues --   -0.17302  -0.17019  -0.14426  -0.13892   0.04125
 Alpha virt. eigenvalues --    0.05371   0.06648   0.07496   0.07900   0.08679
 Alpha virt. eigenvalues --    0.09011   0.09489   0.10321   0.10834   0.11725
 Alpha virt. eigenvalues --    0.12235   0.12600   0.12972   0.13731   0.14146

  Beta  occ. eigenvalues --  -19.10217 -19.04763 -18.99086 -14.22430 -14.20681
  Beta  occ. eigenvalues --  -10.17199 -10.14976 -10.14202 -10.14129 -10.11185
  Beta  occ. eigenvalues --  -10.10288 -10.09150 -10.08786  -1.02732  -0.94702
  Beta  occ. eigenvalues --   -0.94008  -0.81751  -0.79889  -0.72081  -0.70076
  Beta  occ. eigenvalues --   -0.64076  -0.59370  -0.55407  -0.52275  -0.48059
  Beta  occ. eigenvalues --   -0.47279  -0.44969  -0.43587  -0.41758  -0.39699
  Beta  occ. eigenvalues --   -0.38339  -0.37515  -0.36141  -0.35496  -0.33727
  Beta  occ. eigenvalues --   -0.33255  -0.32650  -0.31154  -0.30118  -0.29895
  Beta  occ. eigenvalues --   -0.27873  -0.27251  -0.26239  -0.20755  -0.20258
  Beta  occ. eigenvalues --   -0.17228  -0.16986  -0.14401  -0.13870
  Beta virt. eigenvalues --    0.05739   0.06816   0.07324   0.07972   0.08057
  Beta virt. eigenvalues --    0.09029   0.09542   0.10112   0.10570   0.11354
  Beta virt. eigenvalues --    0.11754   0.12787   0.12811   0.13100   0.13906

 Mulliken charges and spin densities:
               1          2
     1  C    0.083790  -0.205812
     2  C   -0.763919   0.990102
     3  O   -0.005863   0.018152
     4  C   -0.137184   0.423110
     5  C   -0.469930   0.342500
     6  C    0.805129  -1.444312
     7  O   -0.268710   0.017102
     8  C    0.326440  -1.130662
     9  N   -0.119171   0.144983
    10  C    1.293501  -1.828677
    11  C    0.320010  -0.175683
    12  O   -0.353488  -0.014984
    13  N   -0.269712   0.013798
    14  H    0.079623   0.088718
    15  H   -0.248851   0.402730
    16  H   -0.032902   0.182968
    17  H   -0.065985   0.258752
    18  H    0.132154   0.115226
    19  H    0.021173   0.135118
    20  H    0.053371   0.102403
    21  H    0.242668  -0.028441
    22  H   -0.307487   0.517255
    23  H   -0.297645   0.490870
    24  H   -0.606570   0.882593
    25  H   -0.410446   0.702190
 Sum of Mulliken charges =  -1.00000   1.00000

 Dipole moment (field-independent basis, Debye):
    X=             -9.6425    Y=              3.6089    Z=              1.2833  Tot=             10.3753
 Quadrupole moment (field-independent basis, Debye-Ang):
   XX=           -206.3328   YY=           -111.8890   ZZ=           -100.7582
   XY=             11.8827   XZ=              5.0063   YZ=             -3.0425

 Summary of Natural Population Analysis:

                                       Natural Population
                Natural  -----------------------------------------------
    Atom  No    Charge         Core      Valence    Rydberg      Total
 -----------------------------------------------------------------------
      C    1   -0.14790      0.99949     2.14023    0.00817     3.14790
      C    2    0.15612      0.99946     1.83061    0.01381     2.84388
      O    3   -0.24070      0.99985     3.23172    0.00913     4.24070
      C    4    0.13092      0.99947     1.85545    0.01416     2.86908
      C    5   -0.14278      0.99950     2.13485    0.00843     3.14278
      C    6   -0.03141      0.99955     2.01969    0.01217     3.03141
      O    7   -0.36469      0.99990     3.35826    0.00652     4.36469
      C    8   -0.11436      0.99957     2.10351    0.01128     3.11436
      N    9   -0.33076      0.99975     2.81974    0.01127     3.83076
      C   10   -0.13282      0.99959     2.12011    0.01311     3.13282
      C   11    0.32850      0.99971     1.64841    0.02338     2.67150
      O   12   -0.33258      0.99988     3.32607    0.00663     4.33258
      N   13   -0.39795      0.99971     2.88924    0.00900     3.89795
      H   14    0.11102      0.00000     0.38824    0.00074     0.38898
      H   15    0.10825      0.00000     0.39087    0.00088     0.39175
      H   16    0.08508      0.00000     0.41309    0.00183     0.41492
      H   17    0.09451      0.00000     0.40379    0.00170     0.40549
      H   18    0.22971      0.00000     0.26666    0.00363     0.27029
      H   19    0.10043      0.00000     0.39798    0.00159     0.39957
      H   20    0.09888      0.00000     0.39966    0.00146     0.40112
      H   21    0.17771      0.00000     0.31917    0.00311     0.32229
      H   22    0.10857      0.00000     0.39011    0.00132     0.39143
      H   23    0.10343      0.00000     0.39460    0.00197     0.39657
      H   24    0.20492      0.00000     0.25597    0.03911     0.29508
      H   25    0.19790      0.00000     0.29702    0.00507     0.30210
 =======================================================================
   * Total *   -0.00000     12.99544    35.79507    0.20948    49.00000

 Normal termination of Gaussian 16 at Wed Dec  9 23:15:03 2020.
