 Gaussian 16, Revision A.03,

 -----------------------------------------------------------
 # opt freq B3LYP/6-31G(d) empiricaldispersion=gd3bj scf=xqc
 -----------------------------------------------------------

 ----------------------------
 CID_600720_JID_6918_neutraal
 ----------------------------
 Symbolic Z-matrix:
 Charge =  0 Multiplicity = 1

 SCF Done:  E(RB3LYP) =  -781.493743906     A.U. after   15 cycles
 SCF Done:  E(RB3LYP) =  -781.500631393     A.U. after   13 cycles
 SCF Done:  E(RB3LYP) =  -781.501466860     A.U. after   12 cycles
 SCF Done:  E(RB3LYP) =  -781.498874284     A.U. after   13 cycles
 SCF Done:  E(RB3LYP) =  -781.501729324     A.U. after   12 cycles
 SCF Done:  E(RB3LYP) =  -781.501564771     A.U. after   12 cycles
 SCF Done:  E(RB3LYP) =  -781.501870125     A.U. after   12 cycles
 SCF Done:  E(RB3LYP) =  -781.501900363     A.U. after   11 cycles
 SCF Done:  E(RB3LYP) =  -781.501922409     A.U. after   11 cycles
 SCF Done:  E(RB3LYP) =  -781.501932899     A.U. after   11 cycles
 SCF Done:  E(RB3LYP) =  -781.502393826     A.U. after    9 cycles
 SCF Done:  E(RB3LYP) =  -781.502392859     A.U. after   11 cycles
 SCF Done:  E(RB3LYP) =  -781.502415145     A.U. after   11 cycles
 SCF Done:  E(RB3LYP) =  -781.502417313     A.U. after    9 cycles
 SCF Done:  E(RB3LYP) =  -781.502417497     A.U. after    8 cycles
 SCF Done:  E(RB3LYP) =  -781.502417513     A.U. after    7 cycles
 Optimization completed.
    -- Stationary point found.
 Normal termination of Gaussian 16 at Fri Dec 11 01:22:19 2020.

 --------------------------------------------------------------------
 #N Geom=AllCheck Guess=TCheck SCRF=Check GenChk RB3LYP/6-31G(d) Freq
 --------------------------------------------------------------------

 Structure from the checkpoint file:  "JID_6918.chk"
 ----------------------------
 CID_600720_JID_6918_neutraal
 ----------------------------
 Charge =  0 Multiplicity = 1

 SCF Done:  E(RB3LYP) =  -781.502417513     A.U. after    1 cycles

  Exact polarizability: 197.426   2.625 115.744  -4.554 -18.304  93.312
 Approx polarizability: 317.818  -1.456 187.120  -5.598 -41.746 148.714

                      1                      2                      3
                      A                      A                      A
 Frequencies --     39.2027                49.1200                70.4652
 Red. masses --      7.8391                 7.6003                 6.9687
 Frc consts  --      0.0071                 0.0108                 0.0204
 IR Inten    --      3.3744                 1.8129                 0.1813

                      4                      5                      6
                      A                      A                      A
 Frequencies --     88.9049               115.0947               120.1488
 Red. masses --      4.5458                 2.3740                 4.6860
 Frc consts  --      0.0212                 0.0185                 0.0399
 IR Inten    --      0.3820                 1.8161                 3.4580

                      7                      8                      9
                      A                      A                      A
 Frequencies --    173.4303               180.8660               238.5533
 Red. masses --      3.2044                 5.3125                 6.0453
 Frc consts  --      0.0568                 0.1024                 0.2027
 IR Inten    --     10.3233                 6.0147                 0.8198

                     10                     11                     12
                      A                      A                      A
 Frequencies --    272.4375               318.7288               342.2955
 Red. masses --      3.4520                 3.3520                 5.2687
 Frc consts  --      0.1510                 0.2006                 0.3637
 IR Inten    --      1.0161                 1.7023                 1.1355

                     13                     14                     15
                      A                      A                      A
 Frequencies --    351.8346               378.9613               481.8426
 Red. masses --      4.6863                 6.1989                 3.0163
 Frc consts  --      0.3418                 0.5245                 0.4126
 IR Inten    --      0.8802                 0.3278                 8.1713

                     16                     17                     18
                      A                      A                      A
 Frequencies --    507.3904               535.6059               537.0149
 Red. masses --      3.8325                 4.0322                 3.8127
 Frc consts  --      0.5813                 0.6815                 0.6478
 IR Inten    --      5.3513                 8.4081                20.5861

                     19                     20                     21
                      A                      A                      A
 Frequencies --    560.4152               581.3054               631.9846
 Red. masses --      3.5823                 3.2595                 4.5347
 Frc consts  --      0.6629                 0.6490                 1.0671
 IR Inten    --     14.8180                16.4283                 2.7753

                     22                     23                     24
                      A                      A                      A
 Frequencies --    637.9819               673.9871               702.0652
 Red. masses --      2.5598                 3.2164                 3.2827
 Frc consts  --      0.6139                 0.8608                 0.9533
 IR Inten    --     69.4281                58.7450                19.3411

                     25                     26                     27
                      A                      A                      A
 Frequencies --    707.6622               777.7627               797.3963
 Red. masses --      3.4266                 4.0953                 4.1705
 Frc consts  --      1.0110                 1.4596                 1.5624
 IR Inten    --     18.7061                30.0844                34.8390

                     28                     29                     30
                      A                      A                      A
 Frequencies --    822.8605               834.4905               857.1448
 Red. masses --      1.5960                 2.4561                 1.3902
 Frc consts  --      0.6367                 1.0077                 0.6018
 IR Inten    --      3.2766                66.7094                31.5671

                     31                     32                     33
                      A                      A                      A
 Frequencies --    932.3796               946.0188               972.8340
 Red. masses --      4.0086                 2.4514                 1.6404
 Frc consts  --      2.0532                 1.2926                 0.9147
 IR Inten    --      9.0564                35.2416                 5.4684

                     34                     35                     36
                      A                      A                      A
 Frequencies --   1013.4161              1028.1757              1040.7604
 Red. masses --      2.3276                 1.7655                 3.3977
 Frc consts  --      1.4084                 1.0996                 2.1684
 IR Inten    --      0.8965                 7.5106                 2.6507

                     37                     38                     39
                      A                      A                      A
 Frequencies --   1043.9496              1053.2726              1117.8121
 Red. masses --      2.0402                 2.3246                 2.8942
 Frc consts  --      1.3100                 1.5194                 2.1307
 IR Inten    --      0.2191                 6.7996                 7.9721

                     40                     41                     42
                      A                      A                      A
 Frequencies --   1154.9031              1176.6839              1178.1016
 Red. masses --      2.3606                 1.2820                 2.4048
 Frc consts  --      1.8550                 1.0458                 1.9665
 IR Inten    --     80.8948                14.5470                39.4993

                     43                     44                     45
                      A                      A                      A
 Frequencies --   1196.6071              1242.3902              1254.8214
 Red. masses --      2.2068                 1.8742                 1.5920
 Frc consts  --      1.8617                 1.7044                 1.4769
 IR Inten    --    150.2561               169.1837               169.8818

                     46                     47                     48
                      A                      A                      A
 Frequencies --   1271.6571              1298.7011              1320.8546
 Red. masses --      1.4956                 1.3298                 1.5180
 Frc consts  --      1.4250                 1.3215                 1.5604
 IR Inten    --     14.1729                16.1555                32.3836

                     49                     50                     51
                      A                      A                      A
 Frequencies --   1336.8232              1345.9239              1363.7934
 Red. masses --      1.7796                 2.2441                 1.3908
 Frc consts  --      1.8738                 2.3952                 1.5240
 IR Inten    --    127.3185                38.4993                25.3397

                     52                     53                     54
                      A                      A                      A
 Frequencies --   1381.9950              1417.8881              1420.4869
 Red. masses --      1.9737                 1.5464                 2.0046
 Frc consts  --      2.2210                 1.8317                 2.3832
 IR Inten    --     49.9036                14.7394                41.1048

                     55                     56                     57
                      A                      A                      A
 Frequencies --   1457.3926              1484.3921              1494.5259
 Red. masses --      1.3790                 1.8685                 1.1839
 Frc consts  --      1.7257                 2.4257                 1.5580
 IR Inten    --      3.7469                35.0146                13.6736

                     58                     59                     60
                      A                      A                      A
 Frequencies --   1505.2004              1516.6438              1626.4557
 Red. masses --      1.1406                 1.1296                 7.8919
 Frc consts  --      1.5225                 1.5309                12.3004
 IR Inten    --      7.0313                 5.7431               694.6122

                     61                     62                     63
                      A                      A                      A
 Frequencies --   1702.8133              1786.1181              1839.8692
 Red. masses --      6.5557                 9.1060                12.3725
 Frc consts  --     11.1996                17.1159                24.6764
 IR Inten    --    103.6949               187.6162               296.2821

                     64                     65                     66
                      A                      A                      A
 Frequencies --   1851.3562              2911.2680              3057.2701
 Red. masses --     10.4251                 1.0834                 1.0646
 Frc consts  --     21.0527                 5.4100                 5.8627
 IR Inten    --    224.6887               149.3651                20.0360

                     67                     68                     69
                      A                      A                      A
 Frequencies --   3064.2730              3074.1368              3079.8919
 Red. masses --      1.0689                 1.0821                 1.0675
 Frc consts  --      5.9135                 6.0253                 5.9662
 IR Inten    --      9.7483                 6.4669                10.0143

                     70                     71                     72
                      A                      A                      A
 Frequencies --   3109.3748              3127.4728              3143.6391
 Red. masses --      1.0990                 1.0960                 1.0988
 Frc consts  --      6.2601                 6.3158                 6.3979
 IR Inten    --      9.5084                 7.7666                 6.7736

                     73                     74                     75
                      A                      A                      A
 Frequencies --   3173.3064              3185.4799              3684.6835
 Red. masses --      1.0863                 1.0896                 1.0640
 Frc consts  --      6.4448                 6.5141                 8.5115
 IR Inten    --      6.2904                 9.7176                62.3585

 - Thermochemistry -
 -------------------
 Temperature   298.150 Kelvin.  Pressure   1.00000 Atm.
 Atom     1 has atomic number  6 and mass  12.00000

 Molecular mass:   221.06881 amu.
 Principal axes and moments of inertia in atomic units:
                           1         2         3
     Eigenvalues --  1926.430114338.990785178.22574
           X            0.99965   0.02422  -0.01079
           Y           -0.02453   0.99926  -0.02968
           Z            0.01006   0.02994   0.99950
 This molecule is an asymmetric top.
 Rotational symmetry number  1.
 Warning -- assumption of classical behavior for rotation
           may cause significant error
 Rotational temperatures (Kelvin)      0.04496     0.01996     0.01673
 Rotational constants (GHZ):           0.93683     0.41594     0.34853
 Zero-point vibrational energy     554904.4 (Joules/Mol)
                                  132.62533 (Kcal/Mol)
 Warning -- explicit consideration of  20 degrees of freedom as
           vibrations may cause significant error
 Vibrational temperatures:     56.40    70.67   101.38   127.91   165.60
          (Kelvin)            172.87   249.53   260.23   343.22   391.98
                              458.58   492.49   506.21   545.24   693.26
                              730.02   770.62   772.64   806.31   836.37
                              909.28   917.91   969.72  1010.12  1018.17
                             1119.03  1147.28  1183.91  1200.65  1233.24
                             1341.49  1361.11  1399.69  1458.08  1479.32
                             1497.42  1502.01  1515.42  1608.28  1661.65
                             1692.99  1695.03  1721.65  1787.52  1805.41
                             1829.63  1868.54  1900.42  1923.39  1936.48
                             1962.19  1988.38  2040.02  2043.76  2096.86
                             2135.71  2150.29  2165.65  2182.11  2340.11
                             2449.97  2569.83  2647.16  2663.69  4188.67
                             4398.73  4408.81  4423.00  4431.28  4473.70
                             4499.74  4523.00  4565.68  4583.20  5301.44

 Zero-point correction=                           0.211352 (Hartree/Particle)
 Thermal correction to Energy=                    0.225182
 Thermal correction to Enthalpy=                  0.226126
 Thermal correction to Gibbs Free Energy=         0.169661
 Sum of electronic and zero-point Energies=           -781.291066
 Sum of electronic and thermal Energies=              -781.277235
 Sum of electronic and thermal Enthalpies=            -781.276291
 Sum of electronic and thermal Free Energies=         -781.332757

                     E (Thermal)             CV                S
                      KCal/Mol        Cal/Mol-Kelvin    Cal/Mol-Kelvin
 Total                  141.304             52.062            118.842
 Electronic               0.000              0.000              0.000
 Translational            0.889              2.981             42.083
 Rotational               0.889              2.981             32.137
 Vibrational            139.526             46.101             44.622
 Vibration     1          0.594              1.981              5.299
 Vibration     2          0.595              1.978              4.853
 Vibration     3          0.598              1.968              4.140
 Vibration     4          0.602              1.957              3.684
 Vibration     5          0.608              1.937              3.181
 Vibration     6          0.609              1.932              3.098
 Vibration     7          0.627              1.875              2.398
 Vibration     8          0.630              1.866              2.319
 Vibration     9          0.657              1.782              1.814
 Vibration    10          0.675              1.724              1.581
 Vibration    11          0.705              1.638              1.317
 Vibration    12          0.721              1.591              1.201
 Vibration    13          0.728              1.571              1.158
 Vibration    14          0.749              1.515              1.043
 Vibration    15          0.838              1.290              0.705
 Vibration    16          0.863              1.234              0.640
 Vibration    17          0.891              1.171              0.575
 Vibration    18          0.892              1.168              0.572
 Vibration    19          0.916              1.117              0.523
 Vibration    20          0.938              1.072              0.483

 Optimization completed.
    -- Stationary point found.
 Normal termination of Gaussian 16 at Fri Dec 11 01:32:31 2020.

 ----------------------------------------------------------------------
 # B3LYP/6-311++G(d,p) empiricaldispersion=gd3bj scf=xqc pop=npa geom=c
 heck
 ----------------------------------------------------------------------

 ------------------------------------
 CID_600720_JID_6918_Energie_neutraal
 ------------------------------------
 Structure from the checkpoint file:  "JID_6918.chk"
 Charge =  0 Multiplicity = 1

 SCF Done:  E(RB3LYP) =  -781.731304551     A.U. after   16 cycles
 Normal termination of Gaussian 16 at Fri Dec 11 01:37:04 2020.

 ----------------------------------------------------------------------
 # B3LYP/6-311++G(d,p) empiricaldispersion=gd3bj scf=xqc pop=npa geom=c
 heck
 ----------------------------------------------------------------------

 ----------------------------------
 CID_600720_JID_6918_Energie_kation
 ----------------------------------
 Structure from the checkpoint file:  "JID_6918.chk"
 Charge =  1 Multiplicity = 2

 SCF Done:  E(UB3LYP) =  -781.437678914     A.U. after   24 cycles
 Normal termination of Gaussian 16 at Fri Dec 11 01:46:57 2020.
 Gaussian 16:  ES64L-G16RevA.03 25-Dec-2016

 ----------------------------------------------------------------------
 # B3LYP/6-311++G(d,p) empiricaldispersion=gd3bj scf=xqc pop=npa geom=c
 heck
 ----------------------------------------------------------------------

 ---------------------------------
 CID_600720_JID_6918_Energie_anion
 ---------------------------------
 Structure from the checkpoint file:  "JID_6918.chk"
 Charge = -1 Multiplicity = 2

                         Standard orientation:
 ---------------------------------------------------------------------
 Center     Atomic      Atomic             Coordinates (Angstroms)
 Number     Number       Type             X           Y           Z
 ---------------------------------------------------------------------
      1          6           0       -2.385140   -1.770551    0.643405
      2          6           0       -3.347480   -0.884296   -0.162994
      3          6           0       -2.501498    0.306477   -0.583575
      4          8           0       -2.862309    1.343578   -1.099134
      5          7           0       -1.167095   -0.007372   -0.300158
      6          6           0       -1.002974   -1.247946    0.298245
      7          6           0        0.158368   -1.891352    0.582578
      8          6           0        1.511348   -1.495377    0.304196
      9          6           0        1.958571   -0.514062   -0.523068
     10          6           0        1.059778    0.343017   -1.367295
     11          6           0       -0.123358    0.952844   -0.585929
     12          6           0        0.383130    1.674767    0.660656
     13          8           0        1.423520    2.288980    0.695852
     14          8           0       -0.473874    1.597027    1.699903
     15          6           0        3.409640   -0.253778   -0.569555
     16          8           0        4.262258   -0.900631    0.015524
     17          1           0       -2.476466   -2.835364    0.416689
     18          1           0       -2.556446   -1.647307    1.719569
     19          1           0       -3.711028   -1.379940   -1.070431
     20          1           0       -4.221432   -0.541602    0.394921
     21          1           0        0.038262   -2.826150    1.124351
     22          1           0        2.289099   -2.056552    0.818695
     23          1           0        0.636020   -0.225434   -2.204100
     24          1           0        1.637498    1.166980   -1.797315
     25          1           0       -0.615333    1.719332   -1.196857
     26          1           0       -0.068731    2.114176    2.421796
     27          1           0        3.699164    0.613360   -1.203350
 ---------------------------------------------------------------------

 SCF Done:  E(UB3LYP) =  -781.759259373     A.U. after   25 cycles

 The electronic state is 2-A.
 Alpha  occ. eigenvalues --  -19.07254 -19.00887 -18.98279 -18.92283 -14.23745
 Alpha  occ. eigenvalues --  -10.19989 -10.15523 -10.11095 -10.07941 -10.07191
 Alpha  occ. eigenvalues --  -10.06703 -10.06323 -10.05014 -10.02491 -10.00711
 Alpha  occ. eigenvalues --  -10.00258  -1.01075  -0.93745  -0.91919  -0.85785
 Alpha  occ. eigenvalues --   -0.84887  -0.71433  -0.67096  -0.64410  -0.60535
 Alpha  occ. eigenvalues --   -0.56588  -0.53167  -0.51251  -0.48244  -0.45701
 Alpha  occ. eigenvalues --   -0.44137  -0.39297  -0.38563  -0.38072  -0.37118
 Alpha  occ. eigenvalues --   -0.35695  -0.33860  -0.32876  -0.32046  -0.31097
 Alpha  occ. eigenvalues --   -0.29891  -0.28856  -0.28636  -0.28050  -0.27357
 Alpha  occ. eigenvalues --   -0.26922  -0.26091  -0.24116  -0.22720  -0.22256
 Alpha  occ. eigenvalues --   -0.22005  -0.20763  -0.19898  -0.17695  -0.15421
 Alpha  occ. eigenvalues --   -0.14256  -0.08248  -0.07095   0.03115
 Alpha virt. eigenvalues --    0.07422   0.08439   0.09240   0.09782   0.09962
 Alpha virt. eigenvalues --    0.11234   0.11873   0.12035   0.12433   0.12767
 Alpha virt. eigenvalues --    0.13534   0.14579   0.15094   0.15803   0.15960

  Beta  occ. eigenvalues --  -19.07249 -19.00885 -18.98130 -18.91885 -14.23793
  Beta  occ. eigenvalues --  -10.19973 -10.15395 -10.11077 -10.07943 -10.07226
  Beta  occ. eigenvalues --  -10.06186 -10.06131 -10.05029 -10.02613 -10.00384
  Beta  occ. eigenvalues --  -10.00146  -1.01059  -0.93482  -0.91910  -0.85068
  Beta  occ. eigenvalues --   -0.84679  -0.71297  -0.66737  -0.64195  -0.60195
  Beta  occ. eigenvalues --   -0.56265  -0.52979  -0.51033  -0.48087  -0.45081
  Beta  occ. eigenvalues --   -0.44049  -0.39121  -0.38271  -0.37916  -0.36924
  Beta  occ. eigenvalues --   -0.35525  -0.33726  -0.32749  -0.31911  -0.31003
  Beta  occ. eigenvalues --   -0.29538  -0.28519  -0.28453  -0.27883  -0.27080
  Beta  occ. eigenvalues --   -0.26644  -0.25769  -0.23791  -0.22588  -0.22081
  Beta  occ. eigenvalues --   -0.20426  -0.20141  -0.19515  -0.17247  -0.15304
  Beta  occ. eigenvalues --   -0.13164  -0.07861  -0.05483
  Beta virt. eigenvalues --    0.07352   0.08357   0.09199   0.09304   0.09797
  Beta virt. eigenvalues --    0.10051   0.11277   0.11979   0.12259   0.12627
  Beta virt. eigenvalues --    0.13046   0.13883   0.14559   0.15047   0.15808

 Mulliken charges and spin densities:
               1          2
     1  C   -0.563287  -0.074331
     2  C   -0.421196  -0.029821
     3  C    0.198219   0.056372
     4  O   -0.385645   0.051767
     5  N    0.496260  -0.024118
     6  C    0.058400   0.283832
     7  C   -0.448465  -0.012627
     8  C   -0.166491   0.341048
     9  C    1.023374   0.028767
    10  C   -1.045148   0.044608
    11  C   -0.018208  -0.050792
    12  C   -0.201219   0.023519
    13  O   -0.230127  -0.002914
    14  O   -0.154713  -0.001162
    15  C   -0.475201   0.143846
    16  O   -0.386252   0.141501
    17  H    0.149349  -0.003805
    18  H    0.101969   0.070382
    19  H    0.126714   0.032156
    20  H    0.186199  -0.008135
    21  H    0.130788   0.008682
    22  H    0.185864  -0.020128
    23  H    0.138926   0.010240
    24  H    0.167925  -0.000830
    25  H    0.223523   0.003533
    26  H    0.284780   0.001888
    27  H    0.023664  -0.013477
 Sum of Mulliken charges =  -1.00000   1.00000

 Dipole moment (field-independent basis, Debye):
    X=             -7.9971    Y=              0.6353    Z=              1.3394  Tot=              8.1334
 Quadrupole moment (field-independent basis, Debye-Ang):
   XX=           -157.1717   YY=           -109.7570   ZZ=            -96.9913
   XY=             15.2008   XZ=             -6.4143   YZ=              4.4120

 Summary of Natural Population Analysis:

                                       Natural Population
                Natural  -----------------------------------------------
    Atom  No    Charge         Core      Valence    Rydberg      Total
 -----------------------------------------------------------------------
      C    1   -0.20471      0.99963     2.19872    0.00637     3.20471
      C    2   -0.23024      0.99961     2.22428    0.00635     3.23024
      C    3    0.37215      0.99967     1.60641    0.02177     2.62785
      O    4   -0.30761      0.99987     3.30115    0.00658     4.30761
      N    5   -0.24916      0.99958     2.73774    0.01183     3.74916
      C    6    0.19846      0.99952     1.79193    0.01009     2.80154
      C    7   -0.18207      0.99952     2.17371    0.00884     3.18207
      C    8   -0.01302      0.99950     2.00453    0.00899     3.01302
      C    9   -0.07572      0.99948     2.06577    0.01047     3.07572
      C   10   -0.19639      0.99960     2.18923    0.00756     3.19639
      C   11   -0.05134      0.99954     2.03825    0.01355     3.05134
      C   12    0.41376      0.99970     1.56176    0.02478     2.58624
      O   13   -0.30392      0.99987     3.29685    0.00721     4.30392
      O   14   -0.33939      0.99987     3.33337    0.00615     4.33939
      C   15    0.22922      0.99966     1.74999    0.02113     2.77078
      O   16   -0.27046      0.99988     3.26263    0.00795     4.27046
      H   17    0.10205      0.00000     0.39689    0.00107     0.39795
      H   18    0.10440      0.00000     0.39385    0.00176     0.39560
      H   19    0.10657      0.00000     0.39236    0.00107     0.39343
      H   20    0.10508      0.00000     0.39389    0.00102     0.39492
      H   21    0.09413      0.00000     0.40428    0.00159     0.40587
      H   22    0.10057      0.00000     0.39721    0.00222     0.39943
      H   23    0.10251      0.00000     0.39639    0.00110     0.39749
      H   24    0.10550      0.00000     0.39307    0.00143     0.39450
      H   25    0.12631      0.00000     0.37236    0.00133     0.37369
      H   26    0.23433      0.00000     0.26109    0.00457     0.26567
      H   27    0.02899      0.00000     0.46822    0.00279     0.47101
 =======================================================================
   * Total *    0.00000     15.99449    41.80593    0.19958    58.00000

 Normal termination of Gaussian 16 at Fri Dec 11 01:57:19 2020.
