 Gaussian 16, Revision A.03,

 -----------------------------------------------------------
 # opt freq B3LYP/6-31G(d) empiricaldispersion=gd3bj scf=xqc
 -----------------------------------------------------------

 ------------------------------
 CID_21762301_JID_2212_neutraal
 ------------------------------
 Symbolic Z-matrix:
 Charge =  0 Multiplicity = 1

 SCF Done:  E(RB3LYP) =  -502.618027579     A.U. after   14 cycles
 SCF Done:  E(RB3LYP) =  -502.614403451     A.U. after   12 cycles
 SCF Done:  E(RB3LYP) =  -502.621492399     A.U. after   12 cycles
 SCF Done:  E(RB3LYP) =  -502.621670703     A.U. after   12 cycles
 SCF Done:  E(RB3LYP) =  -502.622867123     A.U. after   12 cycles
 SCF Done:  E(RB3LYP) =  -502.623695759     A.U. after   12 cycles
 SCF Done:  E(RB3LYP) =  -502.624126505     A.U. after   12 cycles
 SCF Done:  E(RB3LYP) =  -502.624685432     A.U. after   12 cycles
 SCF Done:  E(RB3LYP) =  -502.624822048     A.U. after   12 cycles
 SCF Done:  E(RB3LYP) =  -502.625196495     A.U. after   12 cycles
 SCF Done:  E(RB3LYP) =  -502.634010841     A.U. after    9 cycles
 SCF Done:  E(RB3LYP) =  -502.634016338     A.U. after   10 cycles
 SCF Done:  E(RB3LYP) =  -502.634017047     A.U. after    8 cycles
 SCF Done:  E(RB3LYP) =  -502.634017432     A.U. after    9 cycles
 SCF Done:  E(RB3LYP) =  -502.634017443     A.U. after    7 cycles
 SCF Done:  E(RB3LYP) =  -502.634017162     A.U. after    8 cycles
 Optimization completed.
    -- Stationary point found.
 Normal termination of Gaussian 16 at Wed Dec  9 17:15:00 2020.

 --------------------------------------------------------------------
 #N Geom=AllCheck Guess=TCheck SCRF=Check GenChk RB3LYP/6-31G(d) Freq
 --------------------------------------------------------------------

 Structure from the checkpoint file:  "JID_2212.chk"
 ------------------------------
 CID_21762301_JID_2212_neutraal
 ------------------------------
 Charge =  0 Multiplicity = 1

 SCF Done:  E(RB3LYP) =  -502.634017162     A.U. after    1 cycles

  Exact polarizability: 125.934  -0.077 135.529  -0.291   5.497 100.432
 Approx polarizability: 157.327  -7.194 191.699   0.496   5.436 149.983

                      1                      2                      3
                      A                      A                      A
 Frequencies --     19.2895                35.1689                46.7265
 Red. masses --      2.9965                 2.6596                 2.4825
 Frc consts  --      0.0007                 0.0019                 0.0032
 IR Inten    --      0.0590                 0.0762                 0.1058

                      4                      5                      6
                      A                      A                      A
 Frequencies --     68.6657                85.3101               109.9463
 Red. masses --      3.3031                 2.6329                 3.0022
 Frc consts  --      0.0092                 0.0113                 0.0214
 IR Inten    --      0.0027                 0.4409                 1.1356

                      7                      8                      9
                      A                      A                      A
 Frequencies --    133.1142               159.4282               196.7217
 Red. masses --      2.4438                 1.9072                 1.7076
 Frc consts  --      0.0255                 0.0286                 0.0389
 IR Inten    --      0.5079                 0.4997                 1.1834

                     10                     11                     12
                      A                      A                      A
 Frequencies --    217.7441               231.3739               243.7559
 Red. masses --      1.8275                 1.3514                 1.5001
 Frc consts  --      0.0511                 0.0426                 0.0525
 IR Inten    --      1.1971                 0.6598                 2.7676

                     13                     14                     15
                      A                      A                      A
 Frequencies --    288.3381               305.0804               316.8525
 Red. masses --      1.6230                 1.8208                 2.6072
 Frc consts  --      0.0795                 0.0998                 0.1542
 IR Inten    --      0.7963                 1.1735                 5.8070

                     16                     17                     18
                      A                      A                      A
 Frequencies --    351.8002               420.9119               437.1807
 Red. masses --      2.2813                 2.3787                 2.6849
 Frc consts  --      0.1664                 0.2483                 0.3023
 IR Inten    --      2.5627                 1.9508                 5.8035

                     19                     20                     21
                      A                      A                      A
 Frequencies --    489.5883               511.6185               621.5135
 Red. masses --      3.8307                 2.6332                 2.3943
 Frc consts  --      0.5410                 0.4061                 0.5449
 IR Inten    --      7.8815                 0.3282                 4.3985

                     22                     23                     24
                      A                      A                      A
 Frequencies --    691.7868               769.7557               781.9187
 Red. masses --      3.0041                 1.5317                 1.2671
 Frc consts  --      0.8471                 0.5347                 0.4564
 IR Inten    --      0.8202                 1.9139                 0.6231

                     25                     26                     27
                      A                      A                      A
 Frequencies --    805.4450               836.6663               859.8075
 Red. masses --      1.5104                 1.6917                 2.3228
 Frc consts  --      0.5773                 0.6977                 1.0117
 IR Inten    --      2.4717                10.3575                 0.9220

                     28                     29                     30
                      A                      A                      A
 Frequencies --    882.0658               921.4325               937.1846
 Red. masses --      2.6267                 1.4499                 1.6635
 Frc consts  --      1.2041                 0.7253                 0.8608
 IR Inten    --      3.2279                 1.5627                 4.3128

                     31                     32                     33
                      A                      A                      A
 Frequencies --    939.9489               958.2276               971.8204
 Red. masses --      1.3821                 2.1364                 2.2440
 Frc consts  --      0.7195                 1.1557                 1.2486
 IR Inten    --      1.0658                12.2630                 1.1052

                     34                     35                     36
                      A                      A                      A
 Frequencies --    996.2030              1070.1936              1080.2380
 Red. masses --      1.8814                 2.2439                 2.1570
 Frc consts  --      1.1001                 1.5142                 1.4830
 IR Inten    --     10.4497                 9.4453                 1.3878

                     37                     38                     39
                      A                      A                      A
 Frequencies --   1085.5780              1115.2192              1124.4654
 Red. masses --      1.8716                 2.0427                 1.8471
 Frc consts  --      1.2995                 1.4968                 1.3760
 IR Inten    --      5.9094                 2.0957                10.3790

                     40                     41                     42
                      A                      A                      A
 Frequencies --   1135.1467              1169.8794              1177.1951
 Red. masses --      1.9511                 1.8279                 1.8617
 Frc consts  --      1.4812                 1.4739                 1.5200
 IR Inten    --      8.3386                 0.3732                 1.1605

                     43                     44                     45
                      A                      A                      A
 Frequencies --   1246.8216              1281.3273              1283.8135
 Red. masses --      2.9202                 1.2271                 1.2063
 Frc consts  --      2.6747                 1.1870                 1.1714
 IR Inten    --     13.2484                 2.3349                 0.8896

                     46                     47                     48
                      A                      A                      A
 Frequencies --   1305.6179              1315.0307              1318.4573
 Red. masses --      1.2108                 1.1982                 1.2190
 Frc consts  --      1.2161                 1.2209                 1.2485
 IR Inten    --      3.5583                 0.9968                 0.7685

                     49                     50                     51
                      A                      A                      A
 Frequencies --   1361.3566              1387.2007              1390.3115
 Red. masses --      1.5138                 1.3316                 1.3477
 Frc consts  --      1.6530                 1.5098                 1.5348
 IR Inten    --      1.1457                11.8604                14.1456

                     52                     53                     54
                      A                      A                      A
 Frequencies --   1406.3084              1415.0764              1419.3196
 Red. masses --      1.3168                 1.3565                 1.3082
 Frc consts  --      1.5344                 1.6004                 1.5527
 IR Inten    --      9.2330                 4.9375                 4.1399

                     55                     56                     57
                      A                      A                      A
 Frequencies --   1436.2615              1437.8298              1439.6001
 Red. masses --      1.2239                 1.2691                 1.2611
 Frc consts  --      1.4875                 1.5458                 1.5399
 IR Inten    --      0.6581                 9.9819                 0.9742

                     58                     59                     60
                      A                      A                      A
 Frequencies --   1502.6579              1505.9783              1506.5107
 Red. masses --      1.0854                 1.0826                 1.0823
 Frc consts  --      1.4440                 1.4466                 1.4473
 IR Inten    --      8.5538                 4.9562                 4.6798

                     61                     62                     63
                      A                      A                      A
 Frequencies --   1510.9959              1511.6041              1525.1549
 Red. masses --      1.0781                 1.0833                 1.0565
 Frc consts  --      1.4502                 1.4584                 1.4480
 IR Inten    --      0.3698                 0.3897                 5.1032

                     64                     65                     66
                      A                      A                      A
 Frequencies --   1530.6180              1530.8575              1537.0796
 Red. masses --      1.0402                 1.0408                 1.0596
 Frc consts  --      1.4358                 1.4372                 1.4750
 IR Inten    --      4.2986                 1.6843                 3.9309

                     67                     68                     69
                      A                      A                      A
 Frequencies --   1539.0882              1540.0690              1729.0754
 Red. masses --      1.0510                 1.0583                11.2890
 Frc consts  --      1.4668                 1.4789                19.8854
 IR Inten    --     20.3478                 3.9415                78.6995

                     70                     71                     72
                      A                      A                      A
 Frequencies --   1745.5921              2996.0296              2997.5255
 Red. masses --     10.5513                 1.0608                 1.0616
 Frc consts  --     18.9427                 5.6104                 5.6200
 IR Inten    --     32.5705                 8.7598                47.8171

                     73                     74                     75
                      A                      A                      A
 Frequencies --   3040.9275              3044.3603              3048.7660
 Red. masses --      1.0800                 1.0714                 1.0361
 Frc consts  --      5.8840                 5.8507                 5.6739
 IR Inten    --     11.2601                14.4974                21.9167

                     76                     77                     78
                      A                      A                      A
 Frequencies --   3051.8833              3052.1952              3053.1308
 Red. masses --      1.0514                 1.0359                 1.0756
 Frc consts  --      5.7699                 5.6859                 5.9073
 IR Inten    --     25.4396                21.8191                42.2570

                     79                     80                     81
                      A                      A                      A
 Frequencies --   3053.6982              3057.4729              3077.6903
 Red. masses --      1.0505                 1.0887                 1.0863
 Frc consts  --      5.7716                 5.9962                 6.0623
 IR Inten    --     50.0493                39.7137                26.8069

                     82                     83                     84
                      A                      A                      A
 Frequencies --   3085.5412              3087.0665              3108.1604
 Red. masses --      1.1024                 1.1023                 1.0996
 Frc consts  --      6.1836                 6.1894                 6.2588
 IR Inten    --     16.2280                12.2118                 0.6102

                     85                     86                     87
                      A                      A                      A
 Frequencies --   3115.0296              3120.2846              3124.1847
 Red. masses --      1.1022                 1.1015                 1.1027
 Frc consts  --      6.3011                 6.3184                 6.3412
 IR Inten    --    103.9081                12.0468                31.7547

                     88                     89                     90
                      A                      A                      A
 Frequencies --   3125.2312              3126.1461              3128.9070
 Red. masses --      1.1027                 1.1022                 1.1029
 Frc consts  --      6.3458                 6.3466                 6.3615
 IR Inten    --     38.7572                31.0534                39.7042

 - Thermochemistry -
 -------------------
 Temperature   298.150 Kelvin.  Pressure   1.00000 Atm.
 Atom     1 has atomic number  6 and mass  12.00000

 Molecular mass:   168.16265 amu.
 Principal axes and moments of inertia in atomic units:
                           1         2         3
     Eigenvalues --  2286.907422375.942084044.36827
           X            0.95098   0.30924  -0.00139
           Y           -0.30922   0.95095   0.00892
           Z            0.00408  -0.00805   0.99996
 This molecule is an asymmetric top.
 Rotational symmetry number  1.
 Warning -- assumption of classical behavior for rotation
           may cause significant error
 Rotational temperatures (Kelvin)      0.03787     0.03645     0.02142
 Rotational constants (GHZ):           0.78916     0.75959     0.44624
 Zero-point vibrational energy     764139.5 (Joules/Mol)
                                  182.63373 (Kcal/Mol)
 Warning -- explicit consideration of  20 degrees of freedom as
           vibrations may cause significant error
 Vibrational temperatures:     27.75    50.60    67.23    98.79   122.74
          (Kelvin)            158.19   191.52   229.38   283.04   313.29
                              332.90   350.71   414.85   438.94   455.88
                              506.16   605.60   629.01   704.41   736.10
                              894.22   995.33  1107.51  1125.01  1158.86
                             1203.78  1237.07  1269.10  1325.74  1348.40
                             1352.38  1378.68  1398.23  1433.31  1539.77
                             1554.22  1561.90  1604.55  1617.85  1633.22
                             1683.20  1693.72  1793.90  1843.54  1847.12
                             1878.49  1892.04  1896.97  1958.69  1995.87
                             2000.35  2023.36  2035.98  2042.08  2066.46
                             2068.72  2071.26  2161.99  2166.77  2167.53
                             2173.99  2174.86  2194.36  2202.22  2202.56
                             2211.51  2214.40  2215.82  2487.75  2511.52
                             4310.62  4312.77  4375.22  4380.16  4386.49
                             4390.98  4391.43  4392.77  4393.59  4399.02
                             4428.11  4439.41  4441.60  4471.95  4481.83
                             4489.39  4495.00  4496.51  4497.83  4501.80

 Zero-point correction=                           0.291045 (Hartree/Particle)
 Thermal correction to Energy=                    0.306130
 Thermal correction to Enthalpy=                  0.307074
 Thermal correction to Gibbs Free Energy=         0.247092
 Sum of electronic and zero-point Energies=           -502.342972
 Sum of electronic and thermal Energies=              -502.327887
 Sum of electronic and thermal Enthalpies=            -502.326943
 Sum of electronic and thermal Free Energies=         -502.386926

                     E (Thermal)             CV                S
                      KCal/Mol        Cal/Mol-Kelvin    Cal/Mol-Kelvin
 Total                  192.100             53.605            126.245
 Electronic               0.000              0.000              0.000
 Translational            0.889              2.981             41.267
 Rotational               0.889              2.981             31.464
 Vibrational            190.322             47.643             53.514
 Vibration     1          0.593              1.986              6.706
 Vibration     2          0.594              1.982              5.514
 Vibration     3          0.595              1.979              4.951
 Vibration     4          0.598              1.969              4.191
 Vibration     5          0.601              1.959              3.765
 Vibration     6          0.606              1.941              3.270
 Vibration     7          0.613              1.920              2.901
 Vibration     8          0.621              1.892              2.557
 Vibration     9          0.636              1.844              2.164
 Vibration    10          0.646              1.814              1.978
 Vibration    11          0.653              1.793              1.868
 Vibration    12          0.659              1.773              1.775
 Vibration    13          0.685              1.695              1.484
 Vibration    14          0.696              1.664              1.389
 Vibration    15          0.704              1.641              1.326
 Vibration    16          0.728              1.572              1.158
 Vibration    17          0.783              1.425              0.889
 Vibration    18          0.797              1.389              0.836
 Vibration    19          0.845              1.273              0.685
 Vibration    20          0.867              1.224              0.630

                           ! Non-Optimized Parameters !
 Normal termination of Gaussian 16 at Wed Dec  9 17:22:45 2020.

 ----------------------------------------------------------------------
 # B3LYP/6-311++G(d,p) empiricaldispersion=gd3bj scf=xqc pop=npa geom=c
 heck
 ----------------------------------------------------------------------

 --------------------------------------
 CID_21762301_JID_2212_Energie_neutraal
 --------------------------------------
 Structure from the checkpoint file:  "JID_2212.chk"
 Charge =  0 Multiplicity = 1

 SCF Done:  E(RB3LYP) =  -502.773175132     A.U. after   13 cycles
 Normal termination of Gaussian 16 at Wed Dec  9 17:26:36 2020.

 ----------------------------------------------------------------------
 # B3LYP/6-311++G(d,p) empiricaldispersion=gd3bj scf=xqc pop=npa geom=c
 heck
 ----------------------------------------------------------------------

 ------------------------------------
 CID_21762301_JID_2212_Energie_kation
 ------------------------------------
 Structure from the checkpoint file:  "JID_2212.chk"
 Charge =  1 Multiplicity = 2

 SCF Done:  E(UB3LYP) =  -502.464289402     A.U. after   21 cycles
 Normal termination of Gaussian 16 at Wed Dec  9 17:34:40 2020.
 Gaussian 16:  ES64L-G16RevA.03 25-Dec-2016

 ----------------------------------------------------------------------
 # B3LYP/6-311++G(d,p) empiricaldispersion=gd3bj scf=xqc pop=npa geom=c
 heck
 ----------------------------------------------------------------------

 -----------------------------------
 CID_21762301_JID_2212_Energie_anion
 -----------------------------------
 Structure from the checkpoint file:  "JID_2212.chk"
 Charge = -1 Multiplicity = 2

                         Standard orientation:
 ---------------------------------------------------------------------
 Center     Atomic      Atomic             Coordinates (Angstroms)
 Number     Number       Type             X           Y           Z
 ---------------------------------------------------------------------
      1          6           0       -3.013912    1.217860   -0.174595
      2          6           0       -2.140528    2.364315    0.336152
      3          6           0       -0.661035    1.979848    0.440334
      4          7           0       -0.122487    1.711782   -0.890341
      5          6           0        0.692360    0.751635   -1.065715
      6          6           0        1.282722   -0.182331   -0.031349
      7          7           0        1.044353   -1.433555    0.027568
      8          6           0        0.088832   -2.047291   -0.889042
      9          6           0       -0.733516   -3.108910   -0.150599
     10          6           0       -1.615708   -2.512418    0.946621
     11          6           0        2.301630    0.419313    0.912560
     12          6           0        3.535607    0.960795    0.172520
     13          1           0       -2.670278    0.880859   -1.158482
     14          1           0       -4.061198    1.525066   -0.267606
     15          1           0       -2.974416    0.360807    0.508113
     16          1           0       -2.225005    3.226366   -0.336303
     17          1           0       -2.486284    2.689922    1.325711
     18          1           0       -0.098768    2.828123    0.854681
     19          1           0       -0.542286    1.130715    1.131954
     20          1           0        1.040143    0.587255   -2.092428
     21          1           0       -0.585540   -1.318413   -1.365814
     22          1           0        0.666604   -2.533558   -1.688099
     23          1           0       -1.351544   -3.644952   -0.882431
     24          1           0       -0.040354   -3.838861    0.284651
     25          1           0       -2.346684   -1.812510    0.524677
     26          1           0       -2.168002   -3.291450    1.483343
     27          1           0       -1.006190   -1.965311    1.673891
     28          1           0        1.836653    1.237339    1.477804
     29          1           0        2.587701   -0.360996    1.623992
     30          1           0        3.262355    1.753741   -0.532596
     31          1           0        4.257419    1.378376    0.882005
     32          1           0        4.033897    0.162992   -0.388969
 ---------------------------------------------------------------------

 SCF Done:  E(UB3LYP) =  -502.765121219     A.U. after   30 cycles

 The electronic state is 2-A.
 Alpha  occ. eigenvalues --  -14.16685 -14.16313 -10.07533 -10.07281 -10.06950
 Alpha  occ. eigenvalues --  -10.06899 -10.05703 -10.05334 -10.05080 -10.04990
 Alpha  occ. eigenvalues --  -10.04575 -10.04322  -0.80278  -0.77641  -0.67689
 Alpha  occ. eigenvalues --   -0.66346  -0.64313  -0.58034  -0.57174  -0.52114
 Alpha  occ. eigenvalues --   -0.49810  -0.47032  -0.45927  -0.39289  -0.37042
 Alpha  occ. eigenvalues --   -0.35848  -0.34798  -0.34179  -0.33540  -0.31660
 Alpha  occ. eigenvalues --   -0.30977  -0.30245  -0.29280  -0.28138  -0.26312
 Alpha  occ. eigenvalues --   -0.25219  -0.24694  -0.24500  -0.23447  -0.23089
 Alpha  occ. eigenvalues --   -0.22736  -0.22121  -0.21695  -0.17186  -0.15898
 Alpha  occ. eigenvalues --   -0.14943  -0.10101   0.04901
 Alpha virt. eigenvalues --    0.07338   0.07670   0.08412   0.08902   0.09469
 Alpha virt. eigenvalues --    0.10235   0.10534   0.10609   0.11153   0.12208
 Alpha virt. eigenvalues --    0.12354   0.12642   0.13365   0.13507   0.13965

  Beta  occ. eigenvalues --  -14.16416 -14.16074 -10.07418 -10.07293 -10.06910
  Beta  occ. eigenvalues --  -10.06815 -10.05685 -10.05316 -10.05070 -10.04982
  Beta  occ. eigenvalues --  -10.04575 -10.04264  -0.79839  -0.77211  -0.67599
  Beta  occ. eigenvalues --   -0.66285  -0.64208  -0.57899  -0.57103  -0.51901
  Beta  occ. eigenvalues --   -0.49559  -0.46980  -0.45713  -0.39112  -0.36916
  Beta  occ. eigenvalues --   -0.35655  -0.34608  -0.34015  -0.33461  -0.31545
  Beta  occ. eigenvalues --   -0.30874  -0.30149  -0.29221  -0.28052  -0.26176
  Beta  occ. eigenvalues --   -0.25042  -0.24536  -0.24391  -0.23401  -0.23039
  Beta  occ. eigenvalues --   -0.22673  -0.22073  -0.21605  -0.16273  -0.15007
  Beta  occ. eigenvalues --   -0.14504  -0.09786
  Beta virt. eigenvalues --    0.07196   0.07920   0.08247   0.08888   0.09624
  Beta virt. eigenvalues --    0.10093   0.10439   0.10551   0.11085   0.11356
  Beta virt. eigenvalues --    0.12322   0.12621   0.12812   0.13436   0.13651

 Mulliken charges and spin densities:
               1          2
     1  C   -0.310971  -0.134569
     2  C    0.176420  -0.607321
     3  C   -0.220476  -0.009778
     4  N    0.000263   0.148023
     5  C   -0.184344  -0.151085
     6  C    0.077854  -0.183609
     7  N    0.052529   0.135572
     8  C   -0.092272  -0.073583
     9  C   -0.315468  -0.065076
    10  C   -0.166901  -0.234104
    11  C   -0.453914   0.463857
    12  C    0.436681  -1.028026
    13  H    0.088983   0.039749
    14  H    0.015201   0.114066
    15  H    0.083828   0.029948
    16  H    0.129236   0.005585
    17  H   -0.201610   0.329691
    18  H   -0.219593   0.408104
    19  H    0.223068  -0.100685
    20  H    0.183773  -0.014249
    21  H    0.154944  -0.027516
    22  H    0.029224   0.119054
    23  H   -0.037672   0.148633
    24  H    0.114263   0.019686
    25  H    0.070604   0.032935
    26  H    0.022193   0.109152
    27  H    0.052796   0.091438
    28  H   -0.196678   0.346227
    29  H   -0.035769   0.169547
    30  H    0.002544   0.154394
    31  H   -0.531748   0.681273
    32  H    0.053011   0.082668
 Sum of Mulliken charges =  -1.00000   1.00000

 Dipole moment (field-independent basis, Debye):
    X=             -3.4233    Y=             -2.9648    Z=             -2.3590  Tot=              5.1062
 Quadrupole moment (field-independent basis, Debye-Ang):
   XX=           -126.8054   YY=           -121.8648   ZZ=           -102.2740
   XY=             -4.2011   XZ=             -5.7333   YZ=             -4.0086

 Summary of Natural Population Analysis:

                                       Natural Population
                Natural  -----------------------------------------------
    Atom  No    Charge         Core      Valence    Rydberg      Total
 -----------------------------------------------------------------------
      C    1   -0.28994      0.99966     2.28417    0.00611     3.28994
      C    2   -0.18987      0.99964     2.18134    0.00889     3.18987
      C    3   -0.10927      0.99960     2.09618    0.01349     3.10927
      N    4   -0.20061      0.99968     2.68895    0.01198     3.70061
      C    5    0.05414      0.99957     1.93057    0.01573     2.94586
      C    6    0.13615      0.99955     1.84886    0.01544     2.86385
      N    7   -0.21480      0.99963     2.70329    0.01189     3.71480
      C    8   -0.10330      0.99960     2.09322    0.01048     3.10330
      C    9   -0.18752      0.99964     2.17991    0.00797     3.18752
      C   10   -0.28850      0.99966     2.28445    0.00439     3.28850
      C   11   -0.21153      0.99960     2.20158    0.01036     3.21153
      C   12   -0.28111      0.99966     2.27667    0.00478     3.28111
      H   13    0.10213      0.00000     0.39680    0.00107     0.39787
      H   14    0.09253      0.00000     0.40677    0.00070     0.40747
      H   15    0.09464      0.00000     0.40421    0.00115     0.40536
      H   16    0.09401      0.00000     0.40464    0.00135     0.40599
      H   17    0.09240      0.00000     0.40643    0.00117     0.40760
      H   18    0.09987      0.00000     0.39806    0.00207     0.40013
      H   19    0.08183      0.00000     0.41545    0.00272     0.41817
      H   20    0.08122      0.00000     0.41720    0.00159     0.41878
      H   21    0.08392      0.00000     0.41359    0.00248     0.41608
      H   22    0.09321      0.00000     0.40571    0.00108     0.40679
      H   23    0.08886      0.00000     0.40972    0.00143     0.41114
      H   24    0.09424      0.00000     0.40414    0.00163     0.40576
      H   25    0.09443      0.00000     0.40432    0.00125     0.40557
      H   26    0.09221      0.00000     0.40695    0.00084     0.40779
      H   27    0.10422      0.00000     0.39453    0.00125     0.39578
      H   28    0.10256      0.00000     0.39494    0.00250     0.39744
      H   29    0.10241      0.00000     0.39573    0.00186     0.39759
      H   30    0.09819      0.00000     0.40098    0.00084     0.40181
      H   31    0.09940      0.00000     0.39857    0.00203     0.40060
      H   32    0.09392      0.00000     0.40523    0.00085     0.40608
 =======================================================================
   * Total *    0.00000     11.99551    34.85314    0.15135    47.00000

 Normal termination of Gaussian 16 at Wed Dec  9 17:45:24 2020.
