 Gaussian 16, Revision A.03,

 -----------------------------------------------------------
 # opt freq B3LYP/6-31G(d) empiricaldispersion=gd3bj scf=xqc
 -----------------------------------------------------------

 ------------------------------
 CID_6880351_JID_10753_neutraal
 ------------------------------
 Symbolic Z-matrix:
 Charge =  0 Multiplicity = 1

 SCF Done:  E(RB3LYP) =  -1275.27012920     A.U. after   15 cycles
 SCF Done:  E(RB3LYP) =  -1275.27454862     A.U. after   14 cycles
 SCF Done:  E(RB3LYP) =  -1275.27144416     A.U. after   14 cycles
 SCF Done:  E(RB3LYP) =  -1275.27620939     A.U. after   13 cycles
 SCF Done:  E(RB3LYP) =  -1275.27721791     A.U. after   13 cycles
 SCF Done:  E(RB3LYP) =  -1275.27763906     A.U. after   12 cycles
 SCF Done:  E(RB3LYP) =  -1275.27786607     A.U. after   12 cycles
 SCF Done:  E(RB3LYP) =  -1275.27799857     A.U. after   11 cycles
 SCF Done:  E(RB3LYP) =  -1275.27804312     A.U. after   11 cycles
 SCF Done:  E(RB3LYP) =  -1275.27805990     A.U. after   10 cycles
 SCF Done:  E(RB3LYP) =  -1275.27806435     A.U. after    9 cycles
 SCF Done:  E(RB3LYP) =  -1275.27806614     A.U. after    8 cycles
 SCF Done:  E(RB3LYP) =  -1275.27806691     A.U. after    8 cycles
 SCF Done:  E(RB3LYP) =  -1275.27806731     A.U. after    8 cycles
 SCF Done:  E(RB3LYP) =  -1275.27806746     A.U. after    8 cycles
 SCF Done:  E(RB3LYP) =  -1275.27806749     A.U. after    7 cycles
 Optimization completed.
    -- Stationary point found.
 Normal termination of Gaussian 16 at Thu Dec 17 20:15:18 2020.

 --------------------------------------------------------------------
 #N Geom=AllCheck Guess=TCheck SCRF=Check GenChk RB3LYP/6-31G(d) Freq
 --------------------------------------------------------------------

 Structure from the checkpoint file:  "JID_10753.chk"
 ------------------------------
 CID_6880351_JID_10753_neutraal
 ------------------------------
 Charge =  0 Multiplicity = 1

 SCF Done:  E(RB3LYP) =  -1275.27806749     A.U. after    1 cycles

  Exact polarizability: 276.967 -20.656 192.865  24.096   4.336 120.841
 Approx polarizability: 410.125 -42.485 330.123  63.828   5.783 202.086

                      1                      2                      3
                      A                      A                      A
 Frequencies --     18.1394                24.1144                29.8058
 Red. masses --      4.9212                 6.1362                 6.4955
 Frc consts  --      0.0010                 0.0021                 0.0034
 IR Inten    --      0.1926                 0.4127                 0.9632

                      4                      5                      6
                      A                      A                      A
 Frequencies --     63.5777                75.1680                90.7455
 Red. masses --      7.0800                 3.8819                 3.5687
 Frc consts  --      0.0169                 0.0129                 0.0173
 IR Inten    --      0.8495                 1.4970                 4.0422

                      7                      8                      9
                      A                      A                      A
 Frequencies --    116.8357               132.5011               149.9110
 Red. masses --      2.8819                 4.7877                 2.0638
 Frc consts  --      0.0232                 0.0495                 0.0273
 IR Inten    --      3.3101                 6.3975                 0.4861

                     10                     11                     12
                      A                      A                      A
 Frequencies --    154.8869               169.8670               182.7916
 Red. masses --      1.9348                 4.1411                 4.7241
 Frc consts  --      0.0273                 0.0704                 0.0930
 IR Inten    --      0.9363                 3.7145                 2.1099

                     13                     14                     15
                      A                      A                      A
 Frequencies --    216.5403               228.7232               233.8234
 Red. masses --      4.2518                 1.8039                 3.5923
 Frc consts  --      0.1175                 0.0556                 0.1157
 IR Inten    --     17.9495                 0.4600                 1.2363

                     16                     17                     18
                      A                      A                      A
 Frequencies --    275.7241               290.0483               320.4931
 Red. masses --      2.1075                 5.9346                 4.7838
 Frc consts  --      0.0944                 0.2942                 0.2895
 IR Inten    --      0.9619                 2.4141                 5.4573

                     19                     20                     21
                      A                      A                      A
 Frequencies --    338.0519               396.8496               406.9996
 Red. masses --      6.2232                 4.7004                 7.4197
 Frc consts  --      0.4190                 0.4362                 0.7241
 IR Inten    --      4.8952                13.4767                 1.6538

                     22                     23                     24
                      A                      A                      A
 Frequencies --    433.4566               460.1603               508.0542
 Red. masses --      3.8342                 4.1953                 4.0693
 Frc consts  --      0.4244                 0.5234                 0.6189
 IR Inten    --     15.8316                35.2808                 2.7047

                     25                     26                     27
                      A                      A                      A
 Frequencies --    520.6082               525.0499               560.7600
 Red. masses --      5.3128                 1.8563                 4.0277
 Frc consts  --      0.8484                 0.3015                 0.7462
 IR Inten    --     13.3738                91.3439                41.3473

                     28                     29                     30
                      A                      A                      A
 Frequencies --    579.5873               581.6709               624.2747
 Red. masses --      4.5064                 3.6723                 3.9163
 Frc consts  --      0.8919                 0.7321                 0.8992
 IR Inten    --     18.3811                48.5867                33.1827

                     31                     32                     33
                      A                      A                      A
 Frequencies --    661.2812               669.2534               716.8323
 Red. masses --      7.7248                 3.8844                 2.9910
 Frc consts  --      1.9903                 1.0251                 0.9055
 IR Inten    --      5.7783                 2.3555                12.8927

                     34                     35                     36
                      A                      A                      A
 Frequencies --    721.9763               732.3195               738.9390
 Red. masses --      2.0007                 3.3188                 5.3309
 Frc consts  --      0.6144                 1.0487                 1.7150
 IR Inten    --     27.9588                63.7578                 8.8210

                     37                     38                     39
                      A                      A                      A
 Frequencies --    757.5935               764.9548               817.2071
 Red. masses --      4.0139                 5.9829                 1.5337
 Frc consts  --      1.3573                 2.0627                 0.6035
 IR Inten    --      4.4000                 2.7696                27.2979

                     40                     41                     42
                      A                      A                      A
 Frequencies --    859.8624               872.4642               883.1511
 Red. masses --      1.3044                 4.1920                 3.4226
 Frc consts  --      0.5682                 1.8800                 1.5728
 IR Inten    --      9.3435                21.7739                 0.6787

                     43                     44                     45
                      A                      A                      A
 Frequencies --    887.3223               922.8909               935.9994
 Red. masses --      1.6719                 1.3374                 1.3012
 Frc consts  --      0.7756                 0.6711                 0.6717
 IR Inten    --     23.4335                 3.1908                 0.4328

                     46                     47                     48
                      A                      A                      A
 Frequencies --    960.0250              1001.4750              1032.0719
 Red. masses --      5.0587                 1.7746                 3.1306
 Frc consts  --      2.7470                 1.0487                 1.9647
 IR Inten    --     10.5723                12.7564                20.2436

                     49                     50                     51
                      A                      A                      A
 Frequencies --   1056.8559              1076.5908              1091.9342
 Red. masses --      4.1640                 3.7902                 1.9211
 Frc consts  --      2.7403                 2.5883                 1.3495
 IR Inten    --     45.0209                37.7749                15.0293

                     52                     53                     54
                      A                      A                      A
 Frequencies --   1114.8509              1139.7198              1175.8611
 Red. masses --      1.4148                 2.4895                 1.7115
 Frc consts  --      1.0361                 1.9053                 1.3942
 IR Inten    --      2.7420                59.7701               138.9194

                     55                     56                     57
                      A                      A                      A
 Frequencies --   1180.0260              1185.3047              1204.7741
 Red. masses --      1.2503                 1.2702                 1.6265
 Frc consts  --      1.0258                 1.0515                 1.3909
 IR Inten    --      0.2297                 0.7872                73.2076

                     58                     59                     60
                      A                      A                      A
 Frequencies --   1221.8997              1237.4020              1268.0174
 Red. masses --      1.3399                 1.7780                 1.5650
 Frc consts  --      1.1787                 1.6040                 1.4826
 IR Inten    --      6.7887               119.3700                18.8907

                     61                     62                     63
                      A                      A                      A
 Frequencies --   1275.3152              1282.9461              1338.5021
 Red. masses --      2.6503                 1.7603                 3.3842
 Frc consts  --      2.5397                 1.7071                 3.5722
 IR Inten    --    125.4994                32.6931               343.2909

                     64                     65                     66
                      A                      A                      A
 Frequencies --   1358.7362              1366.9467              1400.3498
 Red. masses --      5.3195                 7.4112                 2.5302
 Frc consts  --      5.7862                 8.1591                 2.9233
 IR Inten    --    221.6290                47.4963                42.2833

                     67                     68                     69
                      A                      A                      A
 Frequencies --   1420.9601              1459.2230              1474.4870
 Red. masses --      1.5802                 2.0010                 2.1875
 Frc consts  --      1.8799                 2.5103                 2.8021
 IR Inten    --     22.8571                13.0311                58.7333

                     70                     71                     72
                      A                      A                      A
 Frequencies --   1481.1310              1494.9141              1509.7274
 Red. masses --      2.3646                 1.2923                 1.2601
 Frc consts  --      3.0563                 1.7016                 1.6923
 IR Inten    --     34.8636                30.4034                 0.7510

                     73                     74                     75
                      A                      A                      A
 Frequencies --   1514.3562              1522.0057              1531.0400
 Red. masses --      1.2287                 1.0475                 1.0507
 Frc consts  --      1.6601                 1.4296                 1.4511
 IR Inten    --     10.9908                 6.3434                 1.3171

                     76                     77                     78
                      A                      A                      A
 Frequencies --   1534.5058              1553.8363              1582.4525
 Red. masses --      1.0655                 2.9592                 5.0952
 Frc consts  --      1.4783                 4.2095                 7.5175
 IR Inten    --     42.8743                49.4894                23.6430

                     79                     80                     81
                      A                      A                      A
 Frequencies --   1608.4026              1670.2788              1684.5845
 Red. masses --      6.1264                 6.0542                 6.8484
 Frc consts  --      9.3378                 9.9514                11.4505
 IR Inten    --    133.5684               338.8680                10.5583

                     82                     83                     84
                      A                      A                      A
 Frequencies --   1734.5026              3033.5510              3035.7650
 Red. masses --      8.3993                 1.0344                 1.0378
 Frc consts  --     14.8883                 5.6084                 5.6353
 IR Inten    --    432.9045                63.3654                54.5497

                     85                     86                     87
                      A                      A                      A
 Frequencies --   3095.6229              3097.3520              3115.0382
 Red. masses --      1.1070                 1.0873                 1.0988
 Frc consts  --      6.2502                 6.1456                 6.2820
 IR Inten    --     37.3097                25.5923                28.1077

                     88                     89                     90
                      A                      A                      A
 Frequencies --   3160.2584              3167.1188              3188.9015
 Red. masses --      1.1035                 1.1004                 1.0894
 Frc consts  --      6.4931                 6.5035                 6.5271
 IR Inten    --     28.0429                25.3739                 9.4186

                     91                     92                     93
                      A                      A                      A
 Frequencies --   3224.4370              3230.4318              3238.4747
 Red. masses --      1.0898                 1.0915                 1.0915
 Frc consts  --      6.6760                 6.7109                 6.7447
 IR Inten    --      6.1066                 1.2463                 9.8299

                     94                     95                     96
                      A                      A                      A
 Frequencies --   3256.4900              3268.3501              3607.0121
 Red. masses --      1.0938                 1.0973                 1.0766
 Frc consts  --      6.8342                 6.9061                 8.2529
 IR Inten    --      0.5966                 0.8938                54.0280

 - Thermochemistry -
 -------------------
 Temperature   298.150 Kelvin.  Pressure   1.00000 Atm.
 Atom     1 has atomic number  6 and mass  12.00000

 Molecular mass:   290.07251 amu.
 Principal axes and moments of inertia in atomic units:
                           1         2         3
     Eigenvalues --  3334.43443********************
           X            0.99993  -0.01152  -0.00295
           Y            0.01158   0.99966   0.02342
           Z            0.00268  -0.02346   0.99972
 This molecule is an asymmetric top.
 Rotational symmetry number  1.
 Warning -- assumption of classical behavior for rotation
           may cause significant error
 Rotational temperatures (Kelvin)      0.02598     0.00780     0.00664
 Rotational constants (GHZ):           0.54124     0.16250     0.13832
 Zero-point vibrational energy     688547.1 (Joules/Mol)
                                  164.56670 (Kcal/Mol)
 Warning -- explicit consideration of  29 degrees of freedom as
           vibrations may cause significant error
 Vibrational temperatures:     26.10    34.70    42.88    91.47   108.15
          (Kelvin)            130.56   168.10   190.64   215.69   222.85
                              244.40   263.00   311.55   329.08   336.42
                              396.71   417.31   461.12   486.38   570.98
                              585.58   623.65   662.07   730.98   749.04
                              755.43   806.81   833.90   836.89   898.19
                              951.44   962.91  1031.36  1038.76  1053.64
                             1063.17  1090.01  1100.60  1175.78  1237.15
                             1255.28  1270.66  1276.66  1327.83  1346.69
                             1381.26  1440.90  1484.92  1520.58  1548.97
                             1571.05  1604.02  1639.80  1691.80  1697.79
                             1705.39  1733.40  1758.04  1780.35  1824.39
                             1834.89  1845.87  1925.81  1954.92  1966.73
                             2014.79  2044.44  2099.50  2121.46  2131.02
                             2150.85  2172.16  2178.82  2189.83  2202.83
                             2207.81  2235.62  2276.80  2314.13  2403.16
                             2423.74  2495.56  4364.60  4367.79  4453.91
                             4456.40  4481.85  4546.91  4556.78  4588.12
                             4639.25  4647.87  4659.44  4685.36  4702.43
                             5189.69

 Zero-point correction=                           0.262254 (Hartree/Particle)
 Thermal correction to Energy=                    0.281354
 Thermal correction to Enthalpy=                  0.282299
 Thermal correction to Gibbs Free Energy=         0.212201
 Sum of electronic and zero-point Energies=          -1275.015814
 Sum of electronic and thermal Energies=             -1274.996713
 Sum of electronic and thermal Enthalpies=           -1274.995769
 Sum of electronic and thermal Free Energies=        -1275.065866

                     E (Thermal)             CV                S
                      KCal/Mol        Cal/Mol-Kelvin    Cal/Mol-Kelvin
 Total                  176.553             70.619            147.532
 Electronic               0.000              0.000              0.000
 Translational            0.889              2.981             42.892
 Rotational               0.889              2.981             34.534
 Vibrational            174.775             64.657             70.105
 Vibration     1          0.593              1.986              6.828
 Vibration     2          0.593              1.985              6.263
 Vibration     3          0.594              1.984              5.842
 Vibration     4          0.597              1.972              4.343
 Vibration     5          0.599              1.966              4.013
 Vibration     6          0.602              1.956              3.644
 Vibration     7          0.608              1.935              3.152
 Vibration     8          0.613              1.921              2.909
 Vibration     9          0.618              1.903              2.673
 Vibration    10          0.620              1.897              2.611
 Vibration    11          0.625              1.880              2.437
 Vibration    12          0.630              1.863              2.300
 Vibration    13          0.645              1.816              1.988
 Vibration    14          0.651              1.797              1.889
 Vibration    15          0.654              1.789              1.849
 Vibration    16          0.677              1.718              1.560
 Vibration    17          0.686              1.692              1.474
 Vibration    18          0.706              1.634              1.308
 Vibration    19          0.718              1.599              1.221
 Vibration    20          0.763              1.477              0.974
 Vibration    21          0.772              1.455              0.937
 Vibration    22          0.794              1.397              0.847
 Vibration    23          0.818              1.338              0.766
 Vibration    24          0.863              1.232              0.638
 Vibration    25          0.876              1.204              0.609
 Vibration    26          0.880              1.195              0.598
 Vibration    27          0.916              1.116              0.522
 Vibration    28          0.936              1.075              0.486
 Vibration    29          0.938              1.071              0.482

                           ! Non-Optimized Parameters !
 Normal termination of Gaussian 16 at Thu Dec 17 20:32:16 2020.

 ----------------------------------------------------------------------
 # B3LYP/6-311++G(d,p) empiricaldispersion=gd3bj scf=xqc pop=npa geom=c
 heck
 ----------------------------------------------------------------------

 --------------------------------------
 CID_6880351_JID_10753_Energie_neutraal
 --------------------------------------
 Structure from the checkpoint file:  "JID_10753.chk"
 Charge =  0 Multiplicity = 1

 SCF Done:  E(RB3LYP) =  -1275.54745298     A.U. after   17 cycles
 Normal termination of Gaussian 16 at Thu Dec 17 20:40:14 2020.

 ----------------------------------------------------------------------
 # B3LYP/6-311++G(d,p) empiricaldispersion=gd3bj scf=xqc pop=npa geom=c
 heck
 ----------------------------------------------------------------------

 ------------------------------------
 CID_6880351_JID_10753_Energie_kation
 ------------------------------------
 Structure from the checkpoint file:  "JID_10753.chk"
 Charge =  1 Multiplicity = 2

 SCF Done:  E(UB3LYP) =  -1275.26704042     A.U. after   27 cycles
 Normal termination of Gaussian 16 at Thu Dec 17 20:58:40 2020.
 Gaussian 16:  ES64L-G16RevA.03 25-Dec-2016

 ----------------------------------------------------------------------
 # B3LYP/6-311++G(d,p) empiricaldispersion=gd3bj scf=xqc pop=npa geom=c
 heck
 ----------------------------------------------------------------------

 -----------------------------------
 CID_6880351_JID_10753_Energie_anion
 -----------------------------------
 Structure from the checkpoint file:  "JID_10753.chk"
 Charge = -1 Multiplicity = 2

                         Standard orientation:
 ---------------------------------------------------------------------
 Center     Atomic      Atomic             Coordinates (Angstroms)
 Number     Number       Type             X           Y           Z
 ---------------------------------------------------------------------
      1          6           0        5.545560   -2.146597   -0.319305
      2          8           0        5.098114   -0.866066    0.103127
      3          6           0        3.809405   -0.522925   -0.150759
      4          6           0        3.425977    0.754923    0.280236
      5          6           0        2.133972    1.219270    0.080250
      6          6           0        1.172344    0.404796   -0.573882
      7          6           0        1.588402   -0.866979   -1.000120
      8          6           0        2.877725   -1.345739   -0.796273
      9          6           0       -0.202465    0.779193   -0.869959
     10          7           0       -0.795552    1.824025   -0.407369
     11          7           0       -2.142459    1.924287   -0.761310
     12          6           0       -3.184832    1.032801   -0.592279
     13          8           0       -4.304551    1.331498   -1.000808
     14          6           0       -2.951595   -0.251863    0.110500
     15          6           0       -2.064552   -0.627701    1.095296
     16          6           0       -2.295928   -1.945914    1.576591
     17          6           0       -3.354249   -2.554589    0.951340
     18         16           0       -4.104898   -1.522364   -0.211809
     19          8           0        1.852458    2.499233    0.474629
     20          6           0        1.248623    2.615076    1.764103
     21          1           0        6.592891   -2.209301   -0.021126
     22          1           0        5.468296   -2.257521   -1.408140
     23          1           0        4.978186   -2.949276    0.168446
     24          1           0        4.153435    1.396229    0.764794
     25          1           0        0.867272   -1.503399   -1.506309
     26          1           0        3.143536   -2.336348   -1.143033
     27          1           0       -0.745493    0.074675   -1.507107
     28          1           0       -2.446457    2.875829   -0.925098
     29          1           0       -1.281181    0.018329    1.468464
     30          1           0       -1.701492   -2.418178    2.350701
     31          1           0       -3.736427   -3.553265    1.115698
     32          1           0        1.156321    3.685176    1.958895
     33          1           0        0.252414    2.162483    1.772190
     34          1           0        1.884657    2.154381    2.531309
 ---------------------------------------------------------------------

 SCF Done:  E(UB3LYP) =  -1275.56760173     A.U. after   25 cycles

 The electronic state is 2-A.
 Alpha  occ. eigenvalues --  -88.74881 -19.05668 -19.01976 -18.94389 -14.22573
 Alpha  occ. eigenvalues --  -14.18649 -10.14325 -10.13257 -10.11666 -10.10903
 Alpha  occ. eigenvalues --  -10.10347 -10.07644 -10.07154 -10.06099 -10.05999
 Alpha  occ. eigenvalues --  -10.05964 -10.05870 -10.05538 -10.05452 -10.04994
 Alpha  occ. eigenvalues --   -7.83505  -5.79788  -5.79421  -5.79132  -0.97496
 Alpha  occ. eigenvalues --   -0.93875  -0.90587  -0.84827  -0.75749  -0.74213
 Alpha  occ. eigenvalues --   -0.69926  -0.65701  -0.64007  -0.61742  -0.61416
 Alpha  occ. eigenvalues --   -0.60473  -0.57809  -0.52345  -0.50087  -0.49428
 Alpha  occ. eigenvalues --   -0.46062  -0.43979  -0.43494  -0.41896  -0.40602
 Alpha  occ. eigenvalues --   -0.39437  -0.38529  -0.38192  -0.36459  -0.35343
 Alpha  occ. eigenvalues --   -0.34826  -0.33834  -0.32198  -0.31796  -0.31022
 Alpha  occ. eigenvalues --   -0.30094  -0.28547  -0.28071  -0.27857  -0.27426
 Alpha  occ. eigenvalues --   -0.26795  -0.26179  -0.25268  -0.24723  -0.23507
 Alpha  occ. eigenvalues --   -0.22635  -0.22110  -0.20219  -0.17985  -0.15825
 Alpha  occ. eigenvalues --   -0.13811  -0.13768  -0.13622  -0.11946  -0.11406
 Alpha  occ. eigenvalues --   -0.08430   0.03100
 Alpha virt. eigenvalues --    0.05989   0.07368   0.08035   0.08383   0.08867
 Alpha virt. eigenvalues --    0.09676   0.09738   0.10210   0.10737   0.11011
 Alpha virt. eigenvalues --    0.11395   0.11913   0.12602   0.13067   0.13490

  Beta  occ. eigenvalues --  -88.74847 -19.05603 -19.01969 -18.94134 -14.22673
  Beta  occ. eigenvalues --  -14.18336 -10.14327 -10.13074 -10.11408 -10.10730
  Beta  occ. eigenvalues --  -10.10320 -10.07516 -10.07048 -10.06167 -10.06047
  Beta  occ. eigenvalues --  -10.05724 -10.05720 -10.05621 -10.05452 -10.04903
  Beta  occ. eigenvalues --   -7.83474  -5.79769  -5.79404  -5.79027  -0.97330
  Beta  occ. eigenvalues --   -0.93802  -0.90200  -0.84435  -0.75588  -0.74005
  Beta  occ. eigenvalues --   -0.69617  -0.65516  -0.63840  -0.61496  -0.61201
  Beta  occ. eigenvalues --   -0.60339  -0.57782  -0.51854  -0.49850  -0.49186
  Beta  occ. eigenvalues --   -0.45831  -0.43864  -0.43401  -0.41660  -0.40467
  Beta  occ. eigenvalues --   -0.39334  -0.38339  -0.38108  -0.36356  -0.35217
  Beta  occ. eigenvalues --   -0.34652  -0.33731  -0.32027  -0.31634  -0.30946
  Beta  occ. eigenvalues --   -0.29680  -0.28235  -0.27783  -0.27544  -0.27213
  Beta  occ. eigenvalues --   -0.26495  -0.25915  -0.24777  -0.24490  -0.23213
  Beta  occ. eigenvalues --   -0.22354  -0.21704  -0.19394  -0.17444  -0.15686
  Beta  occ. eigenvalues --   -0.13415  -0.13289  -0.13034  -0.11118  -0.10822
  Beta  occ. eigenvalues --   -0.07820
  Beta virt. eigenvalues --    0.05977   0.07692   0.08062   0.08358   0.08806
  Beta virt. eigenvalues --    0.09312   0.09740   0.09953   0.10266   0.10733
  Beta virt. eigenvalues --    0.11018   0.11378   0.11904   0.12589   0.13085

 Mulliken charges and spin densities:
               1          2
     1  C   -0.315840  -0.004392
     2  O   -0.168071   0.010204
     3  C   -0.465128   0.164242
     4  C   -0.404790  -0.058825
     5  C   -0.557995   0.133275
     6  C    1.384581  -0.036520
     7  C   -0.939314   0.094898
     8  C   -0.112607  -0.038922
     9  C    0.203580   0.188228
    10  N   -0.201335   0.134070
    11  N   -0.184668  -0.039355
    12  C   -0.352670   0.072370
    13  O   -0.362248   0.091391
    14  C    0.205567   0.027296
    15  C    0.429136   0.121753
    16  C   -0.612008  -0.030454
    17  C    0.025351   0.074586
    18  S   -0.327418   0.065523
    19  O   -0.086000   0.001160
    20  C   -0.233377  -0.035803
    21  H    0.154710  -0.000329
    22  H    0.135299   0.005549
    23  H    0.139690   0.002503
    24  H    0.170983   0.005002
    25  H    0.082905  -0.005865
    26  H    0.159807   0.002809
    27  H    0.200677  -0.014078
    28  H    0.277580   0.022311
    29  H    0.097129  -0.002740
    30  H    0.120029   0.005438
    31  H    0.202104  -0.005873
    32  H    0.116510   0.014652
    33  H    0.128630   0.025970
    34  H    0.089203   0.009926
 Sum of Mulliken charges =  -1.00000   1.00000

 Dipole moment (field-independent basis, Debye):
    X=              6.9205    Y=             -4.1258    Z=              1.9575  Tot=              8.2914
 Quadrupole moment (field-independent basis, Debye-Ang):
   XX=           -193.7717   YY=           -136.0280   ZZ=           -133.9084
   XY=             -3.1264   XZ=             -6.3768   YZ=              5.6310

 Summary of Natural Population Analysis:

                                       Natural Population
                Natural  -----------------------------------------------
    Atom  No    Charge         Core      Valence    Rydberg      Total
 -----------------------------------------------------------------------
      C    1   -0.10052      0.99961     2.09283    0.00807     3.10052
      O    2   -0.26968      0.99985     3.26040    0.00943     4.26968
      C    3    0.20412      0.99940     1.78519    0.01129     2.79588
      C    4   -0.16354      0.99949     2.15522    0.00884     3.16354
      C    5    0.20836      0.99935     1.77989    0.01240     2.79164
      C    6   -0.08371      0.99945     2.07318    0.01107     3.08371
      C    7   -0.04147      0.99956     2.03380    0.00810     3.04147
      C    8   -0.17772      0.99953     2.17053    0.00766     3.17772
      C    9    0.08507      0.99961     1.90116    0.01417     2.91493
      N   10   -0.12066      0.99965     2.60654    0.01447     3.62066
      N   11   -0.24306      0.99966     2.72921    0.01418     3.74306
      C   12    0.33127      0.99957     1.64622    0.02294     2.66873
      O   13   -0.30558      0.99988     3.29999    0.00571     4.30558
      C   14   -0.12382      0.99947     2.11128    0.01307     3.12382
      C   15   -0.09949      0.99949     2.09130    0.00869     3.09949
      C   16   -0.14497      0.99954     2.13558    0.00984     3.14497
      C   17   -0.18206      0.99956     2.17132    0.01118     3.18206
      S   18    0.22968      4.99943     2.74813    0.02276     7.77032
      O   19   -0.28805      0.99986     3.27781    0.01038     4.28805
      C   20   -0.09433      0.99959     2.08645    0.00830     3.09433
      H   21    0.08785      0.00000     0.41136    0.00078     0.41215
      H   22    0.08163      0.00000     0.41681    0.00156     0.41837
      H   23    0.08176      0.00000     0.41668    0.00156     0.41824
      H   24    0.10431      0.00000     0.39398    0.00172     0.39569
      H   25    0.09552      0.00000     0.40314    0.00134     0.40448
      H   26    0.09805      0.00000     0.40092    0.00103     0.40195
      H   27    0.07703      0.00000     0.42091    0.00206     0.42297
      H   28    0.19016      0.00000     0.30812    0.00172     0.30984
      H   29    0.11224      0.00000     0.38599    0.00177     0.38776
      H   30    0.09997      0.00000     0.39895    0.00107     0.40003
      H   31    0.10031      0.00000     0.39877    0.00092     0.39969
      H   32    0.08382      0.00000     0.41489    0.00129     0.41618
      H   33    0.09429      0.00000     0.40372    0.00199     0.40571
      H   34    0.07318      0.00000     0.42483    0.00198     0.42682
 =======================================================================
   * Total *    0.00000     23.99157    51.75509    0.25334    76.00000

 Normal termination of Gaussian 16 at Thu Dec 17 21:16:09 2020.
