 Gaussian 16, Revision A.03,

 -----------------------------------------------------------
 # opt freq B3LYP/6-31G(d) empiricaldispersion=gd3bj scf=xqc
 -----------------------------------------------------------

 -------------------------------
 CID_122695050_JID_7068_neutraal
 -------------------------------
 Symbolic Z-matrix:
 Charge =  0 Multiplicity = 1

 SCF Done:  E(RB3LYP) =  -802.071746130     A.U. after   19 cycles
 SCF Done:  E(RB3LYP) =  -802.074589807     A.U. after   14 cycles
 SCF Done:  E(RB3LYP) =  -802.074398277     A.U. after   14 cycles
 SCF Done:  E(RB3LYP) =  -802.071404778     A.U. after   15 cycles
 SCF Done:  E(RB3LYP) =  -802.069523144     A.U. after   13 cycles
 SCF Done:  E(RB3LYP) =  -802.074711294     A.U. after    9 cycles
 SCF Done:  E(RB3LYP) =  -802.076691337     A.U. after   14 cycles
 SCF Done:  E(RB3LYP) =  -802.077007616     A.U. after   13 cycles
 SCF Done:  E(RB3LYP) =  -802.076829414     A.U. after   14 cycles
 SCF Done:  E(RB3LYP) =  -802.077143125     A.U. after   13 cycles
 SCF Done:  E(RB3LYP) =  -802.077212476     A.U. after   11 cycles
 SCF Done:  E(RB3LYP) =  -802.077214563     A.U. after   10 cycles
 SCF Done:  E(RB3LYP) =  -802.077215543     A.U. after    9 cycles
 SCF Done:  E(RB3LYP) =  -802.077216702     A.U. after    9 cycles
 SCF Done:  E(RB3LYP) =  -802.077217134     A.U. after    9 cycles
 Optimization completed.
    -- Stationary point found.
 Normal termination of Gaussian 16 at Sun Dec 13 20:10:33 2020.

 --------------------------------------------------------------------
 #N Geom=AllCheck Guess=TCheck SCRF=Check GenChk RB3LYP/6-31G(d) Freq
 --------------------------------------------------------------------

 Structure from the checkpoint file:  "JID_7068.chk"
 -------------------------------
 CID_122695050_JID_7068_neutraal
 -------------------------------
 Charge =  0 Multiplicity = 1

 SCF Done:  E(RB3LYP) =  -802.077217134     A.U. after    1 cycles

  Exact polarizability: 170.387 -12.188 147.691  14.504  15.933 116.919
 Approx polarizability: 244.500 -30.520 246.297  37.753  44.043 199.944

                      1                      2                      3
                      A                      A                      A
 Frequencies --     23.7603                34.7711                47.8329
 Red. masses --      4.8379                 5.5689                 3.6974
 Frc consts  --      0.0016                 0.0040                 0.0050
 IR Inten    --      1.6809                 2.0210                 0.9120

                      4                      5                      6
                      A                      A                      A
 Frequencies --     56.7914                95.7961               115.9483
 Red. masses --      7.9589                 3.6023                 7.2885
 Frc consts  --      0.0151                 0.0195                 0.0577
 IR Inten    --      0.6687                 0.8278                 4.7781

                      7                      8                      9
                      A                      A                      A
 Frequencies --    159.9512               178.0534               203.8309
 Red. masses --      4.7781                 5.8082                 3.0489
 Frc consts  --      0.0720                 0.1085                 0.0746
 IR Inten    --      0.2616                 1.2761                 0.4659

                     10                     11                     12
                      A                      A                      A
 Frequencies --    223.3802               260.7834               280.7475
 Red. masses --      1.7168                 1.5204                 1.1206
 Frc consts  --      0.0505                 0.0609                 0.0520
 IR Inten    --      0.5655                 1.5379                 0.5188

                     13                     14                     15
                      A                      A                      A
 Frequencies --    292.1595               318.3631               327.6841
 Red. masses --      1.3330                 2.4148                 4.4493
 Frc consts  --      0.0670                 0.1442                 0.2815
 IR Inten    --      0.3226                 2.1849                 3.6686

                     16                     17                     18
                      A                      A                      A
 Frequencies --    358.5843               377.1106               404.6732
 Red. masses --      2.3907                 2.8725                 4.2329
 Frc consts  --      0.1811                 0.2407                 0.4084
 IR Inten    --      1.1359                 2.2875                 1.5111

                     19                     20                     21
                      A                      A                      A
 Frequencies --    411.8779               440.0453               458.9222
 Red. masses --      2.9687                 3.2021                 2.6527
 Frc consts  --      0.2967                 0.3653                 0.3292
 IR Inten    --      0.4145                 0.0843                 3.2132

                     22                     23                     24
                      A                      A                      A
 Frequencies --    485.4073               520.1440               541.5288
 Red. masses --      3.9091                 3.8084                 5.3148
 Frc consts  --      0.5427                 0.6071                 0.9183
 IR Inten    --      1.3318                 2.3417                13.9359

                     25                     26                     27
                      A                      A                      A
 Frequencies --    566.0360               579.7419               657.1254
 Red. masses --      3.8133                 2.7372                 2.3068
 Frc consts  --      0.7198                 0.5420                 0.5869
 IR Inten    --     19.5033                 3.0265                34.9405

                     28                     29                     30
                      A                      A                      A
 Frequencies --    690.5385               700.8632               742.7651
 Red. masses --      4.6616                 2.8565                 2.6123
 Frc consts  --      1.3097                 0.8267                 0.8491
 IR Inten    --     12.6865                21.7359                49.8680

                     31                     32                     33
                      A                      A                      A
 Frequencies --    746.4439               799.4127               826.7072
 Red. masses --      3.2564                 3.9287                 2.3304
 Frc consts  --      1.0690                 1.4792                 0.9384
 IR Inten    --     28.5431                10.6333                24.3388

                     34                     35                     36
                      A                      A                      A
 Frequencies --    836.5866               865.1349               922.9776
 Red. masses --      3.0003                 2.9483                 1.9614
 Frc consts  --      1.2372                 1.3001                 0.9845
 IR Inten    --     19.6599                 3.6289                 7.2546

                     37                     38                     39
                      A                      A                      A
 Frequencies --    931.3891               932.3656               945.6864
 Red. masses --      2.5387                 1.7425                 1.8050
 Frc consts  --      1.2976                 0.8925                 0.9511
 IR Inten    --      6.5120                 1.0845                 2.7836

                     40                     41                     42
                      A                      A                      A
 Frequencies --    967.9254               979.0030               981.3228
 Red. masses --      1.3990                 1.2789                 1.7751
 Frc consts  --      0.7722                 0.7222                 1.0072
 IR Inten    --      1.2644                 0.8516                 2.8243

                     43                     44                     45
                      A                      A                      A
 Frequencies --   1010.9706              1019.3776              1025.9099
 Red. masses --      1.4011                 2.2783                 4.5312
 Frc consts  --      0.8437                 1.3948                 2.8098
 IR Inten    --      0.9188                 8.7734                 1.6282

                     46                     47                     48
                      A                      A                      A
 Frequencies --   1064.1355              1072.7572              1119.4843
 Red. masses --      1.3978                 1.4411                 1.5139
 Frc consts  --      0.9326                 0.9771                 1.1178
 IR Inten    --      3.4454                 0.3974                19.0482

                     49                     50                     51
                      A                      A                      A
 Frequencies --   1128.9767              1188.1112              1204.1338
 Red. masses --      1.9364                 1.2329                 1.1922
 Frc consts  --      1.4542                 1.0254                 1.0184
 IR Inten    --     21.2185                37.3978                 7.9509

                     52                     53                     54
                      A                      A                      A
 Frequencies --   1236.6559              1244.7972              1264.2054
 Red. masses --      2.6667                 2.2499                 2.7662
 Frc consts  --      2.4029                 2.0541                 2.6048
 IR Inten    --      3.8387                37.7655                16.9516

                     55                     56                     57
                      A                      A                      A
 Frequencies --   1285.9280              1317.7343              1338.1321
 Red. masses --      3.1173                 1.5842                 1.3653
 Frc consts  --      3.0372                 1.6207                 1.4404
 IR Inten    --     25.3211                 5.0167                 7.9164

                     58                     59                     60
                      A                      A                      A
 Frequencies --   1377.6227              1400.2178              1418.5310
 Red. masses --      5.9455                13.0459                 3.7037
 Frc consts  --      6.6482                15.0701                 4.3910
 IR Inten    --     25.7987               305.2043               195.0287

                     61                     62                     63
                      A                      A                      A
 Frequencies --   1428.4248              1429.5515              1455.8961
 Red. masses --      1.2439                 1.2410                 1.2693
 Frc consts  --      1.4953                 1.4942                 1.5852
 IR Inten    --      8.5801                 2.9871                33.7371

                     64                     65                     66
                      A                      A                      A
 Frequencies --   1489.2803              1490.4144              1506.0442
 Red. masses --      1.7285                 1.9260                 1.0922
 Frc consts  --      2.2588                 2.5208                 1.4596
 IR Inten    --     21.0391                 5.5177                12.2498

                     67                     68                     69
                      A                      A                      A
 Frequencies --   1510.2471              1515.4469              1523.4247
 Red. masses --      1.0618                 1.0491                 1.0974
 Frc consts  --      1.4269                 1.4195                 1.5006
 IR Inten    --      1.2432                 1.5864                 7.8082

                     70                     71                     72
                      A                      A                      A
 Frequencies --   1531.4938              1538.7304              1541.5185
 Red. masses --      2.1449                 1.1116                 1.0756
 Frc consts  --      2.9640                 1.5506                 1.5059
 IR Inten    --      6.8313                 1.0658                 1.4612

                     73                     74                     75
                      A                      A                      A
 Frequencies --   1556.6254              1627.0543              1644.0993
 Red. masses --      1.0633                 8.2495                 6.8459
 Frc consts  --      1.5180                12.8672                10.9028
 IR Inten    --      4.5364               159.0859                44.8527

                     76                     77                     78
                      A                      A                      A
 Frequencies --   1682.2620              1760.3021              3049.1115
 Red. masses --      7.5928                 6.7720                 1.0373
 Frc consts  --     12.6601                12.3635                 5.6820
 IR Inten    --     20.0445               331.0123                16.8829

                     79                     80                     81
                      A                      A                      A
 Frequencies --   3056.7853              3069.1658              3087.9857
 Red. masses --      1.0373                 1.0381                 1.0678
 Frc consts  --      5.7108                 5.7617                 5.9992
 IR Inten    --     24.0615                 9.1128                 5.3160

                     82                     83                     84
                      A                      A                      A
 Frequencies --   3116.0312              3121.8332              3130.8290
 Red. masses --      1.1006                 1.1019                 1.1028
 Frc consts  --      6.2965                 6.3273                 6.3689
 IR Inten    --      6.7031                33.0179                 9.5391

                     85                     86                     87
                      A                      A                      A
 Frequencies --   3140.2806              3152.2658              3155.8947
 Red. masses --      1.1025                 1.1002                 1.0995
 Frc consts  --      6.4057                 6.4413                 6.4517
 IR Inten    --     34.2928                 6.8741                31.4095

                     88                     89                     90
                      A                      A                      A
 Frequencies --   3167.5384              3205.9041              3220.2189
 Red. masses --      1.0948                 1.0884                 1.0943
 Frc consts  --      6.4717                 6.5909                 6.6857
 IR Inten    --      9.5616                 5.9122                 4.4684

                     91                     92                     93
                      A                      A                      A
 Frequencies --   3242.5149              3256.7547              3553.7876
 Red. masses --      1.0907                 1.0928                 1.0745
 Frc consts  --      6.7567                 6.8290                 7.9956
 IR Inten    --      1.9627                 1.3782                13.2139

 - Thermochemistry -
 -------------------
 Temperature   298.150 Kelvin.  Pressure   1.00000 Atm.
 Atom     1 has atomic number  6 and mass  12.00000

 Molecular mass:   236.11609 amu.
 Principal axes and moments of inertia in atomic units:
                           1         2         3
     Eigenvalues --  2424.501186329.631217490.40617
           X            0.99919   0.04015  -0.00262
           Y           -0.04015   0.99919   0.00123
           Z            0.00267  -0.00112   1.00000
 This molecule is an asymmetric top.
 Rotational symmetry number  1.
 Warning -- assumption of classical behavior for rotation
           may cause significant error
 Rotational temperatures (Kelvin)      0.03572     0.01368     0.01156
 Rotational constants (GHZ):           0.74438     0.28513     0.24094
 Zero-point vibrational energy     717553.5 (Joules/Mol)
                                  171.49939 (Kcal/Mol)
 Warning -- explicit consideration of  26 degrees of freedom as
           vibrations may cause significant error
 Vibrational temperatures:     34.19    50.03    68.82    81.71   137.83
          (Kelvin)            166.82   230.13   256.18   293.27   321.39
                              375.21   403.93   420.35   458.05   471.46
                              515.92   542.58   582.23   592.60   633.13
                              660.29   698.39   748.37   779.14   814.40
                              834.12   945.46   993.53  1008.39  1068.67
                             1073.97  1150.18  1189.45  1203.66  1244.74
                             1327.96  1340.06  1341.47  1360.63  1392.63
                             1408.57  1411.90  1454.56  1466.66  1476.06
                             1531.05  1543.46  1610.69  1624.35  1709.43
                             1732.48  1779.27  1790.99  1818.91  1850.16
                             1895.93  1925.27  1982.09  2014.60  2040.95
                             2055.18  2056.81  2094.71  2142.74  2144.37
                             2166.86  2172.91  2180.39  2191.87  2203.48
                             2213.89  2217.90  2239.64  2340.97  2365.49
                             2420.40  2532.68  4386.99  4398.03  4415.84
                             4442.92  4483.27  4491.62  4504.56  4518.16
                             4535.41  4540.63  4557.38  4612.58  4633.18
                             4665.26  4685.74  5113.11

 Zero-point correction=                           0.273302 (Hartree/Particle)
 Thermal correction to Energy=                    0.289791
 Thermal correction to Enthalpy=                  0.290735
 Thermal correction to Gibbs Free Energy=         0.227968
 Sum of electronic and zero-point Energies=           -801.803915
 Sum of electronic and thermal Energies=              -801.787426
 Sum of electronic and thermal Enthalpies=            -801.786482
 Sum of electronic and thermal Free Energies=         -801.849249

                     E (Thermal)             CV                S
                      KCal/Mol        Cal/Mol-Kelvin    Cal/Mol-Kelvin
 Total                  181.847             62.658            132.104
 Electronic               0.000              0.000              0.000
 Translational            0.889              2.981             42.279
 Rotational               0.889              2.981             33.108
 Vibrational            180.069             56.696             56.717
 Vibration     1          0.593              1.985              6.292
 Vibration     2          0.594              1.983              5.537
 Vibration     3          0.595              1.978              4.905
 Vibration     4          0.596              1.975              4.566
 Vibration     5          0.603              1.952              3.538
 Vibration     6          0.608              1.936              3.167
 Vibration     7          0.622              1.891              2.550
 Vibration     8          0.628              1.869              2.349
 Vibration     9          0.640              1.834              2.098
 Vibration    10          0.649              1.805              1.932
 Vibration    11          0.669              1.744              1.657
 Vibration    12          0.680              1.709              1.529
 Vibration    13          0.688              1.688              1.461
 Vibration    14          0.705              1.638              1.318
 Vibration    15          0.711              1.620              1.271
 Vibration    16          0.733              1.558              1.128
 Vibration    17          0.748              1.519              1.051
 Vibration    18          0.770              1.460              0.946
 Vibration    19          0.776              1.444              0.920
 Vibration    20          0.800              1.383              0.826
 Vibration    21          0.817              1.341              0.769
 Vibration    22          0.841              1.282              0.696
 Vibration    23          0.875              1.205              0.610
 Vibration    24          0.897              1.158              0.562
 Vibration    25          0.922              1.105              0.512
 Vibration    26          0.936              1.075              0.486

 Optimization completed.
    -- Stationary point found.
 Normal termination of Gaussian 16 at Sun Dec 13 20:22:59 2020.

 ----------------------------------------------------------------------
 # B3LYP/6-311++G(d,p) empiricaldispersion=gd3bj scf=xqc pop=npa geom=c
 heck
 ----------------------------------------------------------------------

 ---------------------------------------
 CID_122695050_JID_7068_Energie_neutraal
 ---------------------------------------
 Structure from the checkpoint file:  "JID_7068.chk"
 Charge =  0 Multiplicity = 1

 SCF Done:  E(RB3LYP) =  -802.307288648     A.U. after   20 cycles
 Normal termination of Gaussian 16 at Sun Dec 13 20:30:49 2020.

 ----------------------------------------------------------------------
 # B3LYP/6-311++G(d,p) empiricaldispersion=gd3bj scf=xqc pop=npa geom=c
 heck
 ----------------------------------------------------------------------

 -------------------------------------
 CID_122695050_JID_7068_Energie_kation
 -------------------------------------
 Structure from the checkpoint file:  "JID_7068.chk"
 Charge =  1 Multiplicity = 2

 SCF Done:  E(UB3LYP) =  -801.972547279     A.U. after   33 cycles
 SCF Done:  E(UB3LYP) =  -801.972547279     a.u. after    3 cycles
 Normal termination of Gaussian 16 at Sun Dec 13 21:31:21 2020.
 Gaussian 16:  ES64L-G16RevA.03 25-Dec-2016

 ----------------------------------------------------------------------
 # B3LYP/6-311++G(d,p) empiricaldispersion=gd3bj scf=xqc pop=npa geom=c
 heck
 ----------------------------------------------------------------------

 ------------------------------------
 CID_122695050_JID_7068_Energie_anion
 ------------------------------------
 Structure from the checkpoint file:  "JID_7068.chk"
 Charge = -1 Multiplicity = 2

                         Standard orientation:
 ---------------------------------------------------------------------
 Center     Atomic      Atomic             Coordinates (Angstroms)
 Number     Number       Type             X           Y           Z
 ---------------------------------------------------------------------
      1          6           0       -1.953226   -1.956187   -0.805938
      2          6           0       -2.526301   -1.139879    0.361841
      3          6           0       -3.855326   -1.780754    0.796604
      4          6           0       -1.543310   -1.133939    1.546563
      5          7           0       -2.879481    0.248928   -0.023066
      6          6           0       -2.184156    1.284577   -0.591552
      7          8           0       -2.571949    2.440729   -0.437230
      8          6           0       -0.940618    1.021266   -1.439032
      9          6           0        0.326697    1.024900   -0.606019
     10          6           0        1.301860    0.044440   -0.788696
     11          6           0        2.450870    0.069269   -0.001139
     12          6           0        2.670317    1.044399    0.966308
     13          6           0        1.696466    2.026610    1.138315
     14          6           0        0.538455    2.019264    0.361828
     15          7           0        3.462235   -0.979975   -0.197430
     16          8           0        3.235829   -1.840802   -1.048162
     17          8           0        4.473735   -0.937622    0.501793
     18          1           0       -1.970681   -3.018251   -0.541491
     19          1           0       -0.913997   -1.701486   -1.021442
     20          1           0       -2.552630   -1.819180   -1.711454
     21          1           0       -3.686184   -2.804799    1.142311
     22          1           0       -4.310624   -1.221085    1.622854
     23          1           0       -4.565391   -1.806634   -0.036453
     24          1           0       -0.600954   -0.653012    1.273343
     25          1           0       -1.969710   -0.592150    2.397803
     26          1           0       -1.323840   -2.158412    1.867971
     27          1           0       -3.636438    0.634511    0.533024
     28          1           0       -1.016076    0.097672   -2.012212
     29          1           0       -0.909901    1.852485   -2.150418
     30          1           0        1.188666   -0.738162   -1.528712
     31          1           0        3.577643    1.020913    1.555916
     32          1           0        1.841824    2.801805    1.884144
     33          1           0       -0.222251    2.780886    0.502579
 ---------------------------------------------------------------------

 SCF Done:  E(UB3LYP) =  -802.348563040     A.U. after   23 cycles

 The electronic state is 2-A.
 Alpha  occ. eigenvalues --  -18.99186 -18.94040 -18.94013 -14.31678 -14.24345
 Alpha  occ. eigenvalues --  -10.17882 -10.14787 -10.09712 -10.08143 -10.07657
 Alpha  occ. eigenvalues --  -10.07238 -10.06065 -10.05884 -10.04514 -10.03690
 Alpha  occ. eigenvalues --  -10.03431 -10.03205  -1.02104  -0.94363  -0.84987
 Alpha  occ. eigenvalues --   -0.83611  -0.73591  -0.71508  -0.67158  -0.63215
 Alpha  occ. eigenvalues --   -0.62168  -0.61009  -0.59118  -0.53146  -0.52376
 Alpha  occ. eigenvalues --   -0.47582  -0.46654  -0.42860  -0.40760  -0.38780
 Alpha  occ. eigenvalues --   -0.38134  -0.37588  -0.35336  -0.34524  -0.34282
 Alpha  occ. eigenvalues --   -0.34036  -0.33142  -0.32404  -0.32137  -0.31359
 Alpha  occ. eigenvalues --   -0.31194  -0.30254  -0.29649  -0.29138  -0.27820
 Alpha  occ. eigenvalues --   -0.27712  -0.26080  -0.25600  -0.23546  -0.22987
 Alpha  occ. eigenvalues --   -0.21706  -0.17011  -0.15930  -0.13721  -0.12852
 Alpha  occ. eigenvalues --   -0.12258  -0.11896  -0.09865   0.02638
 Alpha virt. eigenvalues --    0.05685   0.08168   0.08456   0.08890   0.09553
 Alpha virt. eigenvalues --    0.09924   0.10770   0.10933   0.11129   0.12022
 Alpha virt. eigenvalues --    0.12375   0.12953   0.13178   0.13728   0.14432

  Beta  occ. eigenvalues --  -18.99183 -18.93559 -18.93514 -14.31055 -14.24345
  Beta  occ. eigenvalues --  -10.17884 -10.14787 -10.09712 -10.08138 -10.07654
  Beta  occ. eigenvalues --  -10.07237 -10.06138 -10.05770 -10.04572 -10.03545
  Beta  occ. eigenvalues --  -10.03286 -10.02928  -1.01044  -0.94359  -0.84061
  Beta  occ. eigenvalues --   -0.83610  -0.73341  -0.71503  -0.67000  -0.62728
  Beta  occ. eigenvalues --   -0.62136  -0.61000  -0.58883  -0.52368  -0.52142
  Beta  occ. eigenvalues --   -0.47527  -0.46551  -0.42525  -0.40753  -0.38413
  Beta  occ. eigenvalues --   -0.38012  -0.37540  -0.35307  -0.34221  -0.33534
  Beta  occ. eigenvalues --   -0.33044  -0.32280  -0.32149  -0.31500  -0.31218
  Beta  occ. eigenvalues --   -0.31013  -0.29981  -0.29482  -0.29108  -0.27782
  Beta  occ. eigenvalues --   -0.27638  -0.26065  -0.25587  -0.23353  -0.22213
  Beta  occ. eigenvalues --   -0.21610  -0.16990  -0.15914  -0.12326  -0.11408
  Beta  occ. eigenvalues --   -0.11210  -0.09783  -0.09376
  Beta virt. eigenvalues --    0.05668   0.08155   0.08406   0.08860   0.09477
  Beta virt. eigenvalues --    0.09635   0.09899   0.10744   0.10925   0.11104
  Beta virt. eigenvalues --    0.12158   0.12463   0.12994   0.13272   0.14095

 Mulliken charges and spin densities:
               1          2
     1  C   -0.507207  -0.028061
     2  C    0.155865  -0.007769
     3  C   -0.418877  -0.001903
     4  C   -0.624691  -0.010944
     5  N   -0.084101   0.000275
     6  C   -0.190938   0.000489
     7  O   -0.297324   0.000761
     8  C   -0.206873   0.015473
     9  C    0.740158  -0.047183
    10  C   -0.230241   0.097392
    11  C   -0.115339   0.000343
    12  C   -0.060267   0.153389
    13  C   -0.504805  -0.029205
    14  C   -0.653435   0.231597
    15  N   -0.271071   0.203376
    16  O   -0.188556   0.187650
    17  O   -0.180583   0.192556
    18  H    0.124839  -0.000708
    19  H    0.081723   0.066497
    20  H    0.163100  -0.004478
    21  H    0.136461   0.001921
    22  H    0.125501  -0.000137
    23  H    0.163937   0.001740
    24  H    0.209358   0.007957
    25  H    0.128215   0.000522
    26  H    0.134824  -0.000888
    27  H    0.271063   0.000110
    28  H    0.133270  -0.000336
    29  H    0.214659  -0.001805
    30  H    0.239875  -0.005015
    31  H    0.208979  -0.009139
    32  H    0.136646   0.002505
    33  H    0.165836  -0.016985
 Sum of Mulliken charges =  -1.00000   1.00000

 Dipole moment (field-independent basis, Debye):
    X=            -12.4517    Y=             -0.4567    Z=              1.3361  Tot=             12.5315
 Quadrupole moment (field-independent basis, Debye-Ang):
   XX=           -171.3256   YY=           -129.4302   ZZ=           -109.0969
   XY=             29.2911   XZ=             -0.5687   YZ=             -1.2970

 Summary of Natural Population Analysis:

                                       Natural Population
                Natural  -----------------------------------------------
    Atom  No    Charge         Core      Valence    Rydberg      Total
 -----------------------------------------------------------------------
      C    1   -0.29230      0.99962     2.28703    0.00565     3.29230
      C    2    0.05870      0.99960     1.93237    0.00933     2.94130
      C    3   -0.28463      0.99963     2.27948    0.00552     3.28463
      C    4   -0.29185      0.99962     2.28652    0.00572     3.29185
      N    5   -0.33190      0.99964     2.81933    0.01294     3.83190
      C    6    0.35546      0.99968     1.62265    0.02221     2.64454
      O    7   -0.33004      0.99988     3.32377    0.00638     4.33004
      C    8   -0.23589      0.99955     2.22892    0.00741     3.23589
      C    9   -0.04798      0.99950     2.03705    0.01143     3.04798
      C   10   -0.07717      0.99947     2.06879    0.00891     3.07717
      C   11    0.05917      0.99940     1.92570    0.01574     2.94083
      C   12   -0.07173      0.99953     2.06272    0.00948     3.07173
      C   13   -0.11927      0.99958     2.11058    0.00911     3.11927
      C   14   -0.05651      0.99952     2.04888    0.00811     3.05651
      N   15    0.30608      0.99972     2.16785    0.02636     3.19392
      O   16   -0.19759      0.99990     3.18992    0.00777     4.19759
      O   17   -0.19158      0.99990     3.18406    0.00762     4.19158
      H   18    0.10038      0.00000     0.39886    0.00076     0.39962
      H   19    0.11318      0.00000     0.38579    0.00103     0.38682
      H   20    0.09991      0.00000     0.39930    0.00079     0.40009
      H   21    0.10118      0.00000     0.39812    0.00070     0.39882
      H   22    0.09628      0.00000     0.40286    0.00086     0.40372
      H   23    0.10083      0.00000     0.39832    0.00085     0.39917
      H   24    0.12048      0.00000     0.37860    0.00092     0.37952
      H   25    0.09663      0.00000     0.40262    0.00076     0.40337
      H   26    0.09773      0.00000     0.40153    0.00074     0.40227
      H   27    0.18854      0.00000     0.30959    0.00187     0.31146
      H   28    0.10504      0.00000     0.39377    0.00119     0.39496
      H   29    0.11303      0.00000     0.38575    0.00122     0.38697
      H   30    0.11098      0.00000     0.38775    0.00126     0.38902
      H   31    0.11254      0.00000     0.38635    0.00111     0.38746
      H   32    0.09246      0.00000     0.40651    0.00103     0.40754
      H   33    0.09984      0.00000     0.39882    0.00134     0.40016
 =======================================================================
   * Total *    0.00000     16.99371    45.81016    0.19613    63.00000

 Normal termination of Gaussian 16 at Sun Dec 13 21:43:15 2020.
