 Gaussian 16, Revision A.03,

 -----------------------------------------------------------
 # opt freq B3LYP/6-31G(d) empiricaldispersion=gd3bj scf=xqc
 -----------------------------------------------------------

 ------------------------------
 CID_64385832_JID_8273_neutraal
 ------------------------------
 Symbolic Z-matrix:
 Charge =  0 Multiplicity = 1

 SCF Done:  E(RB3LYP) =  -1129.71219823     A.U. after   15 cycles
 SCF Done:  E(RB3LYP) =  -1129.71607951     A.U. after   12 cycles
 SCF Done:  E(RB3LYP) =  -1129.71221643     A.U. after   13 cycles
 SCF Done:  E(RB3LYP) =  -1129.71422436     A.U. after   13 cycles
 SCF Done:  E(RB3LYP) =  -1129.71764818     A.U. after   10 cycles
 SCF Done:  E(RB3LYP) =  -1129.71751177     A.U. after   12 cycles
 SCF Done:  E(RB3LYP) =  -1129.71813387     A.U. after   13 cycles
 SCF Done:  E(RB3LYP) =  -1129.71889752     A.U. after   12 cycles
 SCF Done:  E(RB3LYP) =  -1129.71886487     A.U. after   12 cycles
 SCF Done:  E(RB3LYP) =  -1129.71972744     A.U. after   12 cycles
 SCF Done:  E(RB3LYP) =  -1129.72805213     A.U. after   11 cycles
 SCF Done:  E(RB3LYP) =  -1129.72805401     A.U. after   10 cycles
 SCF Done:  E(RB3LYP) =  -1129.72805637     A.U. after    9 cycles
 SCF Done:  E(RB3LYP) =  -1129.72805626     A.U. after    8 cycles
 SCF Done:  E(RB3LYP) =  -1129.72805639     A.U. after    7 cycles
 Optimization completed.
    -- Stationary point found.
 Normal termination of Gaussian 16 at Mon Dec 14 17:24:26 2020.

 --------------------------------------------------------------------
 #N Geom=AllCheck Guess=TCheck SCRF=Check GenChk RB3LYP/6-31G(d) Freq
 --------------------------------------------------------------------

 Structure from the checkpoint file:  "JID_8273.chk"
 ------------------------------
 CID_64385832_JID_8273_neutraal
 ------------------------------
 Charge =  0 Multiplicity = 1

 SCF Done:  E(RB3LYP) =  -1129.72805639     A.U. after    1 cycles

  Exact polarizability: 206.900  -7.583 150.948   1.349   3.993 157.988
 Approx polarizability: 282.194 -24.480 218.361  -7.667  18.542 268.347

 ******    1 imaginary frequencies (negative Signs) ******

                      1                      2                      3
                      A                      A                      A
 Frequencies --    -36.0928                27.5898                40.9567
 Red. masses --      2.3261                 5.1283                 3.8064
 Frc consts  --      0.0018                 0.0023                 0.0038
 IR Inten    --      0.2237                 0.3745                 0.7249

                      4                      5                      6
                      A                      A                      A
 Frequencies --     49.6144                68.4134                87.8214
 Red. masses --      3.6216                 4.5261                 3.6327
 Frc consts  --      0.0053                 0.0125                 0.0165
 IR Inten    --      1.1493                 0.7155                 0.5891

                      7                      8                      9
                      A                      A                      A
 Frequencies --    112.8690               165.0860               176.0940
 Red. masses --      3.4674                 3.5184                 3.0984
 Frc consts  --      0.0260                 0.0565                 0.0566
 IR Inten    --      1.4368                 0.2209                 1.0843

                     10                     11                     12
                      A                      A                      A
 Frequencies --    192.9054               209.8857               232.2319
 Red. masses --      1.9387                 3.7478                 1.5462
 Frc consts  --      0.0425                 0.0973                 0.0491
 IR Inten    --      0.4363                 0.8274                 0.0452

                     13                     14                     15
                      A                      A                      A
 Frequencies --    237.6752               247.5292               255.4560
 Red. masses --      2.3369                 1.4483                 1.4855
 Frc consts  --      0.0778                 0.0523                 0.0571
 IR Inten    --      1.1431                 0.5401                 0.0319

                     16                     17                     18
                      A                      A                      A
 Frequencies --    269.7995               311.0822               344.8233
 Red. masses --      1.7361                 2.9913                 2.2275
 Frc consts  --      0.0745                 0.1706                 0.1560
 IR Inten    --      1.4800                 6.4444                 0.0061

                     19                     20                     21
                      A                      A                      A
 Frequencies --    353.0834               400.5388               417.8624
 Red. masses --      2.2550                 3.4078                 2.6649
 Frc consts  --      0.1656                 0.3221                 0.2742
 IR Inten    --      4.7351                 8.4591                 4.2845

                     22                     23                     24
                      A                      A                      A
 Frequencies --    459.9478               475.6606               487.6337
 Red. masses --      4.1663                 4.7043                 2.8232
 Frc consts  --      0.5193                 0.6271                 0.3955
 IR Inten    --      4.2009                 4.6986                 3.5659

                     25                     26                     27
                      A                      A                      A
 Frequencies --    506.9036               556.1934               576.5046
 Red. masses --      3.3246                 4.2469                 3.2838
 Frc consts  --      0.5033                 0.7741                 0.6430
 IR Inten    --      2.4716                 2.9348                 1.3667

                     28                     29                     30
                      A                      A                      A
 Frequencies --    588.7290               618.7942               674.4681
 Red. masses --      6.7017                 1.8592                 3.1959
 Frc consts  --      1.3686                 0.4194                 0.8566
 IR Inten    --      4.7392                 0.2459                12.7392

                     31                     32                     33
                      A                      A                      A
 Frequencies --    702.2988               716.5472               746.8972
 Red. masses --      1.2083                 5.1848                 7.3014
 Frc consts  --      0.3511                 1.5685                 2.3998
 IR Inten    --     56.4010                10.4498                 2.2377

                     34                     35                     36
                      A                      A                      A
 Frequencies --    756.3688               773.5050               810.7640
 Red. masses --      6.0422                 4.4977                 2.1258
 Frc consts  --      2.0366                 1.5855                 0.8233
 IR Inten    --      5.4536                 3.2956                 2.1622

                     37                     38                     39
                      A                      A                      A
 Frequencies --    831.7332               843.3416               853.5978
 Red. masses --      1.9065                 1.2688                 2.3662
 Frc consts  --      0.7771                 0.5317                 1.0158
 IR Inten    --      8.6190                11.9528                61.6453

                     40                     41                     42
                      A                      A                      A
 Frequencies --    862.7844               883.8828               908.0226
 Red. masses --      3.8696                 1.8035                 2.2958
 Frc consts  --      1.6971                 0.8301                 1.1153
 IR Inten    --      1.9656                11.0912                22.1875

                     43                     44                     45
                      A                      A                      A
 Frequencies --    910.3101               929.1063               942.3904
 Red. masses --      1.3189                 2.5348                 1.6055
 Frc consts  --      0.6439                 1.2892                 0.8401
 IR Inten    --      3.1831                 0.8945                 1.1776

                     46                     47                     48
                      A                      A                      A
 Frequencies --    945.3545               965.0636               979.7622
 Red. masses --      1.4106                 1.5306                 1.3409
 Frc consts  --      0.7428                 0.8399                 0.7584
 IR Inten    --      1.6144                 0.0269                16.0288

                     49                     50                     51
                      A                      A                      A
 Frequencies --   1011.5673              1020.2320              1053.2704
 Red. masses --      1.8610                 2.5364                 2.4676
 Frc consts  --      1.1220                 1.5555                 1.6129
 IR Inten    --     20.8507                 4.1360                23.0417

                     52                     53                     54
                      A                      A                      A
 Frequencies --   1063.9317              1094.0790              1106.0438
 Red. masses --      1.6603                 1.4157                 1.5017
 Frc consts  --      1.1073                 0.9984                 1.0824
 IR Inten    --      5.1114                 4.3807                 2.9925

                     55                     56                     57
                      A                      A                      A
 Frequencies --   1125.6622              1140.3914              1158.2932
 Red. masses --      1.9575                 2.0471                 2.1067
 Frc consts  --      1.4614                 1.5686                 1.6653
 IR Inten    --     18.4535                25.9835                19.4652

                     58                     59                     60
                      A                      A                      A
 Frequencies --   1165.7445              1169.9596              1187.1795
 Red. masses --      2.5568                 2.4988                 2.2764
 Frc consts  --      2.0471                 2.0152                 1.8903
 IR Inten    --      3.5472                18.7631                43.1859

                     61                     62                     63
                      A                      A                      A
 Frequencies --   1202.4179              1236.3227              1246.9624
 Red. masses --      2.2242                 2.0396                 1.5748
 Frc consts  --      1.8947                 1.8368                 1.4427
 IR Inten    --     24.8467                79.7865                 3.4670

                     64                     65                     66
                      A                      A                      A
 Frequencies --   1262.7457              1276.6142              1281.2789
 Red. masses --      1.5438                 1.2687                 1.5890
 Frc consts  --      1.4503                 1.2183                 1.5370
 IR Inten    --     47.4873                46.9465                49.4767

                     67                     68                     69
                      A                      A                      A
 Frequencies --   1313.1562              1335.6268              1348.3330
 Red. masses --      1.7107                 1.3340                 1.4323
 Frc consts  --      1.7380                 1.4021                 1.5342
 IR Inten    --      0.3387                16.4725                 2.1422

                     70                     71                     72
                      A                      A                      A
 Frequencies --   1373.8902              1375.2594              1383.7830
 Red. masses --      1.3708                 1.3270                 1.9417
 Frc consts  --      1.5245                 1.4787                 2.1906
 IR Inten    --      6.5626                 2.4304                 7.5480

                     73                     74                     75
                      A                      A                      A
 Frequencies --   1393.5681              1419.0836              1422.5125
 Red. masses --      1.6768                 1.2831                 1.5012
 Frc consts  --      1.9187                 1.5224                 1.7898
 IR Inten    --     65.7565                14.8183                 8.8459

                     76                     77                     78
                      A                      A                      A
 Frequencies --   1436.3099              1442.9043              1473.1522
 Red. masses --      1.2609                 1.2350                 1.2046
 Frc consts  --      1.5326                 1.5149                 1.5403
 IR Inten    --     28.3261                 9.9073                 7.6807

                     79                     80                     81
                      A                      A                      A
 Frequencies --   1495.8684              1508.7089              1509.9833
 Red. masses --      1.6875                 3.9504                 1.1275
 Frc consts  --      2.2248                 5.2979                 1.5147
 IR Inten    --     42.2609                 8.2278                 2.4435

                     82                     83                     84
                      A                      A                      A
 Frequencies --   1512.5505              1523.6184              1525.1212
 Red. masses --      1.0812                 1.0693                 1.0606
 Frc consts  --      1.4574                 1.4625                 1.4535
 IR Inten    --      6.8212                 7.9188                 2.7693

                     85                     86                     87
                      A                      A                      A
 Frequencies --   1525.6078              1533.5834              1536.0655
 Red. masses --      1.0887                 1.0522                 1.0793
 Frc consts  --      1.4930                 1.4581                 1.5005
 IR Inten    --      2.2585                 1.0693                15.8010

                     88                     89                     90
                      A                      A                      A
 Frequencies --   1540.7676              1550.0711              1552.3745
 Red. masses --      1.1011                 1.0989                 1.0795
 Frc consts  --      1.5401                 1.5556                 1.5327
 IR Inten    --      9.3831                 7.0667                 8.1710

                     91                     92                     93
                      A                      A                      A
 Frequencies --   1606.3600              1725.2528              3019.2508
 Red. masses --      4.7089                 9.5670                 1.0744
 Frc consts  --      7.1590                16.7776                 5.7706
 IR Inten    --      0.6335               229.7329                22.6801

                     94                     95                     96
                      A                      A                      A
 Frequencies --   3050.0681              3053.0917              3053.4220
 Red. masses --      1.0445                 1.0393                 1.0667
 Frc consts  --      5.7248                 5.7078                 5.8593
 IR Inten    --     22.2457                20.3012                35.0744

                     97                     98                     99
                      A                      A                      A
 Frequencies --   3062.0934              3063.0369              3073.5077
 Red. masses --      1.0639                 1.0461                 1.0789
 Frc consts  --      5.8775                 5.7828                 6.0048
 IR Inten    --     29.1904                20.1800                27.8906

                    100                    101                    102
                      A                      A                      A
 Frequencies --   3079.5736              3107.8813              3113.2220
 Red. masses --      1.0703                 1.0967                 1.1019
 Frc consts  --      5.9804                 6.2415                 6.2921
 IR Inten    --     45.5578                32.1390                31.9811

                    103                    104                    105
                      A                      A                      A
 Frequencies --   3115.5539              3122.6257              3125.1121
 Red. masses --      1.0980                 1.1045                 1.0994
 Frc consts  --      6.2795                 6.3453                 6.3261
 IR Inten    --     17.1206                43.9185                38.7962

                    106                    107                    108
                      A                      A                      A
 Frequencies --   3132.9151              3160.3223              3162.5000
 Red. masses --      1.0880                 1.0986                 1.0994
 Frc consts  --      6.2918                 6.4647                 6.4783
 IR Inten    --     84.2593                 9.5493                 9.7242

                    109                    110                    111
                      A                      A                      A
 Frequencies --   3169.9499              3184.2880              3220.6801
 Red. masses --      1.0943                 1.0986                 1.0891
 Frc consts  --      6.4790                 6.5631                 6.6561
 IR Inten    --      2.9915                 8.7930                 9.8564

                    112                    113                    114
                      A                      A                      A
 Frequencies --   3242.6391              3272.3354              3442.2963
 Red. masses --      1.0939                 1.0972                 1.0739
 Frc consts  --      6.7769                 6.9224                 7.4971
 IR Inten    --      4.3572                 1.3505                 2.3878

 - Thermochemistry -
 -------------------
 Temperature   298.150 Kelvin.  Pressure   1.00000 Atm.
 Atom     1 has atomic number  6 and mass  12.00000

 Molecular mass:   266.14529 amu.
 Principal axes and moments of inertia in atomic units:
                           1         2         3
     Eigenvalues --  3084.617497004.296078193.27850
           X            0.99969   0.02193   0.01145
           Y           -0.02159   0.99935  -0.02886
           Z           -0.01208   0.02860   0.99952
 This molecule is an asymmetric top.
 Rotational symmetry number  1.
 Warning -- assumption of classical behavior for rotation
           may cause significant error
 Rotational temperatures (Kelvin)      0.02808     0.01237     0.01057
 Rotational constants (GHZ):           0.58508     0.25766     0.22027
    1 imaginary frequencies ignored.
 Zero-point vibrational energy     913351.6 (Joules/Mol)
                                  218.29626 (Kcal/Mol)
 Warning -- explicit consideration of  28 degrees of freedom as
           vibrations may cause significant error
 Vibrational temperatures:     39.70    58.93    71.38    98.43   126.36
          (Kelvin)            162.39   237.52   253.36   277.55   301.98
                              334.13   341.96   356.14   367.54   388.18
                              447.58   496.12   508.01   576.29   601.21
                              661.76   684.37   701.60   729.32   800.24
                              829.46   847.05   890.31   970.41  1010.45
                             1030.95  1074.62  1088.25  1112.90  1166.51
                             1196.68  1213.38  1228.14  1241.35  1271.71
                             1306.44  1309.73  1336.78  1355.89  1360.15
                             1388.51  1409.66  1455.42  1467.89  1515.42
                             1530.76  1574.14  1591.35  1619.58  1640.77
                             1666.53  1677.25  1683.31  1708.09  1730.01
                             1778.79  1794.10  1816.81  1836.76  1843.47
                             1889.34  1921.67  1939.95  1976.72  1978.69
                             1990.96  2005.03  2041.74  2046.68  2066.53
                             2076.02  2119.54  2152.22  2170.70  2172.53
                             2176.22  2192.15  2194.31  2195.01  2206.48
                             2210.06  2216.82  2230.21  2233.52  2311.19
                             2482.25  4344.03  4388.37  4392.72  4393.19
                             4405.67  4407.03  4422.09  4430.82  4471.55
                             4479.23  4482.59  4492.76  4496.34  4507.57
                             4547.00  4550.13  4560.85  4581.48  4633.84
                             4665.43  4708.16  4952.70

 Zero-point correction=                           0.347877 (Hartree/Particle)
 Thermal correction to Energy=                    0.365552
 Thermal correction to Enthalpy=                  0.366496
 Thermal correction to Gibbs Free Energy=         0.301738
 Sum of electronic and zero-point Energies=          -1129.380179
 Sum of electronic and thermal Energies=             -1129.362505
 Sum of electronic and thermal Enthalpies=           -1129.361561
 Sum of electronic and thermal Free Energies=        -1129.426318

                     E (Thermal)             CV                S
                      KCal/Mol        Cal/Mol-Kelvin    Cal/Mol-Kelvin
 Total                  229.387             68.997            136.294
 Electronic               0.000              0.000              0.000
 Translational            0.889              2.981             42.636
 Rotational               0.889              2.981             33.537
 Vibrational            227.610             63.036             60.122
 Vibration     1          0.593              1.984              5.996
 Vibration     2          0.594              1.981              5.212
 Vibration     3          0.595              1.978              4.833
 Vibration     4          0.598              1.969              4.198
 Vibration     5          0.601              1.958              3.708
 Vibration     6          0.607              1.939              3.219
 Vibration     7          0.623              1.885              2.491
 Vibration     8          0.628              1.872              2.369
 Vibration     9          0.635              1.850              2.200
 Vibration    10          0.642              1.826              2.045
 Vibration    11          0.653              1.792              1.862
 Vibration    12          0.656              1.783              1.820
 Vibration    13          0.661              1.767              1.748
 Vibration    14          0.666              1.754              1.693
 Vibration    15          0.674              1.729              1.597
 Vibration    16          0.700              1.653              1.357
 Vibration    17          0.723              1.586              1.190
 Vibration    18          0.729              1.569              1.152
 Vibration    19          0.766              1.469              0.961
 Vibration    20          0.781              1.431              0.899
 Vibration    21          0.818              1.339              0.766
 Vibration    22          0.832              1.304              0.722
 Vibration    23          0.844              1.277              0.690
 Vibration    24          0.862              1.235              0.641
 Vibration    25          0.912              1.126              0.531
 Vibration    26          0.933              1.082              0.492
 Vibration    27          0.946              1.056              0.469
 Vibration    28          0.979              0.992              0.418

                           ! Non-Optimized Parameters !
 Normal termination of Gaussian 16 at Mon Dec 14 17:48:33 2020.

 ----------------------------------------------------------------------
 # B3LYP/6-311++G(d,p) empiricaldispersion=gd3bj scf=xqc pop=npa geom=c
 heck
 ----------------------------------------------------------------------

 --------------------------------------
 CID_64385832_JID_8273_Energie_neutraal
 --------------------------------------
 Structure from the checkpoint file:  "JID_8273.chk"
 Charge =  0 Multiplicity = 1

 SCF Done:  E(RB3LYP) =  -1129.95663608     A.U. after   15 cycles
 Normal termination of Gaussian 16 at Mon Dec 14 18:00:12 2020.

 ----------------------------------------------------------------------
 # B3LYP/6-311++G(d,p) empiricaldispersion=gd3bj scf=xqc pop=npa geom=c
 heck
 ----------------------------------------------------------------------

 ------------------------------------
 CID_64385832_JID_8273_Energie_kation
 ------------------------------------
 Structure from the checkpoint file:  "JID_8273.chk"
 Charge =  1 Multiplicity = 2

 SCF Done:  E(UB3LYP) =  -1129.67004742     A.U. after   29 cycles
 Normal termination of Gaussian 16 at Mon Dec 14 18:31:51 2020.
 Gaussian 16:  ES64L-G16RevA.03 25-Dec-2016

 ----------------------------------------------------------------------
 # B3LYP/6-311++G(d,p) empiricaldispersion=gd3bj scf=xqc pop=npa geom=c
 heck
 ----------------------------------------------------------------------

 -----------------------------------
 CID_64385832_JID_8273_Energie_anion
 -----------------------------------
 Structure from the checkpoint file:  "JID_8273.chk"
 Charge = -1 Multiplicity = 2

                         Standard orientation:
 ---------------------------------------------------------------------
 Center     Atomic      Atomic             Coordinates (Angstroms)
 Number     Number       Type             X           Y           Z
 ---------------------------------------------------------------------
      1          6           0       -0.547185    3.040022   -1.289608
      2          6           0        0.322201    2.261677   -0.295825
      3          6           0        0.455916    2.970264    1.055015
      4          7           0       -0.128970    0.847510   -0.184538
      5          6           0        0.697160   -0.101300   -0.924546
      6          6           0        2.016016   -0.370222   -0.247384
      7          6           0        2.359737   -0.222460    1.070215
      8          6           0        3.703393   -0.622516    1.354501
      9          6           0        4.367950   -1.072070    0.249847
     10         16           0        3.359689   -1.007382   -1.166118
     11          6           0       -1.347270    0.573265    0.382449
     12          8           0       -2.042352    1.483583    0.834683
     13          6           0       -1.846517   -0.908242    0.504201
     14          6           0       -3.321748   -0.897302    1.014858
     15          6           0       -4.194835   -1.143819   -0.238416
     16          6           0       -3.187785   -1.080606   -1.404558
     17          7           0       -1.897284   -1.521383   -0.848407
     18          6           0       -0.931328   -1.701923    1.440911
     19          1           0       -1.562232    3.149319   -0.902917
     20          1           0       -0.591632    2.521627   -2.254474
     21          1           0       -0.124356    4.036636   -1.458956
     22          1           0        1.331498    2.182420   -0.712456
     23          1           0       -0.516466    3.104790    1.528103
     24          1           0        1.103355    2.398882    1.727221
     25          1           0        0.916440    3.952639    0.899675
     26          1           0        0.122457   -1.013790   -1.085095
     27          1           0        0.876874    0.312848   -1.927092
     28          1           0        1.670195    0.162948    1.811061
     29          1           0        4.150804   -0.572570    2.341153
     30          1           0        5.384650   -1.432388    0.173997
     31          1           0       -3.459532   -1.691611    1.755502
     32          1           0       -3.544156    0.056537    1.490838
     33          1           0       -5.001614   -0.411807   -0.341085
     34          1           0       -4.657052   -2.137514   -0.199903
     35          1           0       -3.070568   -0.048252   -1.754659
     36          1           0       -3.459049   -1.696668   -2.266562
     37          1           0       -1.938786   -2.533785   -0.716261
     38          1           0        0.096837   -1.768260    1.079933
     39          1           0       -0.912757   -1.234038    2.430755
     40          1           0       -1.321562   -2.720024    1.562311
 ---------------------------------------------------------------------

 SCF Done:  E(UB3LYP) =  -1129.94331579     A.U. after   33 cycles
 SCF Done:  E(UB3LYP) =  -1129.94331579     a.u. after    2 cycles

 The electronic state is 2-A.
 Alpha  occ. eigenvalues --  -88.78818 -18.99598 -14.25503 -14.21070 -10.18015
 Alpha  occ. eigenvalues --  -10.12573 -10.12470 -10.12419 -10.11834 -10.10971
 Alpha  occ. eigenvalues --  -10.09790 -10.08928 -10.08630 -10.07493 -10.07377
 Alpha  occ. eigenvalues --  -10.07039 -10.06890 -10.06470  -7.87439  -5.83722
 Alpha  occ. eigenvalues --   -5.83358  -5.83041  -0.95043  -0.85117  -0.83419
 Alpha  occ. eigenvalues --   -0.79257  -0.70247  -0.67807  -0.66556  -0.66115
 Alpha  occ. eigenvalues --   -0.64747  -0.60396  -0.59498  -0.57798  -0.55183
 Alpha  occ. eigenvalues --   -0.51314  -0.48326  -0.47730  -0.46262  -0.43147
 Alpha  occ. eigenvalues --   -0.42060  -0.41119  -0.39702  -0.38390  -0.37804
 Alpha  occ. eigenvalues --   -0.36257  -0.35422  -0.34465  -0.33877  -0.33279
 Alpha  occ. eigenvalues --   -0.32124  -0.31784  -0.31552  -0.30515  -0.30196
 Alpha  occ. eigenvalues --   -0.30075  -0.28944  -0.28326  -0.27886  -0.26971
 Alpha  occ. eigenvalues --   -0.26508  -0.26057  -0.25665  -0.25373  -0.24898
 Alpha  occ. eigenvalues --   -0.23807  -0.23090  -0.17200  -0.16822  -0.16297
 Alpha  occ. eigenvalues --   -0.15158  -0.13757   0.04068
 Alpha virt. eigenvalues --    0.05411   0.05890   0.06596   0.07050   0.07757
 Alpha virt. eigenvalues --    0.07839   0.08305   0.08846   0.08961   0.09625
 Alpha virt. eigenvalues --    0.10137   0.10529   0.10878   0.11007   0.11324

  Beta  occ. eigenvalues --  -88.78815 -18.99594 -14.25504 -14.21046 -10.18011
  Beta  occ. eigenvalues --  -10.12570 -10.12472 -10.12412 -10.11828 -10.10949
  Beta  occ. eigenvalues --  -10.09770 -10.08913 -10.08622 -10.07470 -10.07365
  Beta  occ. eigenvalues --  -10.07020 -10.06879 -10.06461  -7.87435  -5.83719
  Beta  occ. eigenvalues --   -5.83356  -5.83036  -0.95038  -0.85111  -0.83385
  Beta  occ. eigenvalues --   -0.79236  -0.70232  -0.67781  -0.66525  -0.66080
  Beta  occ. eigenvalues --   -0.64724  -0.60373  -0.59470  -0.57748  -0.55155
  Beta  occ. eigenvalues --   -0.51267  -0.48289  -0.47683  -0.46242  -0.43116
  Beta  occ. eigenvalues --   -0.42030  -0.41080  -0.39662  -0.38362  -0.37788
  Beta  occ. eigenvalues --   -0.36230  -0.35400  -0.34429  -0.33857  -0.33248
  Beta  occ. eigenvalues --   -0.32102  -0.31763  -0.31532  -0.30492  -0.30165
  Beta  occ. eigenvalues --   -0.30051  -0.28918  -0.28304  -0.27857  -0.26945
  Beta  occ. eigenvalues --   -0.26485  -0.26036  -0.25647  -0.25355  -0.24866
  Beta  occ. eigenvalues --   -0.23784  -0.23060  -0.17185  -0.16799  -0.16285
  Beta  occ. eigenvalues --   -0.15129  -0.13719
  Beta virt. eigenvalues --    0.05898   0.06277   0.06624   0.06921   0.07535
  Beta virt. eigenvalues --    0.07977   0.08337   0.08512   0.09085   0.09235
  Beta virt. eigenvalues --    0.09769   0.10296   0.10740   0.11108   0.11191

 Mulliken charges and spin densities:
               1          2
     1  C   -0.136553  -0.318492
     2  C   -0.258882   0.302570
     3  C    0.071538  -0.573772
     4  N    0.476796  -0.080781
     5  C   -0.194029  -0.089130
     6  C   -0.312491  -0.221216
     7  C   -0.057121   0.917366
     8  C    0.693696  -1.266518
     9  C    0.353925  -0.298099
    10  S   -0.249807  -0.243753
    11  C    0.205474  -1.074713
    12  O   -0.222832   0.014028
    13  C   -1.130373   1.564834
    14  C   -0.204723  -0.292956
    15  C    0.684566  -1.039135
    16  C   -0.204804  -0.102983
    17  N    0.053765   0.034373
    18  C    0.430522  -1.069834
    19  H    0.175510   0.017166
    20  H    0.004958   0.119135
    21  H    0.032417   0.115934
    22  H    0.161716   0.028140
    23  H    0.178542   0.005533
    24  H   -0.132290   0.220053
    25  H    0.037013   0.109646
    26  H    0.153631   0.097265
    27  H   -0.119325   0.325047
    28  H    0.431181  -0.283573
    29  H   -0.632421   0.797905
    30  H   -0.666169   0.909319
    31  H   -0.167310   0.324629
    32  H    0.216354  -0.007451
    33  H   -0.001112   0.131882
    34  H   -0.159211   0.299801
    35  H    0.292953  -0.141541
    36  H   -0.668259   0.873778
    37  H   -0.126953   0.381393
    38  H    0.384468  -0.241596
    39  H   -0.036499   0.235786
    40  H   -0.357861   0.519963
 Sum of Mulliken charges =  -1.00000   1.00000

 Dipole moment (field-independent basis, Debye):
    X=             -0.4585    Y=              4.8182    Z=             -0.8805  Tot=              4.9193
 Quadrupole moment (field-independent basis, Debye-Ang):
   XX=           -214.3982   YY=           -173.7535   ZZ=           -157.4209
   XY=             -8.2948   XZ=            -11.3369   YZ=             -3.5025

 Summary of Natural Population Analysis:

                                       Natural Population
                Natural  -----------------------------------------------
    Atom  No    Charge         Core      Valence    Rydberg      Total
 -----------------------------------------------------------------------
      C    1   -0.29159      0.99963     2.28733    0.00463     3.29159
      C    2   -0.00499      0.99960     1.99273    0.01266     3.00499
      C    3   -0.28989      0.99963     2.28549    0.00477     3.28989
      N    4   -0.25595      0.99962     2.74355    0.01277     3.75595
      C    5   -0.11019      0.99952     2.09839    0.01228     3.11019
      C    6   -0.10190      0.99948     2.08857    0.01385     3.10190
      C    7   -0.13452      0.99945     2.12509    0.00998     3.13452
      C    8   -0.12278      0.99953     2.11177    0.01148     3.12278
      C    9   -0.19156      0.99954     2.18050    0.01152     3.19156
      S   10    0.20242      4.99940     2.77874    0.01944     7.79758
      C   11    0.35684      0.99957     1.61887    0.02472     2.64316
      O   12   -0.33301      0.99988     3.32828    0.00485     4.33301
      C   13    0.02540      0.99955     1.96051    0.01454     2.97460
      C   14   -0.19915      0.99960     2.18988    0.00967     3.19915
      C   15   -0.20045      0.99964     2.19287    0.00795     3.20045
      C   16   -0.08913      0.99963     2.07848    0.01101     3.08913
      N   17   -0.34663      0.99974     2.83304    0.01386     3.84663
      C   18   -0.28620      0.99961     2.27953    0.00706     3.28620
      H   19    0.11066      0.00000     0.38830    0.00103     0.38934
      H   20    0.09904      0.00000     0.40000    0.00096     0.40096
      H   21    0.09734      0.00000     0.40186    0.00079     0.40266
      H   22    0.09729      0.00000     0.40086    0.00185     0.40271
      H   23    0.11260      0.00000     0.38638    0.00102     0.38740
      H   24    0.10116      0.00000     0.39773    0.00111     0.39884
      H   25    0.09666      0.00000     0.40254    0.00080     0.40334
      H   26    0.13444      0.00000     0.36349    0.00207     0.36556
      H   27    0.10042      0.00000     0.39843    0.00114     0.39958
      H   28    0.11061      0.00000     0.38734    0.00204     0.38939
      H   29    0.10900      0.00000     0.38945    0.00155     0.39100
      H   30    0.11203      0.00000     0.38616    0.00180     0.38797
      H   31    0.09855      0.00000     0.40025    0.00120     0.40145
      H   32    0.11777      0.00000     0.38099    0.00124     0.38223
      H   33    0.09825      0.00000     0.40088    0.00087     0.40175
      H   34    0.09790      0.00000     0.40016    0.00194     0.40210
      H   35    0.08880      0.00000     0.40971    0.00150     0.41120
      H   36    0.09976      0.00000     0.39876    0.00148     0.40024
      H   37    0.17701      0.00000     0.31893    0.00406     0.32299
      H   38    0.10639      0.00000     0.39181    0.00179     0.39361
      H   39    0.10436      0.00000     0.39459    0.00105     0.39564
      H   40    0.10324      0.00000     0.39549    0.00127     0.39676
 =======================================================================
   * Total *   -0.00000     21.99262    49.76771    0.23967    72.00000

 Normal termination of Gaussian 16 at Mon Dec 14 21:19:29 2020.
