 Gaussian 16, Revision A.03,

 -----------------------------------------------------------
 # opt freq B3LYP/6-31G(d) empiricaldispersion=gd3bj scf=xqc
 -----------------------------------------------------------

 -------------------------------
 CID_102884160_JID_6216_neutraal
 -------------------------------
 Symbolic Z-matrix:
 Charge =  0 Multiplicity = 1

 SCF Done:  E(RB3LYP) =  -1091.76241469     A.U. after   14 cycles
 SCF Done:  E(RB3LYP) =  -1091.76891559     A.U. after   12 cycles
 SCF Done:  E(RB3LYP) =  -1091.77111080     A.U. after   12 cycles
 SCF Done:  E(RB3LYP) =  -1091.77141763     A.U. after   12 cycles
 SCF Done:  E(RB3LYP) =  -1091.77144599     A.U. after   12 cycles
 SCF Done:  E(RB3LYP) =  -1091.77183815     A.U. after   10 cycles
 SCF Done:  E(RB3LYP) =  -1091.77183289     A.U. after   11 cycles
 SCF Done:  E(RB3LYP) =  -1091.77187321     A.U. after   10 cycles
 SCF Done:  E(RB3LYP) =  -1091.77187739     A.U. after    9 cycles
 SCF Done:  E(RB3LYP) =  -1091.77187879     A.U. after    8 cycles
 SCF Done:  E(RB3LYP) =  -1091.77187902     A.U. after    7 cycles
 SCF Done:  E(RB3LYP) =  -1091.77187903     A.U. after    6 cycles
 Optimization completed.
    -- Stationary point found.
 Normal termination of Gaussian 16 at Thu Dec 10 21:20:38 2020.

 --------------------------------------------------------------------
 #N Geom=AllCheck Guess=TCheck SCRF=Check GenChk RB3LYP/6-31G(d) Freq
 --------------------------------------------------------------------

 Structure from the checkpoint file:  "JID_6216.chk"
 -------------------------------
 CID_102884160_JID_6216_neutraal
 -------------------------------
 Charge =  0 Multiplicity = 1

 SCF Done:  E(RB3LYP) =  -1091.77187903     A.U. after    1 cycles

  Exact polarizability: 175.317  -0.906 142.027  -3.628   0.887 130.285
 Approx polarizability: 217.766   1.995 205.246  -2.711  -1.513 216.477

                      1                      2                      3
                      A                      A                      A
 Frequencies --     31.7379                44.6265                57.6546
 Red. masses --      4.5263                 4.2852                 4.0319
 Frc consts  --      0.0027                 0.0050                 0.0079
 IR Inten    --      0.8760                 1.1666                 2.1179

                      4                      5                      6
                      A                      A                      A
 Frequencies --     74.0546               109.5085               126.6210
 Red. masses --      2.9020                 3.3948                 3.7224
 Frc consts  --      0.0094                 0.0240                 0.0352
 IR Inten    --      0.5035                 1.3446                 2.4674

                      7                      8                      9
                      A                      A                      A
 Frequencies --    151.3026               173.3596               219.5064
 Red. masses --      2.4437                 3.0350                 3.7932
 Frc consts  --      0.0330                 0.0537                 0.1077
 IR Inten    --      0.1489                 0.2810                 1.4668

                     10                     11                     12
                      A                      A                      A
 Frequencies --    229.6804               251.9466               275.9588
 Red. masses --      1.4670                 2.9968                 3.4551
 Frc consts  --      0.0456                 0.1121                 0.1550
 IR Inten    --      0.3617                 3.3158                 3.3827

                     13                     14                     15
                      A                      A                      A
 Frequencies --    286.0844               298.5557               309.2675
 Red. masses --      2.3048                 1.4872                 1.8597
 Frc consts  --      0.1111                 0.0781                 0.1048
 IR Inten    --      5.3133                 0.1994                 0.5444

                     16                     17                     18
                      A                      A                      A
 Frequencies --    334.0267               344.5121               354.8416
 Red. masses --      2.2110                 2.0746                 1.8956
 Frc consts  --      0.1453                 0.1451                 0.1406
 IR Inten    --      5.1335                 5.2241                 3.4989

                     19                     20                     21
                      A                      A                      A
 Frequencies --    370.6303               388.0154               394.6631
 Red. masses --      1.3995                 2.6332                 2.6317
 Frc consts  --      0.1133                 0.2336                 0.2415
 IR Inten    --     29.8228                 2.7879                 1.7832

                     22                     23                     24
                      A                      A                      A
 Frequencies --    419.3886               432.5894               467.5180
 Red. masses --      2.0365                 4.3152                 2.6559
 Frc consts  --      0.2110                 0.4758                 0.3420
 IR Inten    --      4.0730                26.5336                10.5100

                     25                     26                     27
                      A                      A                      A
 Frequencies --    490.1158               500.7398               506.6416
 Red. masses --      3.2852                 2.9403                 3.4550
 Frc consts  --      0.4650                 0.4344                 0.5225
 IR Inten    --      4.5037                13.2041                15.8926

                     28                     29                     30
                      A                      A                      A
 Frequencies --    582.6133               603.8048               680.1684
 Red. masses --      2.9770                 2.0919                 3.2510
 Frc consts  --      0.5954                 0.4494                 0.8861
 IR Inten    --      7.1918                 3.2026                18.3071

                     31                     32                     33
                      A                      A                      A
 Frequencies --    727.2314               743.7163               774.0485
 Red. masses --      2.0003                 2.1130                 2.6248
 Frc consts  --      0.6233                 0.6886                 0.9266
 IR Inten    --      3.4791                 2.8073                16.9053

                     34                     35                     36
                      A                      A                      A
 Frequencies --    809.5805               863.9544               876.1236
 Red. masses --      1.5970                 2.4594                 2.2430
 Frc consts  --      0.6167                 1.0816                 1.0144
 IR Inten    --      2.4927                10.9752                11.9124

                     37                     38                     39
                      A                      A                      A
 Frequencies --    891.8972               905.6088               914.5620
 Red. masses --      1.8815                 1.4016                 1.7609
 Frc consts  --      0.8818                 0.6773                 0.8678
 IR Inten    --      5.3021                50.8589                 8.8715

                     40                     41                     42
                      A                      A                      A
 Frequencies --    950.0974               951.7583               958.8942
 Red. masses --      1.7389                 1.8550                 2.4180
 Frc consts  --      0.9248                 0.9900                 1.3100
 IR Inten    --     10.9554                 3.3700                53.6497

                     43                     44                     45
                      A                      A                      A
 Frequencies --    983.3862              1028.9466              1039.5680
 Red. masses --      1.6019                 1.6570                 1.8836
 Frc consts  --      0.9127                 1.0336                 1.1993
 IR Inten    --     48.4948                13.5436                13.5889

                     46                     47                     48
                      A                      A                      A
 Frequencies --   1048.6161              1060.8952              1078.3471
 Red. masses --      1.7020                 2.0650                 1.8746
 Frc consts  --      1.1027                 1.3694                 1.2843
 IR Inten    --      4.0691                 1.3252                 4.5182

                     49                     50                     51
                      A                      A                      A
 Frequencies --   1092.6723              1095.9253              1104.3741
 Red. masses --      2.3215                 1.9221                 2.6199
 Frc consts  --      1.6330                 1.3601                 1.8827
 IR Inten    --      6.5051                 0.8390               105.3783

                     52                     53                     54
                      A                      A                      A
 Frequencies --   1123.1428              1138.0952              1149.8119
 Red. masses --      3.8195                 2.0852                 1.6212
 Frc consts  --      2.8388                 1.5913                 1.2628
 IR Inten    --    114.8169                16.1791                 8.8201

                     55                     56                     57
                      A                      A                      A
 Frequencies --   1176.2865              1183.5893              1216.9283
 Red. masses --      1.5963                 1.9550                 1.6671
 Frc consts  --      1.3014                 1.6137                 1.4546
 IR Inten    --      9.9784                47.3531                 6.5029

                     58                     59                     60
                      A                      A                      A
 Frequencies --   1226.8270              1229.7887              1265.9637
 Red. masses --      1.5099                 1.3978                 1.4932
 Frc consts  --      1.3389                 1.2455                 1.4099
 IR Inten    --      2.8291                20.1500                 8.1929

                     61                     62                     63
                      A                      A                      A
 Frequencies --   1279.4237              1294.6315              1298.0976
 Red. masses --      1.3996                 1.3638                 1.7991
 Frc consts  --      1.3498                 1.3467                 1.7862
 IR Inten    --     20.3409                18.0929                27.6953

                     64                     65                     66
                      A                      A                      A
 Frequencies --   1312.5365              1321.5510              1339.0177
 Red. masses --      1.7350                 1.6995                 1.3567
 Frc consts  --      1.7610                 1.7488                 1.4333
 IR Inten    --     61.3361                37.0383                36.7311

                     67                     68                     69
                      A                      A                      A
 Frequencies --   1360.8876              1374.7141              1387.9316
 Red. masses --      1.3382                 1.2998                 1.4296
 Frc consts  --      1.4602                 1.4472                 1.6226
 IR Inten    --     26.9814                 4.9031                 8.3577

                     70                     71                     72
                      A                      A                      A
 Frequencies --   1392.3169              1397.0348              1407.9640
 Red. masses --      1.4851                 1.3812                 1.3558
 Frc consts  --      1.6962                 1.5883                 1.5835
 IR Inten    --      1.9940                 9.5533                24.5014

                     73                     74                     75
                      A                      A                      A
 Frequencies --   1408.5792              1423.3331              1441.5181
 Red. masses --      1.2604                 1.2817                 1.2456
 Frc consts  --      1.4734                 1.5298                 1.5249
 IR Inten    --      1.7877                25.9628                 8.7016

                     76                     77                     78
                      A                      A                      A
 Frequencies --   1444.4885              1451.0827              1460.6178
 Red. masses --      1.2668                 1.3313                 1.2701
 Frc consts  --      1.5574                 1.6516                 1.5965
 IR Inten    --      3.9205                 0.9029                 6.8395

                     79                     80                     81
                      A                      A                      A
 Frequencies --   1465.9146              1477.4750              1508.4433
 Red. masses --      1.1419                 1.0955                 1.0822
 Frc consts  --      1.4457                 1.4090                 1.4508
 IR Inten    --      2.9829                 9.5521                 1.7936

                     82                     83                     84
                      A                      A                      A
 Frequencies --   1517.0108              1518.9829              1525.0698
 Red. masses --      1.0751                 1.0785                 1.0690
 Frc consts  --      1.4577                 1.4661                 1.4649
 IR Inten    --      3.5469                 0.3305                 0.4222

                     85                     86                     87
                      A                      A                      A
 Frequencies --   1528.3824              1533.0495              1539.2812
 Red. masses --      1.0581                 1.0527                 1.0655
 Frc consts  --      1.4563                 1.4577                 1.4874
 IR Inten    --      0.4347                 6.0766                 9.8863

                     88                     89                     90
                      A                      A                      A
 Frequencies --   1540.9088              1549.0134              1713.3754
 Red. masses --      1.0624                 1.0791                 1.0836
 Frc consts  --      1.4862                 1.5255                 1.8742
 IR Inten    --      8.6702                12.6431                10.7853

                     91                     92                     93
                      A                      A                      A
 Frequencies --   2966.9312              2989.1529              2995.4607
 Red. masses --      1.0824                 1.0715                 1.0737
 Frc consts  --      5.6137                 5.6407                 5.6763
 IR Inten    --     28.5076                16.1434                67.7994

                     94                     95                     96
                      A                      A                      A
 Frequencies --   3030.4782              3032.6904              3042.7189
 Red. masses --      1.0686                 1.0683                 1.0651
 Frc consts  --      5.7821                 5.7891                 5.8096
 IR Inten    --     19.8869                10.7632                21.5309

                     97                     98                     99
                      A                      A                      A
 Frequencies --   3045.8995              3049.3208              3062.9283
 Red. masses --      1.0547                 1.0602                 1.0985
 Frc consts  --      5.7652                 5.8084                 6.0720
 IR Inten    --     13.1322                93.5456                29.5611

                    100                    101                    102
                      A                      A                      A
 Frequencies --   3066.3337              3087.3704              3089.2092
 Red. masses --      1.0379                 1.0983                 1.0637
 Frc consts  --      5.7498                 6.1678                 5.9808
 IR Inten    --     15.6641                66.7051                 1.1847

                    103                    104                    105
                      A                      A                      A
 Frequencies --   3090.7055              3093.8659              3104.8067
 Red. masses --      1.0806                 1.0635                 1.0904
 Frc consts  --      6.0818                 5.9980                 6.1928
 IR Inten    --      9.3514                 3.1136                14.7072

                    106                    107                    108
                      A                      A                      A
 Frequencies --   3112.7803              3115.6838              3116.5612
 Red. masses --      1.1018                 1.1018                 1.0894
 Frc consts  --      6.2901                 6.3020                 6.2344
 IR Inten    --     54.3058                53.6945                44.4256

                    109                    110                    111
                      A                      A                      A
 Frequencies --   3133.6653              3151.7917              3153.0485
 Red. masses --      1.1025                 1.1068                 1.1014
 Frc consts  --      6.3786                 6.4777                 6.4516
 IR Inten    --     18.0812                 5.1163                17.8638

                    112                    113                    114
                      A                      A                      A
 Frequencies --   3157.0554              3442.8451              3528.5156
 Red. masses --      1.1085                 1.0493                 1.0913
 Frc consts  --      6.5094                 7.3278                 8.0054
 IR Inten    --      3.4332                18.5537                23.9168

 - Thermochemistry -
 -------------------
 Temperature   298.150 Kelvin.  Pressure   1.00000 Atm.
 Atom     1 has atomic number  6 and mass  12.00000

 Molecular mass:   248.15585 amu.
 Principal axes and moments of inertia in atomic units:
                           1         2         3
     Eigenvalues --  1904.504347696.768108189.98086
           X            0.99991  -0.01310  -0.00252
           Y            0.01315   0.99968   0.02178
           Z            0.00223  -0.02181   0.99976
 This molecule is an asymmetric top.
 Rotational symmetry number  1.
 Warning -- assumption of classical behavior for rotation
           may cause significant error
 Rotational temperatures (Kelvin)      0.04548     0.01125     0.01058
 Rotational constants (GHZ):           0.94762     0.23448     0.22036
 Zero-point vibrational energy     945009.3 (Joules/Mol)
                                  225.86265 (Kcal/Mol)
 Warning -- explicit consideration of  29 degrees of freedom as
           vibrations may cause significant error
 Vibrational temperatures:     45.66    64.21    82.95   106.55   157.56
          (Kelvin)            182.18   217.69   249.43   315.82   330.46
                              362.49   397.04   411.61   429.56   444.97
                              480.59   495.68   510.54   533.25   558.27
                              567.83   603.41   622.40   672.65   705.17
                              720.45   728.94   838.25   868.74   978.61
                             1046.32  1070.04  1113.68  1164.81  1243.04
                             1260.55  1283.24  1302.97  1315.85  1366.98
                             1369.37  1379.63  1414.87  1480.42  1495.71
                             1508.72  1526.39  1551.50  1572.11  1576.79
                             1588.95  1615.95  1637.47  1654.32  1692.41
                             1702.92  1750.89  1765.13  1769.39  1821.44
                             1840.81  1862.69  1867.67  1888.45  1901.42
                             1926.55  1958.01  1977.91  1996.92  2003.23
                             2010.02  2025.75  2026.63  2047.86  2074.02
                             2078.30  2087.78  2101.50  2109.12  2125.76
                             2170.31  2182.64  2185.48  2194.24  2199.00
                             2205.72  2214.68  2217.02  2228.68  2465.17
                             4268.75  4300.72  4309.80  4360.18  4363.37
                             4377.79  4382.37  4387.29  4406.87  4411.77
                             4442.04  4444.68  4446.84  4451.38  4467.12
                             4478.60  4482.77  4484.04  4508.65  4534.73
                             4536.53  4542.30  4953.49  5076.75

 Zero-point correction=                           0.359935 (Hartree/Particle)
 Thermal correction to Energy=                    0.377409
 Thermal correction to Enthalpy=                  0.378353
 Thermal correction to Gibbs Free Energy=         0.314873
 Sum of electronic and zero-point Energies=          -1091.411944
 Sum of electronic and thermal Energies=             -1091.394470
 Sum of electronic and thermal Enthalpies=           -1091.393526
 Sum of electronic and thermal Free Energies=        -1091.457006

                     E (Thermal)             CV                S
                      KCal/Mol        Cal/Mol-Kelvin    Cal/Mol-Kelvin
 Total                  236.828             68.167            133.605
 Electronic               0.000              0.000              0.000
 Translational            0.889              2.981             42.427
 Rotational               0.889              2.981             33.151
 Vibrational            235.050             62.206             58.027
 Vibration     1          0.594              1.983              5.718
 Vibration     2          0.595              1.980              5.042
 Vibration     3          0.596              1.974              4.536
 Vibration     4          0.599              1.966              4.043
 Vibration     5          0.606              1.942              3.278
 Vibration     6          0.611              1.927              2.997
 Vibration     7          0.619              1.901              2.656
 Vibration     8          0.627              1.875              2.399
 Vibration     9          0.647              1.811              1.963
 Vibration    10          0.652              1.796              1.881
 Vibration    11          0.664              1.759              1.717
 Vibration    12          0.678              1.718              1.559
 Vibration    13          0.684              1.700              1.497
 Vibration    14          0.692              1.676              1.425
 Vibration    15          0.699              1.656              1.366
 Vibration    16          0.716              1.608              1.241
 Vibration    17          0.723              1.586              1.191
 Vibration    18          0.731              1.565              1.145
 Vibration    19          0.743              1.533              1.077
 Vibration    20          0.756              1.496              1.008
 Vibration    21          0.762              1.482              0.982
 Vibration    22          0.782              1.428              0.894
 Vibration    23          0.793              1.399              0.850
 Vibration    24          0.825              1.322              0.745
 Vibration    25          0.846              1.272              0.683
 Vibration    26          0.856              1.248              0.656
 Vibration    27          0.862              1.235              0.642
 Vibration    28          0.939              1.069              0.481
 Vibration    29          0.962              1.024              0.443

 Optimization completed.
    -- Stationary point found.
 Normal termination of Gaussian 16 at Thu Dec 10 21:38:41 2020.

 ----------------------------------------------------------------------
 # B3LYP/6-311++G(d,p) empiricaldispersion=gd3bj scf=xqc pop=npa geom=c
 heck
 ----------------------------------------------------------------------

 ---------------------------------------
 CID_102884160_JID_6216_Energie_neutraal
 ---------------------------------------
 Structure from the checkpoint file:  "JID_6216.chk"
 Charge =  0 Multiplicity = 1

 SCF Done:  E(RB3LYP) =  -1092.00318452     A.U. after   15 cycles
 Normal termination of Gaussian 16 at Thu Dec 10 21:48:50 2020.

 ----------------------------------------------------------------------
 # B3LYP/6-311++G(d,p) empiricaldispersion=gd3bj scf=xqc pop=npa geom=c
 heck
 ----------------------------------------------------------------------

 -------------------------------------
 CID_102884160_JID_6216_Energie_kation
 -------------------------------------
 Structure from the checkpoint file:  "JID_6216.chk"
 Charge =  1 Multiplicity = 2

 SCF Done:  E(UB3LYP) =  -1091.70198308     A.U. after   20 cycles
 Normal termination of Gaussian 16 at Thu Dec 10 22:07:26 2020.
 Gaussian 16:  ES64L-G16RevA.03 25-Dec-2016

 ----------------------------------------------------------------------
 # B3LYP/6-311++G(d,p) empiricaldispersion=gd3bj scf=xqc pop=npa geom=c
 heck
 ----------------------------------------------------------------------

 ------------------------------------
 CID_102884160_JID_6216_Energie_anion
 ------------------------------------
 Structure from the checkpoint file:  "JID_6216.chk"
 Charge = -1 Multiplicity = 2

                         Standard orientation:
 ---------------------------------------------------------------------
 Center     Atomic      Atomic             Coordinates (Angstroms)
 Number     Number       Type             X           Y           Z
 ---------------------------------------------------------------------
      1          6           0        5.382332   -0.672798   -0.203250
      2          6           0        4.013434   -1.288852   -0.509510
      3          6           0        2.959335   -1.033267    0.576968
      4          6           0        2.638051    0.441955    0.865117
      5          6           0        2.206893    1.240991   -0.387816
      6          6           0        1.068764    0.627714   -1.219170
      7          7           0       -0.156120    0.267961   -0.464361
      8          6           0       -0.670558   -1.033375   -0.917937
      9          6           0       -1.687261   -1.637243    0.047937
     10         16           0       -3.143020   -0.575423    0.145223
     11          8           0       -3.975394   -0.967224    1.291685
     12          8           0       -3.720006   -0.476339   -1.207683
     13          6           0       -2.317259    0.988431    0.508139
     14          6           0       -1.202092    1.313938   -0.498447
     15          6           0       -0.671083    2.708132   -0.154591
     16          7           0        1.672371    0.489566    1.975431
     17          1           0        5.339957    0.421860   -0.177064
     18          1           0        6.120936   -0.954982   -0.961580
     19          1           0        5.754971   -1.011861    0.770872
     20          1           0        3.658908   -0.917739   -1.480758
     21          1           0        4.128522   -2.374005   -0.628860
     22          1           0        2.029208   -1.555054    0.312754
     23          1           0        3.290286   -1.479356    1.522233
     24          1           0        3.556894    0.914307    1.236092
     25          1           0        1.952119    2.256280   -0.067461
     26          1           0        3.063652    1.348283   -1.068108
     27          1           0        0.824766    1.290618   -2.065127
     28          1           0        1.448251   -0.291177   -1.673147
     29          1           0       -1.121097   -0.975551   -1.923345
     30          1           0        0.172759   -1.726636   -0.973294
     31          1           0       -1.281698   -1.731222    1.059008
     32          1           0       -2.041544   -2.612047   -0.299081
     33          1           0       -1.923683    0.916580    1.526399
     34          1           0       -3.105657    1.745862    0.479851
     35          1           0       -1.658809    1.354768   -1.503670
     36          1           0        0.050346    3.067045   -0.891543
     37          1           0       -1.504074    3.417935   -0.137625
     38          1           0       -0.193919    2.711836    0.830473
     39          1           0        1.593516    1.449634    2.310906
     40          1           0        0.759821    0.253450    1.584343
 ---------------------------------------------------------------------

 SCF Done:  E(UB3LYP) =  -1091.99465920     A.U. after   31 cycles

 The electronic state is 2-A.
 Alpha  occ. eigenvalues --  -88.96002 -19.03348 -19.03083 -14.23670 -14.18888
 Alpha  occ. eigenvalues --  -10.13898 -10.13208 -10.13098 -10.12794 -10.11016
 Alpha  occ. eigenvalues --  -10.10117 -10.08196 -10.07406 -10.07147 -10.06814
 Alpha  occ. eigenvalues --  -10.06787  -8.02551  -5.98813  -5.98695  -5.98649
 Alpha  occ. eigenvalues --   -1.02414  -0.92101  -0.85890  -0.79045  -0.73147
 Alpha  occ. eigenvalues --   -0.72330  -0.69760  -0.66251  -0.63674  -0.60889
 Alpha  occ. eigenvalues --   -0.57788  -0.56168  -0.52868  -0.51010  -0.48850
 Alpha  occ. eigenvalues --   -0.45954  -0.42531  -0.42346  -0.42075  -0.40193
 Alpha  occ. eigenvalues --   -0.39752  -0.38409  -0.37702  -0.37202  -0.35234
 Alpha  occ. eigenvalues --   -0.34771  -0.34228  -0.33448  -0.32600  -0.32075
 Alpha  occ. eigenvalues --   -0.31588  -0.30772  -0.30075  -0.29752  -0.28425
 Alpha  occ. eigenvalues --   -0.27790  -0.27439  -0.26461  -0.25450  -0.24798
 Alpha  occ. eigenvalues --   -0.24122  -0.23906  -0.23110  -0.22269  -0.22137
 Alpha  occ. eigenvalues --   -0.20357  -0.16378  -0.13610   0.03845
 Alpha virt. eigenvalues --    0.05624   0.06250   0.06873   0.07618   0.08470
 Alpha virt. eigenvalues --    0.08630   0.09088   0.09223   0.09904   0.10600
 Alpha virt. eigenvalues --    0.10887   0.11257   0.11660   0.12073   0.12493

  Beta  occ. eigenvalues --  -88.96000 -19.03348 -19.03079 -14.23654 -14.18875
  Beta  occ. eigenvalues --  -10.13891 -10.13193 -10.13086 -10.12779 -10.10995
  Beta  occ. eigenvalues --  -10.10111 -10.08148 -10.07384 -10.07123 -10.06803
  Beta  occ. eigenvalues --  -10.06761  -8.02548  -5.98811  -5.98691  -5.98646
  Beta  occ. eigenvalues --   -1.02405  -0.92095  -0.85866  -0.79019  -0.73120
  Beta  occ. eigenvalues --   -0.72303  -0.69727  -0.66208  -0.63616  -0.60848
  Beta  occ. eigenvalues --   -0.57746  -0.56111  -0.52814  -0.50951  -0.48803
  Beta  occ. eigenvalues --   -0.45910  -0.42516  -0.42317  -0.42048  -0.40149
  Beta  occ. eigenvalues --   -0.39723  -0.38388  -0.37675  -0.37163  -0.35197
  Beta  occ. eigenvalues --   -0.34744  -0.34196  -0.33419  -0.32571  -0.32038
  Beta  occ. eigenvalues --   -0.31555  -0.30732  -0.30043  -0.29711  -0.28393
  Beta  occ. eigenvalues --   -0.27743  -0.27402  -0.26423  -0.25424  -0.24781
  Beta  occ. eigenvalues --   -0.24087  -0.23898  -0.23078  -0.22246  -0.22124
  Beta  occ. eigenvalues --   -0.20339  -0.16320  -0.13561
  Beta virt. eigenvalues --    0.06018   0.06599   0.06777   0.07446   0.08178
  Beta virt. eigenvalues --    0.08725   0.08983   0.09415   0.09613   0.10304
  Beta virt. eigenvalues --    0.10762   0.11071   0.11551   0.12031   0.12266

 Mulliken charges and spin densities:
               1          2
     1  C    0.732124  -1.356495
     2  C   -0.576936   0.345726
     3  C    0.145493  -0.156504
     4  C    0.249859  -0.636976
     5  C   -0.409420  -0.087198
     6  C    0.172355  -0.670536
     7  N    0.416646   0.009723
     8  C    0.044967  -0.191157
     9  C   -0.591390  -0.281867
    10  S    0.709610  -0.098670
    11  O   -0.112830   0.009576
    12  O   -0.260559   0.013509
    13  C   -0.278235  -0.590406
    14  C   -1.914770   1.725222
    15  C    1.970333  -2.579236
    16  N   -0.219910   0.003144
    17  H   -0.074393   0.208207
    18  H   -0.241768   0.379871
    19  H    0.035008   0.097550
    20  H   -0.006206   0.133430
    21  H   -0.269294   0.423204
    22  H    0.079036   0.049330
    23  H    0.040171   0.150178
    24  H   -0.007211   0.236625
    25  H    0.175717  -0.017571
    26  H   -0.526446   0.694939
    27  H   -0.151759   0.340460
    28  H    0.030484   0.121437
    29  H    0.144372   0.065673
    30  H   -0.379686   0.509168
    31  H    0.144064   0.086510
    32  H    0.076699   0.190470
    33  H    0.143221   0.100296
    34  H    0.154744   0.101422
    35  H    0.032604   0.177087
    36  H   -0.588665   0.768451
    37  H   -0.151228   0.303022
    38  H   -0.144313   0.326281
    39  H    0.002937   0.219321
    40  H    0.404576  -0.123216
 Sum of Mulliken charges =  -1.00000   1.00000

 Dipole moment (field-independent basis, Debye):
    X=             -2.6423    Y=             -2.0203    Z=              1.4362  Tot=              3.6230
 Quadrupole moment (field-independent basis, Debye-Ang):
   XX=           -207.4483   YY=           -161.0337   ZZ=           -152.7471
   XY=             -1.5266   XZ=              4.6150   YZ=              4.1454

 Summary of Natural Population Analysis:

                                       Natural Population
                Natural  -----------------------------------------------
    Atom  No    Charge         Core      Valence    Rydberg      Total
 -----------------------------------------------------------------------
      C    1   -0.28483      0.99967     2.28084    0.00432     3.28483
      C    2   -0.19173      0.99964     2.18429    0.00780     3.19173
      C    3   -0.19281      0.99960     2.18301    0.01020     3.19281
      C    4   -0.01346      0.99959     2.00157    0.01230     3.01346
      C    5   -0.20306      0.99960     2.19304    0.01042     3.20306
      C    6   -0.08822      0.99960     2.07631    0.01231     3.08822
      N    7   -0.29933      0.99970     2.78528    0.01436     3.79933
      C    8   -0.09238      0.99959     2.08156    0.01122     3.09238
      C    9   -0.29588      0.99958     2.28446    0.01185     3.29588
      S   10    1.02460      4.99923     1.88196    0.09421     6.97540
      O   11   -0.46764      0.99991     3.46244    0.00529     4.46764
      O   12   -0.47095      0.99991     3.46573    0.00531     4.47095
      C   13   -0.29487      0.99955     2.28273    0.01259     3.29487
      C   14   -0.01070      0.99957     1.99850    0.01263     3.01070
      C   15   -0.29049      0.99964     2.28323    0.00763     3.29049
      N   16   -0.42753      0.99977     2.91780    0.00997     3.92753
      H   17    0.09649      0.00000     0.40233    0.00117     0.40351
      H   18    0.09904      0.00000     0.39989    0.00106     0.40096
      H   19    0.09450      0.00000     0.40439    0.00111     0.40550
      H   20    0.09336      0.00000     0.40503    0.00161     0.40664
      H   21    0.09587      0.00000     0.40303    0.00110     0.40413
      H   22    0.09324      0.00000     0.40516    0.00160     0.40676
      H   23    0.10198      0.00000     0.39680    0.00122     0.39802
      H   24    0.09082      0.00000     0.40740    0.00178     0.40918
      H   25    0.10030      0.00000     0.39789    0.00181     0.39970
      H   26    0.10373      0.00000     0.39488    0.00139     0.39627
      H   27    0.09459      0.00000     0.40404    0.00137     0.40541
      H   28    0.09770      0.00000     0.40024    0.00206     0.40230
      H   29    0.09506      0.00000     0.40360    0.00134     0.40494
      H   30    0.10706      0.00000     0.39147    0.00147     0.39294
      H   31    0.11693      0.00000     0.38160    0.00147     0.38307
      H   32    0.12039      0.00000     0.37843    0.00117     0.37961
      H   33    0.11629      0.00000     0.38223    0.00148     0.38371
      H   34    0.12119      0.00000     0.37772    0.00109     0.37881
      H   35    0.09370      0.00000     0.40468    0.00162     0.40630
      H   36    0.11002      0.00000     0.38822    0.00176     0.38998
      H   37    0.10511      0.00000     0.39373    0.00116     0.39489
      H   38    0.10200      0.00000     0.39625    0.00175     0.39800
      H   39    0.17055      0.00000     0.32732    0.00213     0.32945
      H   40    0.17934      0.00000     0.31743    0.00323     0.32066
 =======================================================================
   * Total *   -0.00000     19.99413    47.72651    0.27935    68.00000

 Normal termination of Gaussian 16 at Thu Dec 10 22:36:41 2020.
