 Gaussian 16, Revision A.03,

 -----------------------------------------------------------
 # opt freq B3LYP/6-31G(d) empiricaldispersion=gd3bj scf=xqc
 -----------------------------------------------------------

 ------------------------------
 CID_63562649_JID_3589_neutraal
 ------------------------------
 Symbolic Z-matrix:
 Charge =  0 Multiplicity = 1

 SCF Done:  E(RB3LYP) =  -918.258445999     A.U. after   14 cycles
 SCF Done:  E(RB3LYP) =  -918.262646527     A.U. after   12 cycles
 SCF Done:  E(RB3LYP) =  -918.262259830     A.U. after   12 cycles
 SCF Done:  E(RB3LYP) =  -918.263211883     A.U. after   12 cycles
 SCF Done:  E(RB3LYP) =  -918.263428376     A.U. after   10 cycles
 SCF Done:  E(RB3LYP) =  -918.263566802     A.U. after   11 cycles
 SCF Done:  E(RB3LYP) =  -918.263799264     A.U. after   12 cycles
 SCF Done:  E(RB3LYP) =  -918.263878057     A.U. after   11 cycles
 SCF Done:  E(RB3LYP) =  -918.263922926     A.U. after   11 cycles
 SCF Done:  E(RB3LYP) =  -918.263993288     A.U. after   11 cycles
 SCF Done:  E(RB3LYP) =  -918.274446435     A.U. after    8 cycles
 SCF Done:  E(RB3LYP) =  -918.274446516     A.U. after    7 cycles
 SCF Done:  E(RB3LYP) =  -918.274446429     A.U. after    8 cycles
 SCF Done:  E(RB3LYP) =  -918.274446557     A.U. after    7 cycles
 SCF Done:  E(RB3LYP) =  -918.274446575     A.U. after    6 cycles
 Optimization completed.
    -- Stationary point found.
 Normal termination of Gaussian 16 at Sun Dec 13 13:07:14 2020.

 --------------------------------------------------------------------
 #N Geom=AllCheck Guess=TCheck SCRF=Check GenChk RB3LYP/6-31G(d) Freq
 --------------------------------------------------------------------

 Structure from the checkpoint file:  "JID_3589.chk"
 ------------------------------
 CID_63562649_JID_3589_neutraal
 ------------------------------
 Charge =  0 Multiplicity = 1

 SCF Done:  E(RB3LYP) =  -918.274446575     A.U. after    1 cycles

  Exact polarizability: 149.536  17.892 111.428   0.079   5.127 109.903
 Approx polarizability: 203.326  35.995 160.141   0.812  17.624 193.726

                      1                      2                      3
                      A                      A                      A
 Frequencies --     37.6821                50.9514                67.8550
 Red. masses --      4.3206                 4.8591                 3.4913
 Frc consts  --      0.0036                 0.0074                 0.0095
 IR Inten    --      3.8169                 0.2890                 1.1314

                      4                      5                      6
                      A                      A                      A
 Frequencies --     74.8986               104.5968               155.1301
 Red. masses --      3.3094                 2.5249                 2.7936
 Frc consts  --      0.0109                 0.0163                 0.0396
 IR Inten    --      0.2746                 1.2623                 0.4887

                      7                      8                      9
                      A                      A                      A
 Frequencies --    176.7006               205.4804               256.2249
 Red. masses --      1.7316                 2.2854                 1.6287
 Frc consts  --      0.0319                 0.0569                 0.0630
 IR Inten    --      2.1134                 0.6540                 4.3410

                     10                     11                     12
                      A                      A                      A
 Frequencies --    276.1987               300.6473               360.3712
 Red. masses --      3.9066                 5.3600                 3.9685
 Frc consts  --      0.1756                 0.2854                 0.3037
 IR Inten    --      0.3505                 0.6796                 1.3302

                     13                     14                     15
                      A                      A                      A
 Frequencies --    429.0149               452.4635               476.9413
 Red. masses --      2.5241                 4.0189                 4.0301
 Frc consts  --      0.2737                 0.4848                 0.5401
 IR Inten    --      0.4693                 3.9268                 3.9924

                     16                     17                     18
                      A                      A                      A
 Frequencies --    615.5272               630.3839               667.0195
 Red. masses --      3.1067                 4.5858                 2.2773
 Frc consts  --      0.6935                 1.0737                 0.5970
 IR Inten    --      4.6363                 6.9360                12.0368

                     19                     20                     21
                      A                      A                      A
 Frequencies --    689.9738               699.9340               708.2812
 Red. masses --      1.5022                 2.6395                 2.9798
 Frc consts  --      0.4214                 0.7619                 0.8807
 IR Inten    --      4.3450                25.7502                20.7699

                     22                     23                     24
                      A                      A                      A
 Frequencies --    792.4103               821.3171               850.0737
 Red. masses --      1.4319                 3.1431                 2.1864
 Frc consts  --      0.5298                 1.2492                 0.9309
 IR Inten    --     44.2617                23.8681                38.8982

                     25                     26                     27
                      A                      A                      A
 Frequencies --    859.6539               882.6944               901.6371
 Red. masses --      3.9102                 1.7659                 1.6160
 Frc consts  --      1.7025                 0.8107                 0.7740
 IR Inten    --     21.4307                 2.6503                 0.9170

                     28                     29                     30
                      A                      A                      A
 Frequencies --    906.3986               937.0008               945.5919
 Red. masses --      1.8245                 3.0650                 3.6548
 Frc consts  --      0.8832                 1.5855                 1.9254
 IR Inten    --      3.2385                22.9345                 0.8747

                     31                     32                     33
                      A                      A                      A
 Frequencies --    975.9778               983.0654              1010.4073
 Red. masses --      2.0922                 1.4623                 2.1059
 Frc consts  --      1.1742                 0.8327                 1.2667
 IR Inten    --     13.0661                 9.5230                 2.0179

                     34                     35                     36
                      A                      A                      A
 Frequencies --   1077.9397              1111.2451              1115.4681
 Red. masses --      3.5023                 1.3040                 1.9872
 Frc consts  --      2.3977                 0.9487                 1.4568
 IR Inten    --     39.9659                 5.3701                 6.2726

                     37                     38                     39
                      A                      A                      A
 Frequencies --   1134.1208              1138.7233              1143.1747
 Red. masses --      4.4426                 1.9550                 1.6679
 Frc consts  --      3.3667                 1.4936                 1.2842
 IR Inten    --     82.6547                 1.5375                 2.4609

                     40                     41                     42
                      A                      A                      A
 Frequencies --   1173.5139              1184.5797              1207.8887
 Red. masses --      1.9135                 1.7866                 1.2997
 Frc consts  --      1.5525                 1.4771                 1.1173
 IR Inten    --     33.4096                19.0356                 6.1882

                     43                     44                     45
                      A                      A                      A
 Frequencies --   1214.4207              1247.1270              1260.7642
 Red. masses --      1.4322                 1.2968                 1.3103
 Frc consts  --      1.2445                 1.1883                 1.2272
 IR Inten    --      5.6624                 8.6664                11.2072

                     46                     47                     48
                      A                      A                      A
 Frequencies --   1271.5411              1303.6153              1326.3188
 Red. masses --      1.6110                 1.2990                 1.3208
 Frc consts  --      1.5347                 1.3006                 1.3690
 IR Inten    --      9.5787                 1.7246                 3.0428

                     49                     50                     51
                      A                      A                      A
 Frequencies --   1355.7338              1368.1520              1383.0676
 Red. masses --      1.3550                 1.4813                 1.2869
 Frc consts  --      1.4674                 1.6337                 1.4504
 IR Inten    --      1.3066                22.8054                 0.7673

                     52                     53                     54
                      A                      A                      A
 Frequencies --   1399.7725              1431.2697              1436.3580
 Red. masses --      1.3712                 1.4625                 2.2699
 Frc consts  --      1.5829                 1.7652                 2.7592
 IR Inten    --      1.0283                 5.6817                 1.9453

                     55                     56                     57
                      A                      A                      A
 Frequencies --   1479.4467              1482.8196              1507.5330
 Red. masses --      2.7887                 1.4318                 1.3211
 Frc consts  --      3.5963                 1.8548                 1.7690
 IR Inten    --     15.6567                 8.5881                24.3493

                     58                     59                     60
                      A                      A                      A
 Frequencies --   1517.9384              1521.9428              1547.1072
 Red. masses --      1.1030                 1.0578                 1.0647
 Frc consts  --      1.4974                 1.4436                 1.5015
 IR Inten    --      2.0545                 3.0057                 9.5163

                     61                     62                     63
                      A                      A                      A
 Frequencies --   1548.3524              1560.2034              1605.1678
 Red. masses --      1.0817                 1.0995                 5.6693
 Frc consts  --      1.5279                 1.5769                 8.6064
 IR Inten    --      3.2916                 0.1236                 0.8533

                     64                     65                     66
                      A                      A                      A
 Frequencies --   2906.0464              2960.5529              2989.4201
 Red. masses --      1.0809                 1.0608                 1.0728
 Frc consts  --      5.3781                 5.4779                 5.6488
 IR Inten    --     51.2553                90.8976                89.1808

                     67                     68                     69
                      A                      A                      A
 Frequencies --   3034.1849              3046.2578              3058.8562
 Red. masses --      1.0624                 1.0666                 1.0844
 Frc consts  --      5.7628                 5.8317                 5.9778
 IR Inten    --     50.2268                18.0670                 4.9456

                     70                     71                     72
                      A                      A                      A
 Frequencies --   3080.5812              3092.3173              3098.8698
 Red. masses --      1.1009                 1.0720                 1.0918
 Frc consts  --      6.1555                 6.0399                 6.1771
 IR Inten    --     52.3003                36.2682                50.1300

                     73                     74                     75
                      A                      A                      A
 Frequencies --   3111.9222              3135.4776              3235.8284
 Red. masses --      1.1023                 1.1040                 1.0899
 Frc consts  --      6.2894                 6.3945                 6.7234
 IR Inten    --     38.1695                27.6348                 0.6593

                     76                     77                     78
                      A                      A                      A
 Frequencies --   3263.6788              3271.4568              3507.4959
 Red. masses --      1.0934                 1.0979                 1.0737
 Frc consts  --      6.8620                 6.9232                 7.7824
 IR Inten    --      0.9675                 0.9762                 1.3119

 - Thermochemistry -
 -------------------
 Temperature   298.150 Kelvin.  Pressure   1.00000 Atm.
 Atom     1 has atomic number  6 and mass  12.00000

 Molecular mass:   197.08744 amu.
 Principal axes and moments of inertia in atomic units:
                           1         2         3
     Eigenvalues --  1664.960424033.777205098.31134
           X            0.99997  -0.00705  -0.00171
           Y            0.00702   0.99982  -0.01741
           Z            0.00184   0.01740   0.99985
 This molecule is an asymmetric top.
 Rotational symmetry number  1.
 Warning -- assumption of classical behavior for rotation
           may cause significant error
 Rotational temperatures (Kelvin)      0.05202     0.02147     0.01699
 Rotational constants (GHZ):           1.08395     0.44741     0.35399
 Zero-point vibrational energy     628941.2 (Joules/Mol)
                                  150.32055 (Kcal/Mol)
 Warning -- explicit consideration of  16 degrees of freedom as
           vibrations may cause significant error
 Vibrational temperatures:     54.22    73.31    97.63   107.76   150.49
          (Kelvin)            223.20   254.23   295.64   368.65   397.39
                              432.56   518.49   617.26   650.99   686.21
                              885.61   906.98   959.69   992.72  1007.05
                             1019.06  1140.10  1181.69  1223.07  1236.85
                             1270.00  1297.25  1304.11  1348.14  1360.50
                             1404.21  1414.41  1453.75  1550.91  1598.83
                             1604.91  1631.75  1638.37  1644.77  1688.42
                             1704.35  1737.88  1747.28  1794.34  1813.96
                             1829.46  1875.61  1908.28  1950.60  1968.47
                             1989.93  2013.96  2059.28  2066.60  2128.59
                             2133.45  2169.00  2183.97  2189.74  2225.94
                             2227.73  2244.78  2309.48  4181.15  4259.58
                             4301.11  4365.52  4382.89  4401.01  4432.27
                             4449.15  4458.58  4477.36  4511.25  4655.64
                             4695.71  4706.90  5046.50

 Zero-point correction=                           0.239551 (Hartree/Particle)
 Thermal correction to Energy=                    0.252420
 Thermal correction to Enthalpy=                  0.253364
 Thermal correction to Gibbs Free Energy=         0.198601
 Sum of electronic and zero-point Energies=           -918.034896
 Sum of electronic and thermal Energies=              -918.022026
 Sum of electronic and thermal Enthalpies=            -918.021082
 Sum of electronic and thermal Free Energies=         -918.075846

                     E (Thermal)             CV                S
                      KCal/Mol        Cal/Mol-Kelvin    Cal/Mol-Kelvin
 Total                  158.396             47.960            115.259
 Electronic               0.000              0.000              0.000
 Translational            0.889              2.981             41.740
 Rotational               0.889              2.981             31.904
 Vibrational            156.619             41.998             41.614
 Vibration     1          0.594              1.982              5.377
 Vibration     2          0.595              1.977              4.780
 Vibration     3          0.598              1.970              4.215
 Vibration     4          0.599              1.966              4.020
 Vibration     5          0.605              1.946              3.367
 Vibration     6          0.620              1.897              2.608
 Vibration     7          0.628              1.871              2.363
 Vibration     8          0.640              1.832              2.083
 Vibration     9          0.666              1.752              1.687
 Vibration    10          0.678              1.717              1.557
 Vibration    11          0.693              1.672              1.413
 Vibration    12          0.735              1.554              1.121
 Vibration    13          0.790              1.407              0.862
 Vibration    14          0.811              1.355              0.788
 Vibration    15          0.834              1.301              0.718
 Vibration    16          0.975              0.999              0.424

 Optimization completed.
    -- Stationary point found.
 Normal termination of Gaussian 16 at Sun Dec 13 13:14:44 2020.

 ----------------------------------------------------------------------
 # B3LYP/6-311++G(d,p) empiricaldispersion=gd3bj scf=xqc pop=npa geom=c
 heck
 ----------------------------------------------------------------------

 --------------------------------------
 CID_63562649_JID_3589_Energie_neutraal
 --------------------------------------
 Structure from the checkpoint file:  "JID_3589.chk"
 Charge =  0 Multiplicity = 1

 SCF Done:  E(RB3LYP) =  -918.448326658     A.U. after   15 cycles
 Normal termination of Gaussian 16 at Sun Dec 13 13:18:22 2020.

 ----------------------------------------------------------------------
 # B3LYP/6-311++G(d,p) empiricaldispersion=gd3bj scf=xqc pop=npa geom=c
 heck
 ----------------------------------------------------------------------

 ------------------------------------
 CID_63562649_JID_3589_Energie_kation
 ------------------------------------
 Structure from the checkpoint file:  "JID_3589.chk"
 Charge =  1 Multiplicity = 2

 SCF Done:  E(UB3LYP) =  -918.146366487     A.U. after   32 cycles
 Normal termination of Gaussian 16 at Sun Dec 13 13:29:05 2020.
 Gaussian 16:  ES64L-G16RevA.03 25-Dec-2016

 ----------------------------------------------------------------------
 # B3LYP/6-311++G(d,p) empiricaldispersion=gd3bj scf=xqc pop=npa geom=c
 heck
 ----------------------------------------------------------------------

 -----------------------------------
 CID_63562649_JID_3589_Energie_anion
 -----------------------------------
 Structure from the checkpoint file:  "JID_3589.chk"
 Charge = -1 Multiplicity = 2

                         Standard orientation:
 ---------------------------------------------------------------------
 Center     Atomic      Atomic             Coordinates (Angstroms)
 Number     Number       Type             X           Y           Z
 ---------------------------------------------------------------------
      1          6           0       -0.574772    3.082477   -0.445092
      2          7           0        0.340239    2.174692    0.240775
      3          6           0        0.346149    0.820720   -0.317059
      4          6           0        1.478086    0.006201    0.327928
      5          6           0        2.900243    0.518325    0.039721
      6          6           0        3.726930   -0.747131    0.265051
      7          8           0        2.932197   -1.814813   -0.241908
      8          6           0        1.550274   -1.447131   -0.184259
      9          6           0       -0.992284    0.161868   -0.074475
     10          6           0       -1.712857   -0.509513   -1.025104
     11         16           0       -3.174941   -1.190213   -0.380393
     12          6           0       -2.817932   -0.551524    1.196525
     13          6           0       -1.639095    0.137218    1.206584
     14          1           0       -1.605111    2.753508   -0.280701
     15          1           0       -0.412370    3.141708   -1.537155
     16          1           0       -0.468061    4.086974   -0.024043
     17          1           0        1.284313    2.549679    0.184376
     18          1           0        0.526141    0.826347   -1.411352
     19          1           0        1.314909    0.005945    1.412259
     20          1           0        3.208470    1.344374    0.688452
     21          1           0        2.982850    0.843074   -1.005901
     22          1           0        4.683450   -0.752378   -0.267247
     23          1           0        3.929986   -0.889472    1.339437
     24          1           0        1.003561   -2.137371    0.468844
     25          1           0        1.126744   -1.537205   -1.193763
     26          1           0       -1.467552   -0.641018   -2.070404
     27          1           0       -3.503063   -0.720467    2.016111
     28          1           0       -1.232909    0.636310    2.078274
 ---------------------------------------------------------------------

 SCF Done:  E(UB3LYP) =  -918.432796159     A.U. after   33 cycles
 SCF Done:  E(UB3LYP) =  -918.432796159     a.u. after    1 cycles

 The electronic state is 2-A.
 Alpha  occ. eigenvalues --  -88.78516 -19.02297 -14.20076 -10.11812 -10.11556
 Alpha  occ. eigenvalues --  -10.11208 -10.10678 -10.10418 -10.08811 -10.08345
 Alpha  occ. eigenvalues --  -10.08269 -10.08165 -10.07284  -7.87126  -5.83406
 Alpha  occ. eigenvalues --   -5.83044  -5.82738  -0.94004  -0.81806  -0.78508
 Alpha  occ. eigenvalues --   -0.70408  -0.66228  -0.63964  -0.63471  -0.58846
 Alpha  occ. eigenvalues --   -0.53624  -0.49965  -0.48895  -0.47801  -0.44561
 Alpha  occ. eigenvalues --   -0.42201  -0.40273  -0.39523  -0.37305  -0.34882
 Alpha  occ. eigenvalues --   -0.33700  -0.32581  -0.32247  -0.31613  -0.30546
 Alpha  occ. eigenvalues --   -0.30215  -0.28770  -0.27696  -0.27146  -0.26434
 Alpha  occ. eigenvalues --   -0.25039  -0.23873  -0.23366  -0.21975  -0.16082
 Alpha  occ. eigenvalues --   -0.15722  -0.14745  -0.13459   0.04476
 Alpha virt. eigenvalues --    0.06157   0.06884   0.07050   0.07468   0.08226
 Alpha virt. eigenvalues --    0.09323   0.09712   0.10018   0.10158   0.11082
 Alpha virt. eigenvalues --    0.11680   0.11778   0.12376   0.12928   0.13019

  Beta  occ. eigenvalues --  -88.78514 -19.02296 -14.20052 -10.11794 -10.11547
  Beta  occ. eigenvalues --  -10.11196 -10.10658 -10.10406 -10.08813 -10.08314
  Beta  occ. eigenvalues --  -10.08265 -10.08155 -10.07248  -7.87123  -5.83404
  Beta  occ. eigenvalues --   -5.83041  -5.82735  -0.93997  -0.81776  -0.78488
  Beta  occ. eigenvalues --   -0.70380  -0.66197  -0.63941  -0.63443  -0.58798
  Beta  occ. eigenvalues --   -0.53558  -0.49903  -0.48852  -0.47761  -0.44533
  Beta  occ. eigenvalues --   -0.42167  -0.40224  -0.39488  -0.37267  -0.34841
  Beta  occ. eigenvalues --   -0.33660  -0.32551  -0.32217  -0.31586  -0.30514
  Beta  occ. eigenvalues --   -0.30181  -0.28745  -0.27656  -0.27107  -0.26407
  Beta  occ. eigenvalues --   -0.25001  -0.23852  -0.23325  -0.21960  -0.16067
  Beta  occ. eigenvalues --   -0.15708  -0.14713  -0.13399
  Beta virt. eigenvalues --    0.06735   0.07007   0.07292   0.07585   0.08139
  Beta virt. eigenvalues --    0.08728   0.09767   0.09997   0.10234   0.10567
  Beta virt. eigenvalues --    0.11470   0.11990   0.12041   0.12750   0.12940

 Mulliken charges and spin densities:
               1          2
     1  C    0.749842  -1.151637
     2  N   -0.003811  -0.088718
     3  C    0.826816  -1.014565
     4  C   -0.637633   0.468135
     5  C    0.609558  -0.819953
     6  C    0.714663  -1.153678
     7  O   -0.189107   0.044704
     8  C    0.124588  -0.678486
     9  C    0.625724  -1.350038
    10  C    0.088768   1.069466
    11  S    0.331125  -0.779592
    12  C    1.363549  -1.543157
    13  C   -2.973330   2.586896
    14  H    0.014117   0.137689
    15  H   -0.241321   0.370252
    16  H   -0.358035   0.501388
    17  H   -0.120049   0.378573
    18  H   -0.088943   0.268369
    19  H    0.209299  -0.027889
    20  H   -0.451172   0.594871
    21  H   -0.289464   0.467611
    22  H   -0.180415   0.359090
    23  H   -0.041984   0.176929
    24  H    0.028308   0.144438
    25  H    0.147235   0.023423
    26  H   -0.282204   0.564895
    27  H   -0.751028   1.022418
    28  H   -0.225096   0.428568
 Sum of Mulliken charges =  -1.00000   1.00000

 Dipole moment (field-independent basis, Debye):
    X=             -2.3404    Y=             -3.8352    Z=             -0.7695  Tot=              4.5583
 Quadrupole moment (field-independent basis, Debye-Ang):
   XX=           -156.1503   YY=           -139.8559   ZZ=           -124.5312
   XY=             -4.6864   XZ=              9.6161   YZ=              1.6074

 Summary of Natural Population Analysis:

                                       Natural Population
                Natural  -----------------------------------------------
    Atom  No    Charge         Core      Valence    Rydberg      Total
 -----------------------------------------------------------------------
      C    1   -0.17914      0.99966     2.17088    0.00860     3.17914
      N    2   -0.33707      0.99973     2.82525    0.01209     3.83707
      C    3   -0.00972      0.99952     1.99501    0.01520     3.00972
      C    4   -0.12074      0.99957     2.11045    0.01071     3.12074
      C    5   -0.20663      0.99962     2.19756    0.00945     3.20663
      C    6   -0.00620      0.99960     1.99329    0.01331     3.00620
      O    7   -0.30403      0.99989     3.29569    0.00845     4.30403
      C    8   -0.00478      0.99957     1.99472    0.01050     3.00478
      C    9   -0.04591      0.99947     2.03105    0.01540     3.04591
      C   10   -0.18798      0.99943     2.17882    0.00973     3.18798
      S   11    0.19365      4.99946     2.78546    0.02143     7.80635
      C   12   -0.18983      0.99954     2.17812    0.01217     3.18983
      C   13   -0.12176      0.99947     2.11083    0.01146     3.12176
      H   14    0.09434      0.00000     0.40418    0.00148     0.40566
      H   15    0.08022      0.00000     0.41812    0.00166     0.41978
      H   16    0.09655      0.00000     0.40243    0.00102     0.40345
      H   17    0.17768      0.00000     0.31764    0.00468     0.32232
      H   18    0.08508      0.00000     0.41215    0.00277     0.41492
      H   19    0.10167      0.00000     0.39595    0.00238     0.39833
      H   20    0.10788      0.00000     0.39012    0.00200     0.39212
      H   21    0.10042      0.00000     0.39758    0.00199     0.39958
      H   22    0.08979      0.00000     0.40880    0.00141     0.41021
      H   23    0.07571      0.00000     0.42289    0.00140     0.42429
      H   24    0.08693      0.00000     0.41168    0.00139     0.41307
      H   25    0.08421      0.00000     0.41393    0.00186     0.41579
      H   26    0.11211      0.00000     0.38659    0.00130     0.38789
      H   27    0.11183      0.00000     0.38635    0.00182     0.38817
      H   28    0.11573      0.00000     0.38286    0.00141     0.38427
 =======================================================================
   * Total *    0.00000     16.99453    35.81839    0.18707    53.00000

 Normal termination of Gaussian 16 at Sun Dec 13 13:39:55 2020.
