 Gaussian 16, Revision A.03,

 -----------------------------------------------------------
 # opt freq B3LYP/6-31G(d) empiricaldispersion=gd3bj scf=xqc
 -----------------------------------------------------------

 ------------------------------
 CID_78827537_JID_2931_neutraal
 ------------------------------
 Symbolic Z-matrix:
 Charge =  0 Multiplicity = 1

 SCF Done:  E(RB3LYP) =  -1240.25769431     A.U. after   15 cycles
 SCF Done:  E(RB3LYP) =  -1240.26514722     A.U. after   14 cycles
 SCF Done:  E(RB3LYP) =  -1240.26095954     A.U. after   15 cycles
 SCF Done:  E(RB3LYP) =  -1240.26514960     A.U. after   13 cycles
 SCF Done:  E(RB3LYP) =  -1240.26970726     A.U. after   14 cycles
 SCF Done:  E(RB3LYP) =  -1240.27212101     A.U. after   13 cycles
 SCF Done:  E(RB3LYP) =  -1240.27416268     A.U. after   13 cycles
 SCF Done:  E(RB3LYP) =  -1240.27500147     A.U. after   12 cycles
 SCF Done:  E(RB3LYP) =  -1240.27582814     A.U. after   12 cycles
 SCF Done:  E(RB3LYP) =  -1240.27721833     A.U. after   15 cycles
 SCF Done:  E(RB3LYP) =  -1240.28151605     A.U. after    9 cycles
 SCF Done:  E(RB3LYP) =  -1240.28151690     A.U. after    9 cycles
 SCF Done:  E(RB3LYP) =  -1240.28151730     A.U. after    8 cycles
 SCF Done:  E(RB3LYP) =  -1240.28151741     A.U. after    7 cycles
 SCF Done:  E(RB3LYP) =  -1240.28151747     A.U. after    7 cycles
 SCF Done:  E(RB3LYP) =  -1240.28151750     A.U. after    6 cycles
 Optimization completed.
    -- Stationary point found.
 Normal termination of Gaussian 16 at Wed Dec  9 18:21:09 2020.

 --------------------------------------------------------------------
 #N Geom=AllCheck Guess=TCheck SCRF=Check GenChk RB3LYP/6-31G(d) Freq
 --------------------------------------------------------------------

 Structure from the checkpoint file:  "JID_2931.chk"
 ------------------------------
 CID_78827537_JID_2931_neutraal
 ------------------------------
 Charge =  0 Multiplicity = 1

 SCF Done:  E(RB3LYP) =  -1240.28151750     A.U. after    1 cycles

  Exact polarizability: 173.897  -6.045 133.491   6.536   1.132  88.966
 Approx polarizability: 221.205 -18.181 231.733  10.471   1.746 137.567

                      1                      2                      3
                      A                      A                      A
 Frequencies --     27.5970                45.6178                67.3950
 Red. masses --      5.3051                 3.9147                 2.3875
 Frc consts  --      0.0024                 0.0048                 0.0064
 IR Inten    --      1.5878                 0.8769                 1.4341

                      4                      5                      6
                      A                      A                      A
 Frequencies --     88.8391                96.7902               119.9591
 Red. masses --      2.6342                 2.9340                 2.0680
 Frc consts  --      0.0122                 0.0162                 0.0175
 IR Inten    --      0.1551                 1.1648                 0.4018

                      7                      8                      9
                      A                      A                      A
 Frequencies --    157.6494               190.5518               224.7077
 Red. masses --      2.4548                 2.6947                 3.0195
 Frc consts  --      0.0359                 0.0576                 0.0898
 IR Inten    --      1.3129                 0.2314                 3.6773

                     10                     11                     12
                      A                      A                      A
 Frequencies --    244.6514               255.7889               268.9570
 Red. masses --      3.5951                 1.6203                 4.6345
 Frc consts  --      0.1268                 0.0625                 0.1975
 IR Inten    --      3.0809                 0.0144                 6.8834

                     13                     14                     15
                      A                      A                      A
 Frequencies --    299.1957               365.2478               403.1729
 Red. masses --      3.7282                 4.1235                 5.2394
 Frc consts  --      0.1966                 0.3241                 0.5018
 IR Inten    --      7.1473                 2.1588                 9.9474

                     16                     17                     18
                      A                      A                      A
 Frequencies --    453.8940               479.9238               557.7375
 Red. masses --      6.0591                 3.9968                 5.6991
 Frc consts  --      0.7355                 0.5424                 1.0445
 IR Inten    --      3.7439                16.7142                 1.0567

                     19                     20                     21
                      A                      A                      A
 Frequencies --    588.3121               706.1314               742.8692
 Red. masses --      2.1161                 3.5166                 1.5954
 Frc consts  --      0.4315                 1.0331                 0.5187
 IR Inten    --      0.2817                 6.6159                 4.1678

                     22                     23                     24
                      A                      A                      A
 Frequencies --    767.8092               843.4762               884.6495
 Red. masses --      2.4844                 1.9913                 2.3651
 Frc consts  --      0.8629                 0.8347                 1.0905
 IR Inten    --     20.5325                16.7230                 9.2586

                     25                     26                     27
                      A                      A                      A
 Frequencies --    888.5968               933.0323               935.6023
 Red. masses --      2.2052                 2.4981                 1.5971
 Frc consts  --      1.0259                 1.2813                 0.8237
 IR Inten    --      2.5823                 1.9726                 2.2292

                     28                     29                     30
                      A                      A                      A
 Frequencies --    953.8482               976.6799              1024.8445
 Red. masses --      4.0607                 2.1072                 2.5836
 Frc consts  --      2.1768                 1.1843                 1.5988
 IR Inten    --     19.4496                48.3491                40.6542

                     31                     32                     33
                      A                      A                      A
 Frequencies --   1044.0786              1056.6645              1067.8291
 Red. masses --      4.3543                 1.6968                 1.7328
 Frc consts  --      2.7966                 1.1162                 1.1641
 IR Inten    --     13.1542                 0.6021                 6.7173

                     34                     35                     36
                      A                      A                      A
 Frequencies --   1141.1558              1146.2524              1188.8743
 Red. masses --      2.9918                 1.6219                 1.2963
 Frc consts  --      2.2955                 1.2556                 1.0795
 IR Inten    --    142.1501                 1.4163                 3.4632

                     37                     38                     39
                      A                      A                      A
 Frequencies --   1193.1970              1209.2041              1219.4819
 Red. masses --      2.0617                 1.4041                 1.7073
 Frc consts  --      1.7294                 1.2096                 1.4959
 IR Inten    --     34.7365                 2.3444                19.5931

                     40                     41                     42
                      A                      A                      A
 Frequencies --   1226.4529              1262.1001              1276.6061
 Red. masses --      1.8388                 1.2543                 1.3985
 Frc consts  --      1.6296                 1.1772                 1.3428
 IR Inten    --     65.6986                20.2788                 2.2000

                     43                     44                     45
                      A                      A                      A
 Frequencies --   1290.9512              1295.6938              1338.6184
 Red. masses --      1.2766                 1.2815                 1.3215
 Frc consts  --      1.2535                 1.2676                 1.3952
 IR Inten    --     23.9276                 0.6424                 0.3447

                     46                     47                     48
                      A                      A                      A
 Frequencies --   1353.9505              1369.7335              1383.2247
 Red. masses --      1.1026                 1.2716                 1.4937
 Frc consts  --      1.1909                 1.4056                 1.6838
 IR Inten    --      2.4863                 0.4955                10.8513

                     49                     50                     51
                      A                      A                      A
 Frequencies --   1391.3028              1422.4388              1466.9846
 Red. masses --      1.4679                 1.2311                 3.6005
 Frc consts  --      1.6741                 1.4676                 4.5653
 IR Inten    --     31.4215                17.3997               394.8928

                     52                     53                     54
                      A                      A                      A
 Frequencies --   1478.1629              1501.7727              1518.7703
 Red. masses --      1.3028                 1.1154                 1.0573
 Frc consts  --      1.6772                 1.4821                 1.4369
 IR Inten    --     79.7053                 0.1465                 6.7568

                     55                     56                     57
                      A                      A                      A
 Frequencies --   1520.3699              1525.4574              1526.2751
 Red. masses --      1.0892                 1.0843                 1.1163
 Frc consts  --      1.4834                 1.4866                 1.5322
 IR Inten    --      3.8636                 2.5265                 0.3400

                     58                     59                     60
                      A                      A                      A
 Frequencies --   1536.3275              1537.4290              1550.6429
 Red. masses --      1.0802                 1.0762                 1.1041
 Frc consts  --      1.5021                 1.4987                 1.5642
 IR Inten    --      1.2022                12.3489                 1.5188

                     61                     62                     63
                      A                      A                      A
 Frequencies --   3012.2233              3039.3792              3041.9525
 Red. masses --      1.0364                 1.0625                 1.0679
 Frc consts  --      5.5406                 5.7828                 5.8222
 IR Inten    --     38.6400                23.9625                24.5650

                     64                     65                     66
                      A                      A                      A
 Frequencies --   3059.5317              3064.8086              3066.9012
 Red. masses --      1.0713                 1.1028                 1.0677
 Frc consts  --      5.9083                 6.1032                 5.9172
 IR Inten    --     13.8801                43.1104                18.2185

                     67                     68                     69
                      A                      A                      A
 Frequencies --   3072.7666              3091.7101              3104.4844
 Red. masses --      1.0619                 1.0602                 1.1020
 Frc consts  --      5.9073                 5.9707                 6.2576
 IR Inten    --     27.8247                17.2128                25.6393

                     70                     71                     72
                      A                      A                      A
 Frequencies --   3110.3876              3125.0858              3129.4760
 Red. masses --      1.0962                 1.0962                 1.0994
 Frc consts  --      6.2486                 6.3077                 6.3438
 IR Inten    --     11.4530                26.4518                12.2484

                     73                     74                     75
                      A                      A                      A
 Frequencies --   3135.6217              3137.3137              3153.7693
 Red. masses --      1.1044                 1.0997                 1.1062
 Frc consts  --      6.3979                 6.3776                 6.4826
 IR Inten    --     34.8562                47.2749                 2.4649

 - Thermochemistry -
 -------------------
 Temperature   298.150 Kelvin.  Pressure   1.00000 Atm.
 Atom     1 has atomic number  6 and mass  12.00000

 Molecular mass:   205.05951 amu.
 Principal axes and moments of inertia in atomic units:
                           1         2         3
     Eigenvalues --  1114.083665275.644826027.07607
           X            0.99996  -0.00785   0.00295
           Y            0.00785   0.99997   0.00125
           Z           -0.00296  -0.00123   0.99999
 This molecule is an asymmetric top.
 Rotational symmetry number  1.
 Warning -- assumption of classical behavior for rotation
           may cause significant error
 Rotational temperatures (Kelvin)      0.07774     0.01642     0.01437
 Rotational constants (GHZ):           1.61993     0.34209     0.29944
 Zero-point vibrational energy     603988.2 (Joules/Mol)
                                  144.35665 (Kcal/Mol)
 Warning -- explicit consideration of  19 degrees of freedom as
           vibrations may cause significant error
 Vibrational temperatures:     39.71    65.63    96.97   127.82   139.26
          (Kelvin)            172.59   226.82   274.16   323.30   352.00
                              368.02   386.97   430.48   525.51   580.08
                              653.05   690.50   802.46   846.45  1015.97
                             1068.82  1104.71  1213.57  1272.81  1278.49
                             1342.43  1346.12  1372.37  1405.22  1474.52
                             1502.20  1520.30  1536.37  1641.87  1649.20
                             1710.52  1716.74  1739.77  1754.56  1764.59
                             1815.88  1836.75  1857.39  1864.21  1925.97
                             1948.03  1970.74  1990.15  2001.77  2046.57
                             2110.66  2126.75  2160.72  2185.17  2187.47
                             2194.79  2195.97  2210.43  2212.02  2231.03
                             4333.92  4372.99  4376.69  4401.98  4409.58
                             4412.59  4421.03  4448.28  4466.66  4475.15
                             4496.30  4502.62  4511.46  4513.89  4537.57

 Zero-point correction=                           0.230047 (Hartree/Particle)
 Thermal correction to Energy=                    0.243729
 Thermal correction to Enthalpy=                  0.244673
 Thermal correction to Gibbs Free Energy=         0.187774
 Sum of electronic and zero-point Energies=          -1240.051471
 Sum of electronic and thermal Energies=             -1240.037789
 Sum of electronic and thermal Enthalpies=           -1240.036845
 Sum of electronic and thermal Free Energies=        -1240.093744

                     E (Thermal)             CV                S
                      KCal/Mol        Cal/Mol-Kelvin    Cal/Mol-Kelvin
 Total                  152.942             48.518            119.755
 Electronic               0.000              0.000              0.000
 Translational            0.889              2.981             41.859
 Rotational               0.889              2.981             31.938
 Vibrational            151.165             42.557             45.958
 Vibration     1          0.593              1.984              5.995
 Vibration     2          0.595              1.979              4.999
 Vibration     3          0.598              1.970              4.228
 Vibration     4          0.602              1.957              3.685
 Vibration     5          0.603              1.951              3.518
 Vibration     6          0.609              1.933              3.101
 Vibration     7          0.621              1.894              2.578
 Vibration     8          0.634              1.853              2.222
 Vibration     9          0.649              1.803              1.921
 Vibration    10          0.660              1.772              1.769
 Vibration    11          0.666              1.753              1.690
 Vibration    12          0.673              1.730              1.603
 Vibration    13          0.692              1.675              1.421
 Vibration    14          0.738              1.544              1.100
 Vibration    15          0.769              1.463              0.951
 Vibration    16          0.812              1.352              0.784
 Vibration    17          0.836              1.295              0.710
 Vibration    18          0.913              1.123              0.528
 Vibration    19          0.946              1.057              0.470

 Optimization completed.
    -- Stationary point found.
 Normal termination of Gaussian 16 at Wed Dec  9 18:26:49 2020.

 ----------------------------------------------------------------------
 # B3LYP/6-311++G(d,p) empiricaldispersion=gd3bj scf=xqc pop=npa geom=c
 heck
 ----------------------------------------------------------------------

 --------------------------------------
 CID_78827537_JID_2931_Energie_neutraal
 --------------------------------------
 Structure from the checkpoint file:  "JID_2931.chk"
 Charge =  0 Multiplicity = 1

 SCF Done:  E(RB3LYP) =  -1240.45963616     A.U. after   14 cycles
 Normal termination of Gaussian 16 at Wed Dec  9 18:29:22 2020.

 ----------------------------------------------------------------------
 # B3LYP/6-311++G(d,p) empiricaldispersion=gd3bj scf=xqc pop=npa geom=c
 heck
 ----------------------------------------------------------------------

 ------------------------------------
 CID_78827537_JID_2931_Energie_kation
 ------------------------------------
 Structure from the checkpoint file:  "JID_2931.chk"
 Charge =  1 Multiplicity = 2

 SCF Done:  E(UB3LYP) =  -1240.16860411     A.U. after   28 cycles
 Normal termination of Gaussian 16 at Wed Dec  9 18:35:32 2020.
 Gaussian 16:  ES64L-G16RevA.03 25-Dec-2016

 ----------------------------------------------------------------------
 # B3LYP/6-311++G(d,p) empiricaldispersion=gd3bj scf=xqc pop=npa geom=c
 heck
 ----------------------------------------------------------------------

 -----------------------------------
 CID_78827537_JID_2931_Energie_anion
 -----------------------------------
 Structure from the checkpoint file:  "JID_2931.chk"
 Charge = -1 Multiplicity = 2

                         Standard orientation:
 ---------------------------------------------------------------------
 Center     Atomic      Atomic             Coordinates (Angstroms)
 Number     Number       Type             X           Y           Z
 ---------------------------------------------------------------------
      1          6           0       -4.324154    1.022110    0.303128
      2          8           0       -4.138802   -0.363495    0.537198
      3          6           0       -2.780993   -0.731868    0.690787
      4          6           0       -2.094071   -0.909215   -0.666572
      5         16           0       -0.341038   -1.381330   -0.496704
      6          6           0        0.470430    0.208721   -0.260801
      7         16           0       -0.303651    1.690839   -0.339445
      8          7           0        1.787090    0.076998   -0.029503
      9          6           0        2.516980   -1.196951    0.101133
     10          6           0        3.872368   -0.775230    0.679498
     11          6           0        4.082534    0.626826    0.091025
     12          6           0        2.678611    1.240591    0.122210
     13          1           0       -5.402548    1.186885    0.234281
     14          1           0       -3.850755    1.360210   -0.628913
     15          1           0       -3.917416    1.624285    1.129196
     16          1           0       -2.234124    0.012427    1.285642
     17          1           0       -2.774989   -1.682560    1.233564
     18          1           0       -2.560145   -1.722177   -1.230962
     19          1           0       -2.131062    0.006862   -1.259529
     20          1           0        2.623021   -1.671370   -0.883518
     21          1           0        1.969519   -1.885611    0.750764
     22          1           0        3.807961   -0.721368    1.772251
     23          1           0        4.667004   -1.480514    0.421974
     24          1           0        4.805986    1.225311    0.650889
     25          1           0        4.435819    0.552118   -0.943970
     26          1           0        2.459044    1.744021    1.071689
     27          1           0        2.488257    1.958416   -0.678485
 ---------------------------------------------------------------------

 SCF Done:  E(UB3LYP) =  -1240.44868559     A.U. after   31 cycles

 The electronic state is 2-A.
 Alpha  occ. eigenvalues --  -88.76066 -88.68920 -19.04144 -14.25504 -10.16507
 Alpha  occ. eigenvalues --  -10.12726 -10.12715 -10.10575 -10.10567 -10.10136
 Alpha  occ. eigenvalues --  -10.06915 -10.06851  -7.84684  -7.77707  -5.81049
 Alpha  occ. eigenvalues --   -5.80658  -5.80126  -5.74099  -5.73555  -5.73239
 Alpha  occ. eigenvalues --   -0.95270  -0.87627  -0.73407  -0.69884  -0.64717
 Alpha  occ. eigenvalues --   -0.64203  -0.61207  -0.57423  -0.53504  -0.51167
 Alpha  occ. eigenvalues --   -0.49021  -0.44795  -0.40968  -0.40294  -0.40153
 Alpha  occ. eigenvalues --   -0.37727  -0.36015  -0.33989  -0.33422  -0.33120
 Alpha  occ. eigenvalues --   -0.31485  -0.30766  -0.29613  -0.28779  -0.27849
 Alpha  occ. eigenvalues --   -0.25486  -0.25078  -0.23975  -0.23394  -0.22952
 Alpha  occ. eigenvalues --   -0.22057  -0.18189  -0.14480  -0.12048  -0.11150
 Alpha  occ. eigenvalues --    0.04574
 Alpha virt. eigenvalues --    0.06513   0.06848   0.07785   0.08276   0.08612
 Alpha virt. eigenvalues --    0.09284   0.09614   0.10364   0.10834   0.11156
 Alpha virt. eigenvalues --    0.11559   0.12177   0.12557   0.12738   0.13016

  Beta  occ. eigenvalues --  -88.76062 -88.68912 -19.04142 -14.25470 -10.16351
  Beta  occ. eigenvalues --  -10.12719 -10.12705 -10.10574 -10.10546 -10.10123
  Beta  occ. eigenvalues --  -10.06877 -10.06798  -7.84679  -7.77698  -5.81044
  Beta  occ. eigenvalues --   -5.80657  -5.80120  -5.74098  -5.73529  -5.73234
  Beta  occ. eigenvalues --   -0.95264  -0.87508  -0.73307  -0.69842  -0.64655
  Beta  occ. eigenvalues --   -0.64133  -0.61127  -0.57383  -0.53434  -0.51123
  Beta  occ. eigenvalues --   -0.48900  -0.44706  -0.40936  -0.40241  -0.40105
  Beta  occ. eigenvalues --   -0.37681  -0.35940  -0.33872  -0.33378  -0.33067
  Beta  occ. eigenvalues --   -0.31360  -0.30724  -0.29528  -0.28745  -0.27799
  Beta  occ. eigenvalues --   -0.25398  -0.24979  -0.23829  -0.23323  -0.22748
  Beta  occ. eigenvalues --   -0.21985  -0.18171  -0.14386  -0.11863  -0.11126
  Beta virt. eigenvalues --    0.06496   0.07359   0.07698   0.08096   0.08934
  Beta virt. eigenvalues --    0.09429   0.09571   0.09885   0.10795   0.11046
  Beta virt. eigenvalues --    0.11265   0.11789   0.12523   0.12852   0.13004

 Mulliken charges and spin densities:
               1          2
     1  C   -0.144471  -0.111200
     2  O   -0.164141   0.017112
     3  C   -0.241406  -0.367598
     4  C   -0.186708   0.287995
     5  S    0.310248  -0.056227
     6  C   -0.981496   0.520065
     7  S   -0.475244  -0.073414
     8  N    0.244204   0.268064
     9  C    0.446701  -0.634727
    10  C    0.857093  -1.340729
    11  C    0.516615  -0.963839
    12  C    0.371438  -0.502565
    13  H    0.085939   0.063825
    14  H    0.101117   0.015300
    15  H    0.064770   0.062266
    16  H    0.062589   0.073409
    17  H   -0.017241   0.166774
    18  H    0.102110   0.086611
    19  H    0.140855   0.022163
    20  H   -0.238903   0.452543
    21  H   -0.244304   0.400571
    22  H   -0.028908   0.182981
    23  H   -0.950981   1.141678
    24  H   -0.489036   0.657269
    25  H   -0.127341   0.289031
    26  H   -0.054759   0.231916
    27  H    0.041258   0.110725
 Sum of Mulliken charges =  -1.00000   1.00000

 Dipole moment (field-independent basis, Debye):
    X=             -9.1756    Y=              1.5475    Z=             -0.7238  Tot=              9.3333
 Quadrupole moment (field-independent basis, Debye-Ang):
   XX=           -182.1971   YY=           -126.2017   ZZ=           -114.9787
   XY=              7.6430   XZ=              1.9677   YZ=             -0.0783

 Summary of Natural Population Analysis:

                                       Natural Population
                Natural  -----------------------------------------------
    Atom  No    Charge         Core      Valence    Rydberg      Total
 -----------------------------------------------------------------------
      C    1   -0.09873      0.99962     2.09071    0.00840     3.09873
      O    2   -0.29963      0.99989     3.28996    0.00978     4.29963
      C    3   -0.01935      0.99956     2.00525    0.01453     3.01935
      C    4   -0.27108      0.99959     2.26150    0.00999     3.27108
      S    5    0.12506      4.99947     2.85561    0.01986     7.87494
      C    6    0.00067      0.99960     1.97907    0.02066     2.99933
      S    7   -0.12124      4.99951     3.10775    0.01397     8.12124
      N    8   -0.24175      0.99960     2.72778    0.01437     3.74175
      C    9   -0.08849      0.99961     2.07759    0.01128     3.08849
      C   10   -0.19175      0.99964     2.18335    0.00877     3.19175
      C   11   -0.19611      0.99964     2.18758    0.00889     3.19611
      C   12   -0.08150      0.99962     2.07005    0.01184     3.08150
      H   13    0.08501      0.00000     0.41401    0.00098     0.41499
      H   14    0.08249      0.00000     0.41606    0.00146     0.41751
      H   15    0.08084      0.00000     0.41760    0.00156     0.41916
      H   16    0.09075      0.00000     0.40778    0.00147     0.40925
      H   17    0.08965      0.00000     0.40875    0.00160     0.41035
      H   18    0.10519      0.00000     0.39351    0.00130     0.39481
      H   19    0.11805      0.00000     0.38003    0.00192     0.38195
      H   20    0.10296      0.00000     0.39453    0.00251     0.39704
      H   21    0.10565      0.00000     0.39261    0.00174     0.39435
      H   22    0.09771      0.00000     0.40047    0.00182     0.40229
      H   23    0.11144      0.00000     0.38269    0.00586     0.38856
      H   24    0.10537      0.00000     0.39316    0.00146     0.39463
      H   25    0.10018      0.00000     0.39793    0.00189     0.39982
      H   26    0.09965      0.00000     0.39924    0.00111     0.40035
      H   27    0.10894      0.00000     0.38995    0.00111     0.39106
 =======================================================================
   * Total *   -0.00000     19.99534    34.82450    0.18016    55.00000

 Normal termination of Gaussian 16 at Wed Dec  9 18:42:14 2020.
