 Gaussian 16, Revision A.03,

 -----------------------------------------------------------
 # opt freq B3LYP/6-31G(d) empiricaldispersion=gd3bj scf=xqc
 -----------------------------------------------------------

 ------------------------------
 CID_82401038_JID_4477_neutraal
 ------------------------------
 Symbolic Z-matrix:
 Charge =  0 Multiplicity = 1

 SCF Done:  E(RB3LYP) =  -645.644023039     A.U. after   14 cycles
 SCF Done:  E(RB3LYP) =  -645.648894908     A.U. after   12 cycles
 SCF Done:  E(RB3LYP) =  -645.649302331     A.U. after   12 cycles
 SCF Done:  E(RB3LYP) =  -645.649355988     A.U. after   12 cycles
 SCF Done:  E(RB3LYP) =  -645.650542468     A.U. after   11 cycles
 SCF Done:  E(RB3LYP) =  -645.650683115     A.U. after   11 cycles
 SCF Done:  E(RB3LYP) =  -645.650739558     A.U. after   11 cycles
 SCF Done:  E(RB3LYP) =  -645.650780173     A.U. after   11 cycles
 SCF Done:  E(RB3LYP) =  -645.650831988     A.U. after   12 cycles
 SCF Done:  E(RB3LYP) =  -645.650847457     A.U. after   10 cycles
 SCF Done:  E(RB3LYP) =  -645.650850778     A.U. after    9 cycles
 SCF Done:  E(RB3LYP) =  -645.650851514     A.U. after    9 cycles
 SCF Done:  E(RB3LYP) =  -645.650851692     A.U. after    7 cycles
 Optimization completed.
    -- Stationary point found.
 Normal termination of Gaussian 16 at Thu Dec 10 09:52:29 2020.

 --------------------------------------------------------------------
 #N Geom=AllCheck Guess=TCheck SCRF=Check GenChk RB3LYP/6-31G(d) Freq
 --------------------------------------------------------------------

 Structure from the checkpoint file:  "JID_4477.chk"
 ------------------------------
 CID_82401038_JID_4477_neutraal
 ------------------------------
 Charge =  0 Multiplicity = 1

 SCF Done:  E(RB3LYP) =  -645.650851692     A.U. after    1 cycles

  Exact polarizability: 162.318   1.655 119.351  -1.131   5.066  79.575
 Approx polarizability: 208.804   2.250 196.781   4.083  10.244 124.424

                      1                      2                      3
                      A                      A                      A
 Frequencies --     21.1336                68.2254               112.5057
 Red. masses --      4.5325                 3.9763                 2.9500
 Frc consts  --      0.0012                 0.0109                 0.0220
 IR Inten    --      2.6327                 2.8119                 0.9336

                      4                      5                      6
                      A                      A                      A
 Frequencies --    143.1066               168.4270               188.2256
 Red. masses --      4.2376                 3.5214                 3.6513
 Frc consts  --      0.0511                 0.0589                 0.0762
 IR Inten    --      3.1964                 1.1542                10.6340

                      7                      8                      9
                      A                      A                      A
 Frequencies --    258.2946               270.9377               317.8379
 Red. masses --      2.7757                 4.1526                 3.7459
 Frc consts  --      0.1091                 0.1796                 0.2230
 IR Inten    --      2.9101                 2.2963                 1.6879

                     10                     11                     12
                      A                      A                      A
 Frequencies --    330.7665               366.7710               382.1585
 Red. masses --      2.2026                 1.2156                 3.2262
 Frc consts  --      0.1420                 0.0963                 0.2776
 IR Inten    --      3.2321                43.6914                 0.4021

                     13                     14                     15
                      A                      A                      A
 Frequencies --    400.0058               448.5523               468.4737
 Red. masses --      3.9937                 3.1970                 3.9793
 Frc consts  --      0.3765                 0.3790                 0.5146
 IR Inten    --      1.0652                 2.1358                26.4957

                     16                     17                     18
                      A                      A                      A
 Frequencies --    480.6861               582.1379               600.0519
 Red. masses --      3.8182                 2.6904                 3.0750
 Frc consts  --      0.5198                 0.5372                 0.6523
 IR Inten    --      7.8391                 3.6745                12.4105

                     19                     20                     21
                      A                      A                      A
 Frequencies --    642.3628               659.2064               696.9728
 Red. masses --      1.1931                 4.1532                 2.7806
 Frc consts  --      0.2901                 1.0633                 0.7958
 IR Inten    --    140.3874                 8.8196                74.5479

                     22                     23                     24
                      A                      A                      A
 Frequencies --    756.9529               788.7224               823.2407
 Red. masses --      4.5068                 3.3764                 2.1913
 Frc consts  --      1.5214                 1.2375                 0.8750
 IR Inten    --     12.3828                27.3508                41.6279

                     25                     26                     27
                      A                      A                      A
 Frequencies --    837.2147               884.8746               918.8095
 Red. masses --      4.8319                 3.8508                 1.9527
 Frc consts  --      1.9955                 1.7765                 0.9713
 IR Inten    --      7.6310                34.7352                 4.2969

                     28                     29                     30
                      A                      A                      A
 Frequencies --    923.1135               954.5253               962.5084
 Red. masses --      1.4642                 1.4805                 2.9532
 Frc consts  --      0.7351                 0.7947                 1.6120
 IR Inten    --     83.2932                13.1829                17.0323

                     31                     32                     33
                      A                      A                      A
 Frequencies --    968.4804               993.6070              1031.5296
 Red. masses --      2.6493                 1.8543                 1.8199
 Frc consts  --      1.4641                 1.0786                 1.1410
 IR Inten    --     11.6596                48.3263                 2.1715

                     34                     35                     36
                      A                      A                      A
 Frequencies --   1034.7849              1082.5806              1096.9361
 Red. masses --      1.8290                 3.0030                 2.0388
 Frc consts  --      1.1539                 2.0736                 1.4454
 IR Inten    --      1.6295                24.4252                 8.4745

                     37                     38                     39
                      A                      A                      A
 Frequencies --   1117.9862              1154.1465              1175.7922
 Red. masses --      2.3618                 3.4390                 1.3966
 Frc consts  --      1.7393                 2.6990                 1.1376
 IR Inten    --     36.5493                 9.8024                 2.3441

                     40                     41                     42
                      A                      A                      A
 Frequencies --   1208.9186              1222.2032              1229.5798
 Red. masses --      2.8060                 1.1570                 1.6900
 Frc consts  --      2.4162                 1.0183                 1.5054
 IR Inten    --      5.0318                 4.3863                 0.1537

                     43                     44                     45
                      A                      A                      A
 Frequencies --   1265.6958              1280.4158              1295.6622
 Red. masses --      2.4528                 1.2918                 1.9167
 Frc consts  --      2.3151                 1.2478                 1.8957
 IR Inten    --      2.9391                31.3103                 4.7426

                     46                     47                     48
                      A                      A                      A
 Frequencies --   1303.8261              1321.6067              1328.9769
 Red. masses --      1.3641                 1.7121                 2.2472
 Frc consts  --      1.3663                 1.7619                 2.3384
 IR Inten    --      4.6111                23.5183                 5.5698

                     49                     50                     51
                      A                      A                      A
 Frequencies --   1357.6448              1363.6284              1383.7992
 Red. masses --      1.3584                 1.4752                 1.5392
 Frc consts  --      1.4752                 1.6161                 1.7366
 IR Inten    --      2.6204                17.4122                30.0239

                     52                     53                     54
                      A                      A                      A
 Frequencies --   1432.6515              1442.9026              1468.3227
 Red. masses --      1.4053                 1.6043                 2.5977
 Frc consts  --      1.6994                 1.9679                 3.2998
 IR Inten    --     25.1696                 6.1313                14.1964

                     55                     56                     57
                      A                      A                      A
 Frequencies --   1479.5576              1488.1075              1491.1251
 Red. masses --      2.4089                 1.1512                 1.3179
 Frc consts  --      3.1070                 1.5020                 1.7264
 IR Inten    --     66.2398                18.9019               100.0295

                     58                     59                     60
                      A                      A                      A
 Frequencies --   1503.1882              1522.2284              1528.3481
 Red. masses --      1.4188                 1.1082                 1.0951
 Frc consts  --      1.8888                 1.5130                 1.5071
 IR Inten    --     11.3688                 0.9560                11.8633

                     61                     62                     63
                      A                      A                      A
 Frequencies --   1537.7562              1606.7969              1644.9300
 Red. masses --      1.1137                 7.3208                 5.4112
 Frc consts  --      1.5516                11.1360                 8.6266
 IR Inten    --      1.8226                95.7049               127.8301

                     64                     65                     66
                      A                      A                      A
 Frequencies --   1670.8597              2913.2471              2939.0158
 Red. masses --      1.1190                 1.0740                 1.0738
 Frc consts  --      1.8405                 5.3707                 5.4646
 IR Inten    --     46.6601                64.4364                89.5281

                     67                     68                     69
                      A                      A                      A
 Frequencies --   2998.4861              3055.7866              3066.3349
 Red. masses --      1.0705                 1.0647                 1.0862
 Frc consts  --      5.6707                 5.8575                 6.0175
 IR Inten    --     63.3997                10.1492                28.1776

                     70                     71                     72
                      A                      A                      A
 Frequencies --   3088.1029              3099.7519              3101.5105
 Red. masses --      1.0924                 1.0876                 1.0887
 Frc consts  --      6.1377                 6.1568                 6.1701
 IR Inten    --     26.8315                39.4942                43.7722

                     73                     74                     75
                      A                      A                      A
 Frequencies --   3107.4442              3150.6186              3485.1898
 Red. masses --      1.0992                 1.0908                 1.0497
 Frc consts  --      6.2537                 6.3793                 7.5124
 IR Inten    --     13.3673                30.8701                19.6265

                     76                     77                     78
                      A                      A                      A
 Frequencies --   3512.9717              3532.6436              3582.2888
 Red. masses --      1.0748                 1.0645                 1.0940
 Frc consts  --      7.8151                 7.8271                 8.2719
 IR Inten    --      0.7248               145.4241                15.1031

 - Thermochemistry -
 -------------------
 Temperature   298.150 Kelvin.  Pressure   1.00000 Atm.
 Atom     1 has atomic number  6 and mass  12.00000

 Molecular mass:   194.11676 amu.
 Principal axes and moments of inertia in atomic units:
                           1         2         3
     Eigenvalues --   965.937264920.182565498.83900
           X            0.99993   0.00660  -0.01002
           Y           -0.00642   0.99981   0.01837
           Z            0.01013  -0.01830   0.99978
 This molecule is an asymmetric top.
 Rotational symmetry number  1.
 Warning -- assumption of classical behavior for rotation
           may cause significant error
 Rotational temperatures (Kelvin)      0.08967     0.01760     0.01575
 Rotational constants (GHZ):           1.86838     0.36680     0.32820
 Zero-point vibrational energy     628785.8 (Joules/Mol)
                                  150.28340 (Kcal/Mol)
 Warning -- explicit consideration of  18 degrees of freedom as
           vibrations may cause significant error
 Vibrational temperatures:     30.41    98.16   161.87   205.90   242.33
          (Kelvin)            270.81   371.63   389.82   457.30   475.90
                              527.70   549.84   575.52   645.37   674.03
                              691.60   837.57   863.34   924.22   948.45
                             1002.79  1089.09  1134.80  1184.46  1204.57
                             1273.14  1321.96  1328.15  1373.35  1384.83
                             1393.43  1429.58  1484.14  1488.82  1557.59
                             1578.25  1608.53  1660.56  1691.70  1739.36
                             1758.48  1769.09  1821.05  1842.23  1864.17
                             1875.91  1901.50  1912.10  1953.35  1961.96
                             1990.98  2061.27  2076.02  2112.59  2128.75
                             2141.05  2145.40  2162.75  2190.15  2198.95
                             2212.49  2311.82  2366.69  2403.99  4191.51
                             4228.59  4314.15  4396.60  4411.77  4443.09
                             4459.85  4462.38  4470.92  4533.04  5014.41
                             5054.38  5082.69  5154.11

 Zero-point correction=                           0.239492 (Hartree/Particle)
 Thermal correction to Energy=                    0.251749
 Thermal correction to Enthalpy=                  0.252693
 Thermal correction to Gibbs Free Energy=         0.200193
 Sum of electronic and zero-point Energies=           -645.411360
 Sum of electronic and thermal Energies=              -645.399103
 Sum of electronic and thermal Enthalpies=            -645.398159
 Sum of electronic and thermal Free Energies=         -645.450658

                     E (Thermal)             CV                S
                      KCal/Mol        Cal/Mol-Kelvin    Cal/Mol-Kelvin
 Total                  157.975             47.956            110.495
 Electronic               0.000              0.000              0.000
 Translational            0.889              2.981             41.695
 Rotational               0.889              2.981             31.636
 Vibrational            156.197             41.995             37.164
 Vibration     1          0.593              1.985              6.525
 Vibration     2          0.598              1.969              4.204
 Vibration     3          0.607              1.939              3.225
 Vibration     4          0.616              1.910              2.762
 Vibration     5          0.625              1.881              2.453
 Vibration     6          0.633              1.856              2.245
 Vibration     7          0.667              1.749              1.673
 Vibration     8          0.675              1.727              1.590
 Vibration     9          0.704              1.640              1.321
 Vibration    10          0.713              1.614              1.256
 Vibration    11          0.740              1.541              1.093
 Vibration    12          0.752              1.508              1.031
 Vibration    13          0.766              1.470              0.963
 Vibration    14          0.808              1.364              0.800
 Vibration    15          0.826              1.320              0.742
 Vibration    16          0.837              1.293              0.708
 Vibration    17          0.939              1.070              0.481
 Vibration    18          0.958              1.032              0.450

 Optimization completed.
    -- Stationary point found.
 Normal termination of Gaussian 16 at Thu Dec 10 09:59:44 2020.

 ----------------------------------------------------------------------
 # B3LYP/6-311++G(d,p) empiricaldispersion=gd3bj scf=xqc pop=npa geom=c
 heck
 ----------------------------------------------------------------------

 --------------------------------------
 CID_82401038_JID_4477_Energie_neutraal
 --------------------------------------
 Structure from the checkpoint file:  "JID_4477.chk"
 Charge =  0 Multiplicity = 1

 SCF Done:  E(RB3LYP) =  -645.844788179     A.U. after   15 cycles
 Normal termination of Gaussian 16 at Thu Dec 10 10:02:37 2020.

 ----------------------------------------------------------------------
 # B3LYP/6-311++G(d,p) empiricaldispersion=gd3bj scf=xqc pop=npa geom=c
 heck
 ----------------------------------------------------------------------

 ------------------------------------
 CID_82401038_JID_4477_Energie_kation
 ------------------------------------
 Structure from the checkpoint file:  "JID_4477.chk"
 Charge =  1 Multiplicity = 2

 SCF Done:  E(UB3LYP) =  -645.533683099     A.U. after   33 cycles
 SCF Done:  E(UB3LYP) =  -645.533683099     a.u. after    2 cycles
 Normal termination of Gaussian 16 at Thu Dec 10 10:19:35 2020.
 Gaussian 16:  ES64L-G16RevA.03 25-Dec-2016

 ----------------------------------------------------------------------
 # B3LYP/6-311++G(d,p) empiricaldispersion=gd3bj scf=xqc pop=npa geom=c
 heck
 ----------------------------------------------------------------------

 -----------------------------------
 CID_82401038_JID_4477_Energie_anion
 -----------------------------------
 Structure from the checkpoint file:  "JID_4477.chk"
 Charge = -1 Multiplicity = 2

                         Standard orientation:
 ---------------------------------------------------------------------
 Center     Atomic      Atomic             Coordinates (Angstroms)
 Number     Number       Type             X           Y           Z
 ---------------------------------------------------------------------
      1          6           0       -2.387673   -1.507288   -0.287865
      2          6           0       -3.685903   -0.856289    0.194449
      3          7           0       -3.777506    0.485452   -0.384501
      4          6           0       -2.790195    1.385141    0.206100
      5          6           0       -1.406088    0.791110    0.092820
      6          6           0       -0.248370    1.558803    0.202067
      7          7           0        0.979233    1.042098    0.134047
      8          6           0        1.060012   -0.289149   -0.050691
      9          7           0        0.017500   -1.112594   -0.193194
     10          6           0       -1.211590   -0.579507   -0.117984
     11          6           0        2.445881   -0.920414   -0.059440
     12          6           0        3.452666   -0.126516   -0.915458
     13          7           0        3.906502    1.033570   -0.140004
     14          8           0        2.939189   -1.029210    1.265750
     15          1           0       -2.183763   -2.442696    0.243688
     16          1           0       -2.476610   -1.755388   -1.353263
     17          1           0       -3.702316   -0.843288    1.301431
     18          1           0       -4.547482   -1.442881   -0.138432
     19          1           0       -4.708704    0.867117   -0.238855
     20          1           0       -2.826847    2.347361   -0.319060
     21          1           0       -2.990759    1.597685    1.275837
     22          1           0       -0.313092    2.638285    0.343467
     23          1           0        2.327966   -1.931621   -0.460055
     24          1           0        4.321155   -0.767806   -1.100555
     25          1           0        3.002457    0.121252   -1.890195
     26          1           0        4.712934    1.472052   -0.575829
     27          1           0        3.146764    1.709929   -0.086365
     28          1           0        3.472240   -0.211339    1.373754
 ---------------------------------------------------------------------

 SCF Done:  E(UB3LYP) =  -645.839220443     A.U. after   33 cycles
 SCF Done:  E(UB3LYP) =  -645.839220443     a.u. after    1 cycles

 The electronic state is 2-A.
 Alpha  occ. eigenvalues --  -19.00138 -14.20441 -14.18391 -14.17070 -14.16883
 Alpha  occ. eigenvalues --  -10.10810 -10.10487 -10.10026 -10.08355 -10.07598
 Alpha  occ. eigenvalues --  -10.07238 -10.07212 -10.05511 -10.04664  -0.91187
 Alpha  occ. eigenvalues --   -0.84690  -0.79881  -0.78904  -0.75067  -0.67610
 Alpha  occ. eigenvalues --   -0.64216  -0.62036  -0.55594  -0.53517  -0.50247
 Alpha  occ. eigenvalues --   -0.49462  -0.43922  -0.42460  -0.40659  -0.37528
 Alpha  occ. eigenvalues --   -0.37222  -0.36307  -0.35922  -0.33904  -0.33173
 Alpha  occ. eigenvalues --   -0.31324  -0.30052  -0.29650  -0.28685  -0.27931
 Alpha  occ. eigenvalues --   -0.27238  -0.24862  -0.23624  -0.22547  -0.22128
 Alpha  occ. eigenvalues --   -0.18660  -0.17728  -0.16383  -0.15274  -0.13520
 Alpha  occ. eigenvalues --   -0.11790  -0.11504   0.04879
 Alpha virt. eigenvalues --    0.06692   0.07102   0.08514   0.09121   0.09647
 Alpha virt. eigenvalues --    0.09945   0.10322   0.10941   0.11498   0.11909
 Alpha virt. eigenvalues --    0.12527   0.12684   0.13740   0.14157   0.15501

  Beta  occ. eigenvalues --  -19.00139 -14.20441 -14.18367 -14.16816 -14.16723
  Beta  occ. eigenvalues --  -10.10810 -10.10529 -10.10026 -10.08330 -10.07565
  Beta  occ. eigenvalues --  -10.06975 -10.06932 -10.05602 -10.04686  -0.91184
  Beta  occ. eigenvalues --   -0.84344  -0.79816  -0.78899  -0.74567  -0.67390
  Beta  occ. eigenvalues --   -0.64121  -0.62001  -0.55478  -0.53261  -0.49985
  Beta  occ. eigenvalues --   -0.49345  -0.43790  -0.42407  -0.40552  -0.37458
  Beta  occ. eigenvalues --   -0.37157  -0.36268  -0.35791  -0.33726  -0.33116
  Beta  occ. eigenvalues --   -0.31240  -0.29861  -0.29428  -0.28395  -0.27826
  Beta  occ. eigenvalues --   -0.27075  -0.24504  -0.23536  -0.22380  -0.22096
  Beta  occ. eigenvalues --   -0.18498  -0.16369  -0.16296  -0.15122  -0.12923
  Beta  occ. eigenvalues --   -0.11581  -0.11367
  Beta virt. eigenvalues --    0.06611   0.07933   0.08704   0.09286   0.09444
  Beta virt. eigenvalues --    0.10213   0.10255   0.10710   0.11025   0.11747
  Beta virt. eigenvalues --    0.12121   0.12621   0.12705   0.13865   0.14428

 Mulliken charges and spin densities:
               1          2
     1  C   -1.045246   0.617668
     2  C    0.790654  -1.108008
     3  N   -0.236999   0.124118
     4  C    0.508248  -1.112359
     5  C   -0.406600   0.634835
     6  C   -0.364396   0.053545
     7  N   -0.066990   0.113484
     8  C   -0.061506  -0.142006
     9  N   -0.027194   0.111050
    10  C    0.919776  -0.430927
    11  C   -0.101288  -0.148073
    12  C   -0.461227  -0.052451
    13  N   -0.465669   0.003750
    14  O   -0.210804  -0.001493
    15  H    0.163522  -0.021391
    16  H   -0.036870   0.219833
    17  H    0.040470   0.040711
    18  H   -0.645111   0.838037
    19  H   -0.310569   0.568838
    20  H   -0.260723   0.438261
    21  H   -0.020257   0.149824
    22  H    0.070207   0.056777
    23  H    0.199062   0.008833
    24  H    0.169628   0.002637
    25  H    0.100612   0.028017
    26  H    0.222927   0.005234
    27  H    0.273225   0.000290
    28  H    0.263119   0.000964
 Sum of Mulliken charges =  -1.00000   1.00000

 Dipole moment (field-independent basis, Debye):
    X=              8.3221    Y=              0.9558    Z=             -0.1571  Tot=              8.3783
 Quadrupole moment (field-independent basis, Debye-Ang):
   XX=           -156.7247   YY=           -108.0827   ZZ=           -103.6141
   XY=              7.4882   XZ=            -15.9330   YZ=              1.9588

 Summary of Natural Population Analysis:

                                       Natural Population
                Natural  -----------------------------------------------
    Atom  No    Charge         Core      Valence    Rydberg      Total
 -----------------------------------------------------------------------
      C    1   -0.20945      0.99960     2.19949    0.01036     3.20945
      C    2   -0.08530      0.99963     2.07370    0.01196     3.08530
      N    3   -0.33751      0.99974     2.82470    0.01306     3.83751
      C    4   -0.08869      0.99959     2.07624    0.01286     3.08869
      C    5   -0.07327      0.99945     2.06475    0.00907     3.07327
      C    6    0.08809      0.99954     1.89808    0.01429     2.91191
      N    7   -0.24868      0.99967     2.73729    0.01173     3.74868
      C    8    0.19707      0.99959     1.78141    0.02194     2.80293
      N    9   -0.23770      0.99965     2.72849    0.00956     3.73770
      C   10    0.17562      0.99948     1.81127    0.01363     2.82438
      C   11    0.04223      0.99952     1.94195    0.01630     2.95777
      C   12   -0.09910      0.99964     2.08948    0.00998     3.09910
      N   13   -0.44401      0.99976     2.93479    0.00946     3.94401
      O   14   -0.37533      0.99990     3.36907    0.00637     4.37533
      H   15    0.10428      0.00000     0.39450    0.00122     0.39572
      H   16    0.10890      0.00000     0.38930    0.00180     0.39110
      H   17    0.07484      0.00000     0.42353    0.00163     0.42516
      H   18    0.09715      0.00000     0.40080    0.00205     0.40285
      H   19    0.17728      0.00000     0.31608    0.00664     0.32272
      H   20    0.09852      0.00000     0.39970    0.00177     0.40148
      H   21    0.08035      0.00000     0.41800    0.00165     0.41965
      H   22    0.07926      0.00000     0.41897    0.00176     0.42074
      H   23    0.09225      0.00000     0.40598    0.00177     0.40775
      H   24    0.08764      0.00000     0.41121    0.00115     0.41236
      H   25    0.08738      0.00000     0.41132    0.00131     0.41262
      H   26    0.17234      0.00000     0.32617    0.00149     0.32766
      H   27    0.19677      0.00000     0.30092    0.00231     0.30323
      H   28    0.23907      0.00000     0.25819    0.00273     0.26093
 =======================================================================
   * Total *    0.00000     13.99475    37.80538    0.19987    52.00000

 Normal termination of Gaussian 16 at Thu Dec 10 10:28:28 2020.
