 Gaussian 16, Revision A.03,

 -----------------------------------------------------------
 # opt freq B3LYP/6-31G(d) empiricaldispersion=gd3bj scf=xqc
 -----------------------------------------------------------

 ------------------------------
 CID_66239726_JID_5852_neutraal
 ------------------------------
 Symbolic Z-matrix:
 Charge =  0 Multiplicity = 1

 SCF Done:  E(RB3LYP) =  -725.947335933     A.U. after   15 cycles
 SCF Done:  E(RB3LYP) =  -725.953869944     A.U. after   12 cycles
 SCF Done:  E(RB3LYP) =  -725.954254741     A.U. after   12 cycles
 SCF Done:  E(RB3LYP) =  -725.954503622     A.U. after   12 cycles
 SCF Done:  E(RB3LYP) =  -725.954719381     A.U. after   11 cycles
 SCF Done:  E(RB3LYP) =  -725.954767092     A.U. after   11 cycles
 SCF Done:  E(RB3LYP) =  -725.954789404     A.U. after   10 cycles
 SCF Done:  E(RB3LYP) =  -725.954802432     A.U. after   10 cycles
 SCF Done:  E(RB3LYP) =  -725.954807080     A.U. after    9 cycles
 SCF Done:  E(RB3LYP) =  -725.954809455     A.U. after    9 cycles
 SCF Done:  E(RB3LYP) =  -725.954810211     A.U. after    8 cycles
 SCF Done:  E(RB3LYP) =  -725.954810826     A.U. after    8 cycles
 SCF Done:  E(RB3LYP) =  -725.954811226     A.U. after    8 cycles
 SCF Done:  E(RB3LYP) =  -725.954811288     A.U. after    7 cycles
 Optimization completed.
    -- Stationary point found.
 Normal termination of Gaussian 16 at Thu Dec 10 17:21:40 2020.

 --------------------------------------------------------------------
 #N Geom=AllCheck Guess=TCheck SCRF=Check GenChk RB3LYP/6-31G(d) Freq
 --------------------------------------------------------------------

 Structure from the checkpoint file:  "JID_5852.chk"
 ------------------------------
 CID_66239726_JID_5852_neutraal
 ------------------------------
 Charge =  0 Multiplicity = 1

 SCF Done:  E(RB3LYP) =  -725.954811288     A.U. after    1 cycles

  Exact polarizability: 140.172   0.080 126.767  -4.665   3.666  91.383
 Approx polarizability: 176.651   4.810 199.320  -8.914  13.734 141.910

                      1                      2                      3
                      A                      A                      A
 Frequencies --     38.7948                56.0855                92.9462
 Red. masses --      4.0530                 4.0753                 3.1551
 Frc consts  --      0.0036                 0.0076                 0.0161
 IR Inten    --      0.3903                 0.2025                 0.1436

                      4                      5                      6
                      A                      A                      A
 Frequencies --    107.0701               120.5691               131.5545
 Red. masses --      5.8204                 3.7465                 2.5156
 Frc consts  --      0.0393                 0.0321                 0.0257
 IR Inten    --      3.8859                 9.8714                 0.5740

                      7                      8                      9
                      A                      A                      A
 Frequencies --    166.5560               184.5412               224.1169
 Red. masses --      3.3292                 3.0474                 1.5253
 Frc consts  --      0.0544                 0.0611                 0.0451
 IR Inten    --      1.5130                 1.6378                 0.0759

                     10                     11                     12
                      A                      A                      A
 Frequencies --    256.8604               286.1274               328.5756
 Red. masses --      4.2937                 2.2209                 2.8948
 Frc consts  --      0.1669                 0.1071                 0.1841
 IR Inten    --      2.6515                 1.9601                 3.5806

                     13                     14                     15
                      A                      A                      A
 Frequencies --    375.6272               381.5286               386.0409
 Red. masses --      2.7456                 3.6977                 7.1322
 Frc consts  --      0.2282                 0.3171                 0.6262
 IR Inten    --      7.8032                 5.3708                18.2758

                     16                     17                     18
                      A                      A                      A
 Frequencies --    421.8791               457.2024               514.1944
 Red. masses --      2.2126                 4.4125                 3.2124
 Frc consts  --      0.2320                 0.5434                 0.5004
 IR Inten    --      4.1101                 6.8122                 1.7136

                     19                     20                     21
                      A                      A                      A
 Frequencies --    532.4242               567.7582               632.3754
 Red. masses --      4.1343                 1.4765                 3.4924
 Frc consts  --      0.6905                 0.2804                 0.8229
 IR Inten    --      2.3656               111.7856                13.0048

                     22                     23                     24
                      A                      A                      A
 Frequencies --    686.2351               699.2831               741.5659
 Red. masses --      3.5578                 3.9045                 2.0759
 Frc consts  --      0.9871                 1.1249                 0.6726
 IR Inten    --     24.4045                 8.8004                 7.4133

                     25                     26                     27
                      A                      A                      A
 Frequencies --    766.3892               770.0609               811.7971
 Red. masses --      2.8478                 4.3391                 2.3456
 Frc consts  --      0.9855                 1.5160                 0.9108
 IR Inten    --     12.6213                37.6283                 1.8708

                     28                     29                     30
                      A                      A                      A
 Frequencies --    822.2639               887.1662               915.3210
 Red. masses --      3.0711                 1.8187                 4.0265
 Frc consts  --      1.2234                 0.8434                 1.9876
 IR Inten    --      8.8810                 1.6346                25.9907

                     31                     32                     33
                      A                      A                      A
 Frequencies --    930.9814               955.4131               985.3689
 Red. masses --      1.9672                 2.0671                 1.5194
 Frc consts  --      1.0046                 1.1117                 0.8692
 IR Inten    --     10.4969                 3.9351                 0.8082

                     34                     35                     36
                      A                      A                      A
 Frequencies --    996.3062              1050.7914              1059.6783
 Red. masses --      1.5386                 2.7705                 2.6614
 Frc consts  --      0.8998                 1.8023                 1.7608
 IR Inten    --      0.1825                16.2587                 5.0280

                     37                     38                     39
                      A                      A                      A
 Frequencies --   1090.9194              1105.0258              1117.6087
 Red. masses --      4.3783                 2.2703                 2.8084
 Frc consts  --      3.0700                 1.6333                 2.0667
 IR Inten    --     70.9869                43.9472                22.6269

                     40                     41                     42
                      A                      A                      A
 Frequencies --   1141.8874              1145.7873              1168.6401
 Red. masses --      1.8806                 2.2687                 1.8539
 Frc consts  --      1.4448                 1.7549                 1.4917
 IR Inten    --      0.2178                 7.7090                 1.3367

                     43                     44                     45
                      A                      A                      A
 Frequencies --   1176.2176              1194.7120              1201.8157
 Red. masses --      2.3643                 1.7905                 1.9096
 Frc consts  --      1.9272                 1.5058                 1.6251
 IR Inten    --     13.8178                11.5599                30.5733

                     46                     47                     48
                      A                      A                      A
 Frequencies --   1231.1944              1241.3182              1280.7303
 Red. masses --      2.5925                 1.1682                 1.3206
 Frc consts  --      2.3154                 1.0606                 1.2762
 IR Inten    --     79.1052                 0.3258                 3.0413

                     49                     50                     51
                      A                      A                      A
 Frequencies --   1287.8640              1325.3721              1342.7940
 Red. masses --      1.3339                 1.3405                 1.2671
 Frc consts  --      1.3035                 1.3873                 1.3461
 IR Inten    --     13.9175                21.5387                10.2005

                     52                     53                     54
                      A                      A                      A
 Frequencies --   1360.3631              1360.9284              1380.2051
 Red. masses --      1.6861                 1.2674                 1.5509
 Frc consts  --      1.8384                 1.3830                 1.7407
 IR Inten    --    179.3283                12.7853                42.0157

                     55                     56                     57
                      A                      A                      A
 Frequencies --   1384.5725              1402.2564              1414.9459
 Red. masses --      1.3784                 1.7919                 1.4548
 Frc consts  --      1.5568                 2.0759                 1.7160
 IR Inten    --     12.0774                65.5055                 2.6026

                     58                     59                     60
                      A                      A                      A
 Frequencies --   1418.9755              1435.4039              1445.3865
 Red. masses --      1.4750                 1.5378                 1.3168
 Frc consts  --      1.7499                 1.8668                 1.6208
 IR Inten    --     34.7365                47.6777                24.6186

                     61                     62                     63
                      A                      A                      A
 Frequencies --   1448.8620              1473.2971              1508.2552
 Red. masses --      1.6121                 2.0795                 1.1096
 Frc consts  --      1.9939                 2.6594                 1.4872
 IR Inten    --     17.2300                86.7684                34.1770

                     64                     65                     66
                      A                      A                      A
 Frequencies --   1517.9290              1522.0974              1533.9226
 Red. masses --      1.0874                 1.0620                 1.0661
 Frc consts  --      1.4761                 1.4496                 1.4780
 IR Inten    --     12.6583                 1.6905                 6.6024

                     67                     68                     69
                      A                      A                      A
 Frequencies --   1549.7878              1552.0495              1561.9380
 Red. masses --      1.0527                 1.0893                 1.0950
 Frc consts  --      1.4897                 1.5460                 1.5740
 IR Inten    --      3.0753                 1.4604                 0.4129

                     70                     71                     72
                      A                      A                      A
 Frequencies --   1782.9479              1821.7431              2987.7738
 Red. masses --     10.9015                10.0471                 1.0819
 Frc consts  --     20.4180                19.6456                 5.6903
 IR Inten    --    474.1545               189.9954                16.7523

                     73                     74                     75
                      A                      A                      A
 Frequencies --   3013.4160              3031.9801              3034.8926
 Red. masses --      1.0701                 1.0646                 1.0823
 Frc consts  --      5.7252                 5.7662                 5.8731
 IR Inten    --     62.0890                17.0607                14.1323

                     76                     77                     78
                      A                      A                      A
 Frequencies --   3040.7768              3046.0755              3065.1058
 Red. masses --      1.0673                 1.0423                 1.0624
 Frc consts  --      5.8142                 5.6980                 5.8807
 IR Inten    --     24.8595                31.0736                39.6510

                     79                     80                     81
                      A                      A                      A
 Frequencies --   3066.9331              3105.6695              3107.8914
 Red. masses --      1.0956                 1.0959                 1.0966
 Frc consts  --      6.0718                 6.2278                 6.2406
 IR Inten    --     63.3197                25.0264                27.7670

                     82                     83                     84
                      A                      A                      A
 Frequencies --   3108.0742              3117.6854              3120.2928
 Red. masses --      1.0969                 1.1062                 1.0646
 Frc consts  --      6.2433                 6.3349                 6.1073
 IR Inten    --     37.6946                33.9518                24.8570

                     85                     86                     87
                      A                      A                      A
 Frequencies --   3140.9196              3176.0494              3597.6046
 Red. masses --      1.0999                 1.1047                 1.0764
 Frc consts  --      6.3932                 6.5657                 8.2079
 IR Inten    --     20.4681                 3.4376                36.4972

 - Thermochemistry -
 -------------------
 Temperature   298.150 Kelvin.  Pressure   1.00000 Atm.
 Atom     1 has atomic number  6 and mass  12.00000

 Molecular mass:   212.11609 amu.
 Principal axes and moments of inertia in atomic units:
                           1         2         3
     Eigenvalues --  1775.267094201.729515420.80801
           X            0.99973  -0.02287   0.00414
           Y            0.02292   0.99966  -0.01239
           Z           -0.00386   0.01248   0.99991
 This molecule is an asymmetric top.
 Rotational symmetry number  1.
 Warning -- assumption of classical behavior for rotation
           may cause significant error
 Rotational temperatures (Kelvin)      0.04879     0.02061     0.01598
 Rotational constants (GHZ):           1.01660     0.42952     0.33293
 Zero-point vibrational energy     699996.9 (Joules/Mol)
                                  167.30328 (Kcal/Mol)
 Warning -- explicit consideration of  20 degrees of freedom as
           vibrations may cause significant error
 Vibrational temperatures:     55.82    80.69   133.73   154.05   173.47
          (Kelvin)            189.28   239.64   265.51   322.45   369.56
                              411.67   472.75   540.44   548.93   555.43
                              606.99   657.81   739.81   766.04   816.88
                              909.85   987.34  1006.11  1066.95  1102.66
                             1107.95  1167.99  1183.05  1276.43  1316.94
                             1339.47  1374.63  1417.73  1433.46  1511.85
                             1524.64  1569.59  1589.89  1607.99  1642.92
                             1648.53  1681.41  1692.31  1718.92  1729.14
                             1771.41  1785.98  1842.69  1852.95  1906.91
                             1931.98  1957.26  1958.07  1985.81  1992.09
                             2017.53  2035.79  2041.59  2065.23  2079.59
                             2084.59  2119.75  2170.04  2183.96  2189.96
                             2206.97  2229.80  2233.05  2247.28  2565.26
                             2621.08  4298.74  4335.63  4362.34  4366.53
                             4375.00  4382.62  4410.00  4412.63  4468.37
                             4471.56  4471.83  4485.65  4489.41  4519.08
                             4569.63  5176.15

 Zero-point correction=                           0.266615 (Hartree/Particle)
 Thermal correction to Energy=                    0.280619
 Thermal correction to Enthalpy=                  0.281563
 Thermal correction to Gibbs Free Energy=         0.225312
 Sum of electronic and zero-point Energies=           -725.688197
 Sum of electronic and thermal Energies=              -725.674192
 Sum of electronic and thermal Enthalpies=            -725.673248
 Sum of electronic and thermal Free Energies=         -725.729499

                     E (Thermal)             CV                S
                      KCal/Mol        Cal/Mol-Kelvin    Cal/Mol-Kelvin
 Total                  176.091             53.206            118.391
 Electronic               0.000              0.000              0.000
 Translational            0.889              2.981             41.959
 Rotational               0.889              2.981             32.070
 Vibrational            174.314             47.244             44.362
 Vibration     1          0.594              1.981              5.320
 Vibration     2          0.596              1.975              4.590
 Vibration     3          0.602              1.954              3.597
 Vibration     4          0.606              1.944              3.321
 Vibration     5          0.609              1.932              3.091
 Vibration     6          0.612              1.922              2.923
 Vibration     7          0.624              1.884              2.474
 Vibration     8          0.631              1.861              2.282
 Vibration     9          0.649              1.804              1.926
 Vibration    10          0.666              1.751              1.683
 Vibration    11          0.684              1.699              1.497
 Vibration    12          0.712              1.618              1.267
 Vibration    13          0.746              1.522              1.057
 Vibration    14          0.751              1.510              1.033
 Vibration    15          0.755              1.500              1.015
 Vibration    16          0.784              1.423              0.886
 Vibration    17          0.815              1.345              0.774
 Vibration    18          0.869              1.219              0.624
 Vibration    19          0.887              1.178              0.582
 Vibration    20          0.924              1.101              0.509

 Optimization completed.
    -- Stationary point found.
 Normal termination of Gaussian 16 at Thu Dec 10 17:32:28 2020.

 ----------------------------------------------------------------------
 # B3LYP/6-311++G(d,p) empiricaldispersion=gd3bj scf=xqc pop=npa geom=c
 heck
 ----------------------------------------------------------------------

 --------------------------------------
 CID_66239726_JID_5852_Energie_neutraal
 --------------------------------------
 Structure from the checkpoint file:  "JID_5852.chk"
 Charge =  0 Multiplicity = 1

 SCF Done:  E(RB3LYP) =  -726.164492505     A.U. after   15 cycles
 Normal termination of Gaussian 16 at Thu Dec 10 17:36:42 2020.

 ----------------------------------------------------------------------
 # B3LYP/6-311++G(d,p) empiricaldispersion=gd3bj scf=xqc pop=npa geom=c
 heck
 ----------------------------------------------------------------------

 ------------------------------------
 CID_66239726_JID_5852_Energie_kation
 ------------------------------------
 Structure from the checkpoint file:  "JID_5852.chk"
 Charge =  1 Multiplicity = 2

 SCF Done:  E(UB3LYP) =  -725.821742253     A.U. after   33 cycles
 SCF Done:  E(UB3LYP) =  -725.821742253     a.u. after    1 cycles
 Normal termination of Gaussian 16 at Thu Dec 10 17:48:54 2020.
 Gaussian 16:  ES64L-G16RevA.03 25-Dec-2016

 ----------------------------------------------------------------------
 # B3LYP/6-311++G(d,p) empiricaldispersion=gd3bj scf=xqc pop=npa geom=c
 heck
 ----------------------------------------------------------------------

 -----------------------------------
 CID_66239726_JID_5852_Energie_anion
 -----------------------------------
 Structure from the checkpoint file:  "JID_5852.chk"
 Charge = -1 Multiplicity = 2

                         Standard orientation:
 ---------------------------------------------------------------------
 Center     Atomic      Atomic             Coordinates (Angstroms)
 Number     Number       Type             X           Y           Z
 ---------------------------------------------------------------------
      1          6           0        3.504134   -1.864984    0.434969
      2          6           0        3.038759   -0.568380    1.104090
      3          6           0        3.034766    0.654292    0.177261
      4          6           0        2.019076    0.602776   -0.970054
      5          7           0        0.623250    0.523550   -0.495451
      6          6           0       -0.017986   -0.721599   -0.499478
      7          8           0        0.472505   -1.720005   -0.996370
      8          6           0       -1.343749   -0.689489    0.208505
      9          6           0       -2.399017   -1.752946   -0.058644
     10          8           0       -3.652500   -1.092828    0.223152
     11          6           0       -3.434284    0.292868    0.507808
     12          6           0       -2.090632    0.587019   -0.150062
     13          7           0       -1.289368    1.695517    0.317474
     14          6           0        0.045746    1.740037   -0.046337
     15          8           0        0.700246    2.767673    0.003366
     16          1           0        2.818232   -2.172962   -0.359147
     17          1           0        3.556976   -2.682936    1.162333
     18          1           0        4.503994   -1.742297   -0.000205
     19          1           0        2.034044   -0.710529    1.526319
     20          1           0        3.690946   -0.344709    1.958203
     21          1           0        2.845196    1.563588    0.756284
     22          1           0        4.029415    0.769911   -0.275553
     23          1           0        2.104087    1.503975   -1.579151
     24          1           0        2.170975   -0.270408   -1.603878
     25          1           0       -1.130329   -0.638873    1.286126
     26          1           0       -2.297369   -2.627744    0.589316
     27          1           0       -2.385216   -2.087939   -1.102440
     28          1           0       -3.378427    0.478874    1.591532
     29          1           0       -4.271445    0.860947    0.091127
     30          1           0       -2.237935    0.627826   -1.242124
     31          1           0       -1.693203    2.623510    0.357568
 ---------------------------------------------------------------------

 SCF Done:  E(UB3LYP) =  -726.153920716     A.U. after   33 cycles
 SCF Done:  E(UB3LYP) =  -726.153920716     a.u. after    1 cycles

 The electronic state is 2-A.
 Alpha  occ. eigenvalues --  -19.03015 -19.00371 -18.99631 -14.26239 -14.24120
 Alpha  occ. eigenvalues --  -10.20888 -10.18099 -10.12670 -10.12390 -10.12334
 Alpha  occ. eigenvalues --  -10.10684 -10.09391 -10.07103 -10.07054 -10.05884
 Alpha  occ. eigenvalues --   -0.97084  -0.94933  -0.94477  -0.85562  -0.82407
 Alpha  occ. eigenvalues --   -0.70896  -0.69742  -0.65373  -0.63206  -0.57125
 Alpha  occ. eigenvalues --   -0.55639  -0.52671  -0.51635  -0.48080  -0.45850
 Alpha  occ. eigenvalues --   -0.44391  -0.43339  -0.39040  -0.37482  -0.36933
 Alpha  occ. eigenvalues --   -0.36367  -0.35646  -0.35111  -0.34257  -0.33251
 Alpha  occ. eigenvalues --   -0.32537  -0.30401  -0.30098  -0.29645  -0.28877
 Alpha  occ. eigenvalues --   -0.28743  -0.28381  -0.25649  -0.24250  -0.23663
 Alpha  occ. eigenvalues --   -0.23320  -0.23038  -0.19055  -0.17582  -0.17020
 Alpha  occ. eigenvalues --   -0.16486  -0.16327   0.04526
 Alpha virt. eigenvalues --    0.06373   0.07174   0.07489   0.08192   0.08714
 Alpha virt. eigenvalues --    0.09062   0.09479   0.10489   0.10876   0.11451
 Alpha virt. eigenvalues --    0.11947   0.12114   0.12806   0.13317   0.14041

  Beta  occ. eigenvalues --  -19.03009 -19.00259 -18.99613 -14.26247 -14.24063
  Beta  occ. eigenvalues --  -10.20854 -10.17954 -10.12657 -10.12359 -10.12291
  Beta  occ. eigenvalues --  -10.10679 -10.09390 -10.07097 -10.07042 -10.05869
  Beta  occ. eigenvalues --   -0.96993  -0.94788  -0.94420  -0.85503  -0.82353
  Beta  occ. eigenvalues --   -0.70813  -0.69714  -0.65313  -0.63165  -0.57048
  Beta  occ. eigenvalues --   -0.55495  -0.52604  -0.51551  -0.48027  -0.45765
  Beta  occ. eigenvalues --   -0.44284  -0.43252  -0.38935  -0.37421  -0.36858
  Beta  occ. eigenvalues --   -0.36277  -0.35575  -0.35049  -0.34141  -0.33211
  Beta  occ. eigenvalues --   -0.32461  -0.30158  -0.30041  -0.29591  -0.28831
  Beta  occ. eigenvalues --   -0.28615  -0.28299  -0.25479  -0.24219  -0.23612
  Beta  occ. eigenvalues --   -0.23283  -0.23000  -0.18985  -0.17459  -0.16898
  Beta  occ. eigenvalues --   -0.16417  -0.16269
  Beta virt. eigenvalues --    0.06601   0.07687   0.07976   0.08350   0.08568
  Beta virt. eigenvalues --    0.09086   0.09382   0.09762   0.10892   0.11180
  Beta virt. eigenvalues --    0.11746   0.12092   0.12300   0.12766   0.13394

 Mulliken charges and spin densities:
               1          2
     1  C    0.106565  -0.686026
     2  C   -0.172383   0.125732
     3  C   -0.305764  -0.112067
     4  C    0.273973  -0.363975
     5  N    0.123988  -0.028350
     6  C   -0.351723  -0.323326
     7  O   -0.270877   0.038408
     8  C   -0.375646   1.034116
     9  C    0.594724  -1.138520
    10  O   -0.233848   0.072703
    11  C    1.432958  -1.774004
    12  C   -0.018825  -0.429271
    13  N   -0.220428   0.133355
    14  C   -0.052544   0.262877
    15  O   -0.352684   0.027395
    16  H    0.100198   0.078275
    17  H   -0.048289   0.171829
    18  H   -0.010721   0.126610
    19  H   -0.041739   0.187935
    20  H   -0.152854   0.310129
    21  H    0.179882   0.017797
    22  H    0.008195   0.116331
    23  H    0.035568   0.169009
    24  H    0.196994  -0.013352
    25  H   -0.261587   0.536877
    26  H   -0.022283   0.194426
    27  H    0.128363   0.056445
    28  H   -0.051447   0.212496
    29  H   -0.706843   0.908674
    30  H   -0.214202   0.451711
    31  H   -0.316722   0.635762
 Sum of Mulliken charges =  -1.00000   1.00000

 Dipole moment (field-independent basis, Debye):
    X=              4.0075    Y=             -2.6465    Z=             -1.2391  Tot=              4.9598
 Quadrupole moment (field-independent basis, Debye-Ang):
   XX=           -159.8093   YY=           -140.5500   ZZ=           -117.4978
   XY=             12.0643   XZ=             -3.3263   YZ=              0.9746

 Summary of Natural Population Analysis:

                                       Natural Population
                Natural  -----------------------------------------------
    Atom  No    Charge         Core      Valence    Rydberg      Total
 -----------------------------------------------------------------------
      C    1   -0.29107      0.99966     2.28668    0.00473     3.29107
      C    2   -0.19295      0.99964     2.18491    0.00840     3.19295
      C    3   -0.19450      0.99962     2.18769    0.00719     3.19450
      C    4   -0.08840      0.99960     2.07861    0.01019     3.08840
      N    5   -0.27544      0.99962     2.76666    0.00917     3.77544
      C    6    0.37895      0.99962     1.59918    0.02226     2.62105
      O    7   -0.29872      0.99987     3.29343    0.00542     4.29872
      C    8   -0.16844      0.99953     2.15727    0.01165     3.16844
      C    9    0.00108      0.99957     1.98842    0.01093     2.99892
      O   10   -0.30286      0.99990     3.29472    0.00824     4.30286
      C   11   -0.00403      0.99956     1.99064    0.01383     3.00403
      C   12   -0.01733      0.99955     2.00401    0.01377     3.01733
      N   13   -0.32306      0.99966     2.81250    0.01090     3.82306
      C   14    0.42355      0.99968     1.55380    0.02298     2.57645
      O   15   -0.32358      0.99987     3.31821    0.00549     4.32358
      H   16    0.10923      0.00000     0.38955    0.00122     0.39077
      H   17    0.09686      0.00000     0.40210    0.00104     0.40314
      H   18    0.08994      0.00000     0.40885    0.00121     0.41006
      H   19    0.09589      0.00000     0.40276    0.00134     0.40411
      H   20    0.09443      0.00000     0.40455    0.00102     0.40557
      H   21    0.10792      0.00000     0.39086    0.00122     0.39208
      H   22    0.09399      0.00000     0.40494    0.00107     0.40601
      H   23    0.10610      0.00000     0.39289    0.00101     0.39390
      H   24    0.10854      0.00000     0.39013    0.00134     0.39146
      H   25    0.11797      0.00000     0.37938    0.00265     0.38203
      H   26    0.09041      0.00000     0.40817    0.00142     0.40959
      H   27    0.08851      0.00000     0.41000    0.00149     0.41149
      H   28    0.08320      0.00000     0.41473    0.00206     0.41680
      H   29    0.09602      0.00000     0.40101    0.00297     0.40398
      H   30    0.09357      0.00000     0.40453    0.00190     0.40643
      H   31    0.20422      0.00000     0.28889    0.00690     0.29578
 =======================================================================
   * Total *   -0.00000     14.99496    41.81004    0.19500    57.00000

 Normal termination of Gaussian 16 at Thu Dec 10 18:01:12 2020.
