 Gaussian 16, Revision A.03,

 -----------------------------------------------------------
 # opt freq B3LYP/6-31G(d) empiricaldispersion=gd3bj scf=xqc
 -----------------------------------------------------------

 -----------------------------
 CID_91945105_JID_794_neutraal
 -----------------------------
 Symbolic Z-matrix:
 Charge =  0 Multiplicity = 1

 SCF Done:  E(RB3LYP) =  -390.610152537     A.U. after   14 cycles
 SCF Done:  E(RB3LYP) =  -390.637689573     A.U. after   12 cycles
 SCF Done:  E(RB3LYP) =  -390.646000166     A.U. after   12 cycles
 SCF Done:  E(RB3LYP) =  -390.647092481     A.U. after   11 cycles
 SCF Done:  E(RB3LYP) =  -390.648021715     A.U. after   12 cycles
 SCF Done:  E(RB3LYP) =  -390.648380603     A.U. after   12 cycles
 SCF Done:  E(RB3LYP) =  -390.648458996     A.U. after   12 cycles
 SCF Done:  E(RB3LYP) =  -390.648570897     A.U. after   11 cycles
 SCF Done:  E(RB3LYP) =  -390.648573528     A.U. after    8 cycles
 SCF Done:  E(RB3LYP) =  -390.648574921     A.U. after    9 cycles
 SCF Done:  E(RB3LYP) =  -390.648574966     A.U. after    7 cycles
 SCF Done:  E(RB3LYP) =  -390.648574968     A.U. after    7 cycles
 Optimization completed.
    -- Stationary point found.
 Normal termination of Gaussian 16 at Tue Dec  8 12:41:19 2020.

 --------------------------------------------------------------------
 #N Geom=AllCheck Guess=TCheck SCRF=Check GenChk RB3LYP/6-31G(d) Freq
 --------------------------------------------------------------------

 Structure from the checkpoint file:  "JID_794.chk"
 -----------------------------
 CID_91945105_JID_794_neutraal
 -----------------------------
 Charge =  0 Multiplicity = 1

 SCF Done:  E(RB3LYP) =  -390.648574968     A.U. after    1 cycles

  Exact polarizability: 120.666   1.575  98.590  -0.719  -2.272  82.804
 Approx polarizability: 152.540   6.880 151.123  -2.785  -6.156 123.077

                      1                      2                      3
                      A                      A                      A
 Frequencies --     44.7532                93.9778               127.6818
 Red. masses --      2.6321                 2.8413                 2.9140
 Frc consts  --      0.0031                 0.0148                 0.0280
 IR Inten    --      0.0035                 0.3618                 0.3015

                      4                      5                      6
                      A                      A                      A
 Frequencies --    166.0152               232.9974               258.7944
 Red. masses --      1.7535                 1.0313                 1.3340
 Frc consts  --      0.0285                 0.0330                 0.0526
 IR Inten    --      0.0033                 0.0001                 0.3541

                      7                      8                      9
                      A                      A                      A
 Frequencies --    265.4856               305.9657               334.0365
 Red. masses --      1.9204                 2.5048                 2.4087
 Frc consts  --      0.0798                 0.1382                 0.1583
 IR Inten    --      0.1411                 0.2151                 0.9064

                     10                     11                     12
                      A                      A                      A
 Frequencies --    409.6602               486.6814               543.3950
 Red. masses --      2.6125                 3.2496                 3.0027
 Frc consts  --      0.2583                 0.4535                 0.5224
 IR Inten    --      2.1410                 0.9585                 1.8865

                     13                     14                     15
                      A                      A                      A
 Frequencies --    563.9732               654.8594               655.8581
 Red. masses --      2.9599                 2.2981                 3.2246
 Frc consts  --      0.5547                 0.5806                 0.8172
 IR Inten    --      2.5302                 6.5834                 1.6611

                     16                     17                     18
                      A                      A                      A
 Frequencies --    763.4455               818.2331               824.0328
 Red. masses --      1.2970                 2.8923                 2.0697
 Frc consts  --      0.4454                 1.1409                 0.8280
 IR Inten    --      1.0407                 2.3870                 8.8994

                     19                     20                     21
                      A                      A                      A
 Frequencies --    841.1094               879.3635               889.3500
 Red. masses --      2.3344                 2.4548                 2.4617
 Frc consts  --      0.9731                 1.1184                 1.1472
 IR Inten    --      6.4027                 1.1616                 0.6297

                     22                     23                     24
                      A                      A                      A
 Frequencies --    939.8481               942.8729               952.8405
 Red. masses --      1.8807                 1.2826                 2.1438
 Frc consts  --      0.9788                 0.6718                 1.1468
 IR Inten    --      0.8838                 0.9140                 3.3923

                     25                     26                     27
                      A                      A                      A
 Frequencies --    975.6465              1004.2563              1030.3955
 Red. masses --      1.5303                 1.5256                 2.6739
 Frc consts  --      0.8583                 0.9065                 1.6726
 IR Inten    --      0.0205                 5.5757                 0.1480

                     28                     29                     30
                      A                      A                      A
 Frequencies --   1046.6722              1093.7837              1123.3297
 Red. masses --      1.7394                 1.6597                 2.1380
 Frc consts  --      1.1227                 1.1699                 1.5896
 IR Inten    --      9.8086                 7.5305                 1.4023

                     31                     32                     33
                      A                      A                      A
 Frequencies --   1130.4531              1167.1078              1170.3609
 Red. masses --      2.4347                 1.3679                 1.4451
 Frc consts  --      1.8332                 1.0978                 1.1663
 IR Inten    --      1.8499                 3.5417                 0.8932

                     34                     35                     36
                      A                      A                      A
 Frequencies --   1197.7968              1230.6411              1242.1074
 Red. masses --      1.8548                 1.3638                 1.5974
 Frc consts  --      1.5679                 1.2169                 1.4520
 IR Inten    --      1.9539                 5.7403                 4.7572

                     37                     38                     39
                      A                      A                      A
 Frequencies --   1256.5302              1257.5438              1277.1834
 Red. masses --      1.2862                 1.1816                 2.2059
 Frc consts  --      1.1965                 1.1009                 2.1200
 IR Inten    --      3.1406                 1.1635                 1.1620

                     40                     41                     42
                      A                      A                      A
 Frequencies --   1308.6250              1316.4508              1328.2017
 Red. masses --      1.5604                 1.5492                 1.4448
 Frc consts  --      1.5744                 1.5818                 1.5017
 IR Inten    --      0.9585                 0.6721                 0.2899

                     43                     44                     45
                      A                      A                      A
 Frequencies --   1353.6051              1360.5549              1418.5120
 Red. masses --      1.3355                 1.4984                 1.2819
 Frc consts  --      1.4417                 1.6342                 1.5198
 IR Inten    --      2.5261                16.7888                13.5584

                     46                     47                     48
                      A                      A                      A
 Frequencies --   1420.4722              1425.7713              1442.5924
 Red. masses --      1.2224                 1.1906                 1.2251
 Frc consts  --      1.4532                 1.4259                 1.5022
 IR Inten    --      3.4284                11.0603                 2.7469

                     49                     50                     51
                      A                      A                      A
 Frequencies --   1514.3317              1517.8398              1520.6233
 Red. masses --      1.0809                 1.0425                 1.0504
 Frc consts  --      1.4604                 1.4151                 1.4310
 IR Inten    --      0.4278                 1.3329                 0.3973

                     52                     53                     54
                      A                      A                      A
 Frequencies --   1530.7355              1533.6203              1539.8577
 Red. masses --      1.0450                 1.0938                 1.0565
 Frc consts  --      1.4426                 1.5157                 1.4759
 IR Inten    --      6.6582                 1.5255                 6.9903

                     55                     56                     57
                      A                      A                      A
 Frequencies --   1543.0178              1674.5407              2996.8610
 Red. masses --      1.1034                 7.5755                 1.0824
 Frc consts  --      1.5478                12.5156                 5.7277
 IR Inten    --      0.1391                 6.0338                 5.8587

                     58                     59                     60
                      A                      A                      A
 Frequencies --   3006.5536              3029.1769              3042.7809
 Red. masses --      1.0825                 1.0840                 1.0345
 Frc consts  --      5.7653                 5.8602                 5.6430
 IR Inten    --     25.7274                21.9890                25.1926

                     61                     62                     63
                      A                      A                      A
 Frequencies --   3046.8758              3060.4372              3063.5337
 Red. masses --      1.0350                 1.0589                 1.0586
 Frc consts  --      5.6613                 5.8435                 5.8535
 IR Inten    --     27.4529                 0.3640                89.6766

                     64                     65                     66
                      A                      A                      A
 Frequencies --   3077.2169              3097.3982              3106.0812
 Red. masses --      1.0613                 1.1075                 1.1074
 Frc consts  --      5.9211                 6.2604                 6.2947
 IR Inten    --     57.2501                15.5230                14.7323

                     67                     68                     69
                      A                      A                      A
 Frequencies --   3108.5362              3114.6878              3120.2582
 Red. masses --      1.1028                 1.1019                 1.1030
 Frc consts  --      6.2787                 6.2980                 6.3273
 IR Inten    --      1.0803                79.2661                24.3934

                     70                     71                     72
                      A                      A                      A
 Frequencies --   3122.3010              3125.9215              3201.2872
 Red. masses --      1.1024                 1.1070                 1.0976
 Frc consts  --      6.3322                 6.3731                 6.6273
 IR Inten    --     31.7477                82.6520                28.0340

 - Thermochemistry -
 -------------------
 Temperature   298.150 Kelvin.  Pressure   1.00000 Atm.
 Atom     1 has atomic number  6 and mass  12.00000

 Molecular mass:   136.12520 amu.
 Principal axes and moments of inertia in atomic units:
                           1         2         3
     Eigenvalues --   699.325642206.525832421.23093
           X            1.00000   0.00283  -0.00035
           Y           -0.00282   0.99996   0.00879
           Z            0.00038  -0.00879   0.99996
 This molecule is an asymmetric top.
 Rotational symmetry number  1.
 Warning -- assumption of classical behavior for rotation
           may cause significant error
 Rotational temperatures (Kelvin)      0.12385     0.03925     0.03577
 Rotational constants (GHZ):           2.58069     0.81791     0.74538
 Zero-point vibrational energy     623662.9 (Joules/Mol)
                                  149.05902 (Kcal/Mol)
 Warning -- explicit consideration of  13 degrees of freedom as
           vibrations may cause significant error
 Vibrational temperatures:     64.39   135.21   183.71   238.86   335.23
          (Kelvin)            372.35   381.97   440.22   480.60   589.41
                              700.23   781.82   811.43   942.20   943.63
                             1098.43  1177.25  1185.60  1210.17  1265.21
                             1279.58  1352.23  1356.58  1370.93  1403.74
                             1444.90  1482.51  1505.93  1573.71  1616.22
                             1626.47  1679.21  1683.89  1723.36  1770.62
                             1787.12  1807.87  1809.32  1837.58  1882.82
                             1894.08  1910.99  1947.54  1957.54  2040.92
                             2043.74  2051.37  2075.57  2178.79  2183.83
                             2187.84  2202.39  2206.54  2215.51  2220.06
                             2409.29  4311.81  4325.76  4358.31  4377.88
                             4383.77  4403.29  4407.74  4427.43  4456.47
                             4468.96  4472.49  4481.34  4489.36  4492.29
                             4497.50  4605.94

 Zero-point correction=                           0.237541 (Hartree/Particle)
 Thermal correction to Energy=                    0.247674
 Thermal correction to Enthalpy=                  0.248619
 Thermal correction to Gibbs Free Energy=         0.201984
 Sum of electronic and zero-point Energies=           -390.411034
 Sum of electronic and thermal Energies=              -390.400901
 Sum of electronic and thermal Enthalpies=            -390.399956
 Sum of electronic and thermal Free Energies=         -390.446591

                     E (Thermal)             CV                S
                      KCal/Mol        Cal/Mol-Kelvin    Cal/Mol-Kelvin
 Total                  155.418             39.317             98.150
 Electronic               0.000              0.000              0.000
 Translational            0.889              2.981             40.637
 Rotational               0.889              2.981             29.703
 Vibrational            153.641             33.355             27.810
 Vibration     1          0.595              1.979              5.037
 Vibration     2          0.603              1.953              3.576
 Vibration     3          0.611              1.926              2.981
 Vibration     4          0.624              1.884              2.480
 Vibration     5          0.654              1.790              1.856
 Vibration     6          0.668              1.748              1.670
 Vibration     7          0.671              1.736              1.625
 Vibration     8          0.696              1.662              1.384
 Vibration     9          0.716              1.608              1.240
 Vibration    10          0.774              1.449              0.928
 Vibration    11          0.843              1.280              0.692
 Vibration    12          0.899              1.154              0.558
 Vibration    13          0.920              1.109              0.516

 Optimization completed.
    -- Stationary point found.
 Normal termination of Gaussian 16 at Tue Dec  8 12:51:28 2020.

 ----------------------------------------------------------------------
 # B3LYP/6-311++G(d,p) empiricaldispersion=gd3bj scf=xqc pop=npa geom=c
 heck
 ----------------------------------------------------------------------

 -------------------------------------
 CID_91945105_JID_794_Energie_neutraal
 -------------------------------------
 Structure from the checkpoint file:  "JID_794.chk"
 Charge =  0 Multiplicity = 1

 SCF Done:  E(RB3LYP) =  -390.751298683     A.U. after   13 cycles
 Normal termination of Gaussian 16 at Tue Dec  8 13:04:04 2020.

 ----------------------------------------------------------------------
 # B3LYP/6-311++G(d,p) empiricaldispersion=gd3bj scf=xqc pop=npa geom=c
 heck
 ----------------------------------------------------------------------

 -----------------------------------
 CID_91945105_JID_794_Energie_kation
 -----------------------------------
 Structure from the checkpoint file:  "JID_794.chk"
 Charge =  1 Multiplicity = 2

 SCF Done:  E(UB3LYP) =  -390.444003652     A.U. after   17 cycles
 Normal termination of Gaussian 16 at Tue Dec  8 13:12:12 2020.
 Gaussian 16:  ES64L-G16RevA.03 25-Dec-2016

 ----------------------------------------------------------------------
 # B3LYP/6-311++G(d,p) empiricaldispersion=gd3bj scf=xqc pop=npa geom=c
 heck
 ----------------------------------------------------------------------

 ----------------------------------
 CID_91945105_JID_794_Energie_anion
 ----------------------------------
 Structure from the checkpoint file:  "JID_794.chk"
 Charge = -1 Multiplicity = 2

                         Standard orientation:
 ---------------------------------------------------------------------
 Center     Atomic      Atomic             Coordinates (Angstroms)
 Number     Number       Type             X           Y           Z
 ---------------------------------------------------------------------
      1          6           0        2.596797    0.306929   -1.346477
      2          6           0        2.218747   -0.305890    0.013320
      3          6           0        2.603053    0.643532    1.162937
      4          6           0        0.757387   -0.615659    0.065745
      5          6           0        0.003262   -1.719170    0.249929
      6          6           0       -1.300860   -0.909706    0.350120
      7          6           0       -0.488377    0.252617   -0.233935
      8          6           0       -1.304246    1.462805    0.216603
      9          6           0       -2.758287    0.897806   -0.097908
     10          6           0       -2.669146   -0.679003   -0.289081
     11          1           0        2.050301    1.243338   -1.511484
     12          1           0        2.354677   -0.374382   -2.169088
     13          1           0        3.668826    0.531030   -1.388127
     14          1           0        2.772855   -1.246627    0.139663
     15          1           0        2.049202    1.586559    1.081830
     16          1           0        2.370189    0.199199    2.136271
     17          1           0        3.674022    0.875814    1.135881
     18          1           0        0.247534   -2.765329    0.412100
     19          1           0       -1.447427   -0.713754    1.422895
     20          1           0       -0.599463    0.221780   -1.327691
     21          1           0       -1.188450    1.677070    1.284623
     22          1           0       -1.105492    2.386553   -0.336647
     23          1           0       -3.444193    1.142699    0.719055
     24          1           0       -3.160191    1.367254   -1.001183
     25          1           0       -2.689866   -0.947897   -1.350857
     26          1           0       -3.502502   -1.188862    0.205251
 ---------------------------------------------------------------------

 SCF Done:  E(UB3LYP) =  -390.732603157     A.U. after   33 cycles
 SCF Done:  E(UB3LYP) =  -390.732603157     a.u. after    1 cycles

 The electronic state is 2-A.
 Alpha  occ. eigenvalues --  -10.07109 -10.06854 -10.06427 -10.06308 -10.06122
 Alpha  occ. eigenvalues --  -10.06113 -10.05942 -10.05862 -10.05048 -10.04907
 Alpha  occ. eigenvalues --   -0.77151  -0.69841  -0.66430  -0.59817  -0.57538
 Alpha  occ. eigenvalues --   -0.54667  -0.50627  -0.47657  -0.44682  -0.40812
 Alpha  occ. eigenvalues --   -0.37078  -0.35449  -0.34111  -0.32726  -0.31710
 Alpha  occ. eigenvalues --   -0.30289  -0.29609  -0.27570  -0.26417  -0.24499
 Alpha  occ. eigenvalues --   -0.24074  -0.23706  -0.22407  -0.22041  -0.21064
 Alpha  occ. eigenvalues --   -0.19909  -0.16943  -0.12738   0.04931
 Alpha virt. eigenvalues --    0.07043   0.07759   0.07991   0.08995   0.09394
 Alpha virt. eigenvalues --    0.09588   0.10244   0.10818   0.11595   0.11768
 Alpha virt. eigenvalues --    0.12140   0.12952   0.13325   0.13992   0.14440

  Beta  occ. eigenvalues --  -10.07100 -10.06836 -10.06407 -10.06288 -10.06106
  Beta  occ. eigenvalues --  -10.06100 -10.05923 -10.05846 -10.05017 -10.04865
  Beta  occ. eigenvalues --   -0.77115  -0.69803  -0.66389  -0.59776  -0.57464
  Beta  occ. eigenvalues --   -0.54613  -0.50552  -0.47591  -0.44619  -0.40758
  Beta  occ. eigenvalues --   -0.37031  -0.35398  -0.34074  -0.32679  -0.31657
  Beta  occ. eigenvalues --   -0.30255  -0.29561  -0.27533  -0.26369  -0.24449
  Beta  occ. eigenvalues --   -0.24033  -0.23663  -0.22373  -0.22003  -0.21016
  Beta  occ. eigenvalues --   -0.19873  -0.16915  -0.12630
  Beta virt. eigenvalues --    0.07131   0.07966   0.08310   0.08626   0.09584
  Beta virt. eigenvalues --    0.09812   0.10117   0.10625   0.11258   0.11993
  Beta virt. eigenvalues --    0.12236   0.12576   0.13366   0.13752   0.14343

 Mulliken charges and spin densities:
               1          2
     1  C    0.864297  -1.515604
     2  C   -3.366324   3.379844
     3  C    1.473567  -2.188809
     4  C    1.627201  -0.917389
     5  C   -0.274374   0.234917
     6  C    1.019246  -0.562843
     7  C   -1.184158   0.689214
     8  C    1.207290  -1.892674
     9  C    0.308838  -0.672573
    10  C    0.430331  -1.106379
    11  H   -0.030807   0.177261
    12  H   -0.106669   0.242231
    13  H   -0.534320   0.688512
    14  H   -0.272445   0.443327
    15  H   -0.231318   0.383188
    16  H   -0.136779   0.274296
    17  H   -0.523691   0.674116
    18  H   -0.353796   0.486688
    19  H   -0.095563   0.266737
    20  H   -0.108081   0.320676
    21  H    0.025170   0.137060
    22  H   -0.278382   0.425881
    23  H   -0.095243   0.236469
    24  H   -0.123864   0.263940
    25  H   -0.196665   0.353697
    26  H   -0.043461   0.178219
 Sum of Mulliken charges =  -1.00000   1.00000

 Dipole moment (field-independent basis, Debye):
    X=             -3.4678    Y=             -1.4409    Z=              0.4730  Tot=              3.7849
 Quadrupole moment (field-independent basis, Debye-Ang):
   XX=           -132.8196   YY=            -99.0990   ZZ=            -99.5420
   XY=             -2.7499   XZ=             -2.1719   YZ=             -0.9779

 Summary of Natural Population Analysis:

                                       Natural Population
                Natural  -----------------------------------------------
    Atom  No    Charge         Core      Valence    Rydberg      Total
 -----------------------------------------------------------------------
      C    1   -0.27889      0.99965     2.27287    0.00638     3.27889
      C    2   -0.13168      0.99956     2.12133    0.01079     3.13168
      C    3   -0.27791      0.99965     2.27217    0.00609     3.27791
      C    4    0.02231      0.99946     1.96406    0.01417     2.97769
      C    5   -0.09036      0.99939     2.08240    0.00857     3.09036
      C    6   -0.11471      0.99954     2.10503    0.01015     3.11471
      C    7   -0.11550      0.99951     2.10381    0.01218     3.11550
      C    8   -0.18887      0.99961     2.18057    0.00869     3.18887
      C    9   -0.18886      0.99965     2.18240    0.00681     3.18886
      C   10   -0.18723      0.99961     2.18065    0.00697     3.18723
      H   11    0.09814      0.00000     0.40056    0.00130     0.40186
      H   12    0.09985      0.00000     0.39889    0.00126     0.40015
      H   13    0.09952      0.00000     0.39929    0.00119     0.40048
      H   14    0.09771      0.00000     0.40020    0.00209     0.40229
      H   15    0.09811      0.00000     0.40054    0.00135     0.40189
      H   16    0.09973      0.00000     0.39897    0.00129     0.40027
      H   17    0.10014      0.00000     0.39812    0.00174     0.39986
      H   18    0.09490      0.00000     0.40400    0.00110     0.40510
      H   19    0.08938      0.00000     0.40817    0.00245     0.41062
      H   20    0.09578      0.00000     0.40178    0.00244     0.40422
      H   21    0.09573      0.00000     0.40266    0.00160     0.40427
      H   22    0.09886      0.00000     0.39982    0.00131     0.40114
      H   23    0.09571      0.00000     0.40281    0.00148     0.40429
      H   24    0.09697      0.00000     0.40153    0.00151     0.40303
      H   25    0.09554      0.00000     0.40276    0.00170     0.40446
      H   26    0.09562      0.00000     0.40297    0.00141     0.40438
 =======================================================================
   * Total *   -0.00000      9.99563    27.88835    0.11602    38.00000

 Normal termination of Gaussian 16 at Tue Dec  8 13:23:58 2020.
