 Gaussian 16, Revision A.03,

 -----------------------------------------------------------
 # opt freq B3LYP/6-31G(d) empiricaldispersion=gd3bj scf=xqc
 -----------------------------------------------------------

 -------------------------------
 CID_141030913_JID_1186_neutraal
 -------------------------------
 Symbolic Z-matrix:
 Charge =  0 Multiplicity = 1

 SCF Done:  E(RB3LYP) =  -515.412743452     A.U. after   15 cycles
 SCF Done:  E(RB3LYP) =  -515.419459412     A.U. after   12 cycles
 SCF Done:  E(RB3LYP) =  -515.419917230     A.U. after   12 cycles
 SCF Done:  E(RB3LYP) =  -515.419969188     A.U. after    9 cycles
 SCF Done:  E(RB3LYP) =  -515.419979121     A.U. after    9 cycles
 SCF Done:  E(RB3LYP) =  -515.419979990     A.U. after    8 cycles
 SCF Done:  E(RB3LYP) =  -515.419980574     A.U. after    8 cycles
 SCF Done:  E(RB3LYP) =  -515.419981485     A.U. after    8 cycles
 SCF Done:  E(RB3LYP) =  -515.378641558     A.U. after   14 cycles
 SCF Done:  E(RB3LYP) =  -515.402402736     A.U. after   13 cycles
 SCF Done:  E(RB3LYP) =  -515.423370399     A.U. after   12 cycles
 SCF Done:  E(RB3LYP) =  -515.423393503     A.U. after   11 cycles
 SCF Done:  E(RB3LYP) =  -515.423393414     A.U. after   10 cycles
 SCF Done:  E(RB3LYP) =  -515.423394239     A.U. after    9 cycles
 SCF Done:  E(RB3LYP) =  -515.423394248     A.U. after    8 cycles
 Optimization completed.
    -- Stationary point found.
 Normal termination of Gaussian 16 at Tue Dec  8 19:20:31 2020.

 --------------------------------------------------------------------
 #N Geom=AllCheck Guess=TCheck SCRF=Check GenChk RB3LYP/6-31G(d) Freq
 --------------------------------------------------------------------

 Structure from the checkpoint file:  "JID_1186.chk"
 -------------------------------
 CID_141030913_JID_1186_neutraal
 -------------------------------
 Charge =  0 Multiplicity = 1

 SCF Done:  E(RB3LYP) =  -515.423394248     A.U. after    1 cycles

  Exact polarizability: 122.747  -1.477 100.627  -0.335   0.717  51.982
 Approx polarizability: 179.437  -2.473 165.057  -1.655   3.709  81.259

                      1                      2                      3
                      A                      A                      A
 Frequencies --     87.0738               127.0088               165.7384
 Red. masses --      5.1975                 4.7134                 2.7344
 Frc consts  --      0.0232                 0.0448                 0.0443
 IR Inten    --      1.7182                 2.4389                 4.7612

                      4                      5                      6
                      A                      A                      A
 Frequencies --    215.0364               225.3945               259.7355
 Red. masses --      2.6564                 3.8448                 2.8997
 Frc consts  --      0.0724                 0.1151                 0.1153
 IR Inten    --      4.6725                 9.3329                 2.1535

                      7                      8                      9
                      A                      A                      A
 Frequencies --    306.2468               330.4494               385.6875
 Red. masses --      6.9191                 1.1851                 2.5341
 Frc consts  --      0.3823                 0.0762                 0.2221
 IR Inten    --     16.0589                99.0789                 3.1403

                     10                     11                     12
                      A                      A                      A
 Frequencies --    443.8365               522.0685               552.9402
 Red. masses --      4.0739                 5.3257                 3.0384
 Frc consts  --      0.4728                 0.8552                 0.5473
 IR Inten    --      1.4398                 5.0513                18.5566

                     13                     14                     15
                      A                      A                      A
 Frequencies --    566.3662               606.3877               631.2217
 Red. masses --      3.2860                 3.1127                 3.5262
 Frc consts  --      0.6210                 0.6744                 0.8278
 IR Inten    --      3.6808                 9.3621                 9.3405

                     16                     17                     18
                      A                      A                      A
 Frequencies --    682.5026               744.1918               790.8557
 Red. masses --      3.4867                 2.1456                 2.1940
 Frc consts  --      0.9569                 0.7001                 0.8085
 IR Inten    --     16.7724                17.5446                 9.2854

                     19                     20                     21
                      A                      A                      A
 Frequencies --    839.1185               879.7165               936.1213
 Red. masses --      2.9523                 2.7518                 2.0653
 Frc consts  --      1.2248                 1.2548                 1.0663
 IR Inten    --     10.5895                 2.7902                 1.6355

                     22                     23                     24
                      A                      A                      A
 Frequencies --    972.0452               985.9749              1027.5768
 Red. masses --      1.4424                 2.7238                 2.2781
 Frc consts  --      0.8030                 1.5601                 1.4173
 IR Inten    --      2.8373                 4.3200                 1.7874

                     25                     26                     27
                      A                      A                      A
 Frequencies --   1049.6047              1090.6372              1133.4555
 Red. masses --      1.9683                 6.5923                 3.9047
 Frc consts  --      1.2776                 4.6200                 2.9556
 IR Inten    --      3.9805                48.0082                28.4959

                     28                     29                     30
                      A                      A                      A
 Frequencies --   1147.7809              1181.2799              1193.0331
 Red. masses --      1.1968                 1.3388                 1.2389
 Frc consts  --      0.9289                 1.1007                 1.0390
 IR Inten    --      8.4146                 8.7386                 7.3276

                     31                     32                     33
                      A                      A                      A
 Frequencies --   1211.6042              1267.1450              1282.7398
 Red. masses --      1.2564                 1.5416                 1.8242
 Frc consts  --      1.0866                 1.4584                 1.7685
 IR Inten    --      1.6251                 9.8803                32.4506

                     34                     35                     36
                      A                      A                      A
 Frequencies --   1327.4923              1378.1826              1383.4211
 Red. masses --      1.6506                 1.7528                 4.6472
 Frc consts  --      1.7138                 1.9616                 5.2403
 IR Inten    --     32.9245                15.2214                16.4091

                     37                     38                     39
                      A                      A                      A
 Frequencies --   1410.3426              1454.7222              1466.3942
 Red. masses --      2.0296                 1.8775                 1.1136
 Frc consts  --      2.3786                 2.3410                 1.4109
 IR Inten    --      4.2690                14.7069                 2.8878

                     40                     41                     42
                      A                      A                      A
 Frequencies --   1497.9110              1514.7652              1549.3835
 Red. masses --      1.0872                 1.1103                 1.7426
 Frc consts  --      1.4372                 1.5010                 2.4647
 IR Inten    --      4.9534                 1.5526               196.4095

                     43                     44                     45
                      A                      A                      A
 Frequencies --   1665.6986              1714.6328              1794.9224
 Red. masses --      7.3953                 6.6906                11.3081
 Frc consts  --     12.0893                11.5894                21.4649
 IR Inten    --     12.7258                 3.1278               376.1377

                     46                     47                     48
                      A                      A                      A
 Frequencies --   2975.5047              2997.1092              3046.5495
 Red. masses --      1.0742                 1.0710                 1.0649
 Frc consts  --      5.6035                 5.6683                 5.8234
 IR Inten    --     41.5679                40.3271                10.6320

                     49                     50                     51
                      A                      A                      A
 Frequencies --   3074.7029              3089.7083              3089.8771
 Red. masses --      1.0884                 1.0940                 1.0925
 Frc consts  --      6.0623                 6.1534                 6.1453
 IR Inten    --     29.9681                22.7959                15.5138

                     52                     53                     54
                      A                      A                      A
 Frequencies --   3192.5375              3225.6243              3541.1682
 Red. masses --      1.0881                 1.0958                 1.0649
 Frc consts  --      6.5342                 6.7174                 7.8677
 IR Inten    --      8.4715                 9.8984                56.4677

 - Thermochemistry -
 -------------------
 Temperature   298.150 Kelvin.  Pressure   1.00000 Atm.
 Atom     1 has atomic number  6 and mass  12.00000

 Molecular mass:   151.06333 amu.
 Principal axes and moments of inertia in atomic units:
                           1         2         3
     Eigenvalues --   778.106742052.014582761.37645
           X            0.99997   0.00743   0.00239
           Y           -0.00742   0.99997  -0.00137
           Z           -0.00240   0.00135   1.00000
 This molecule is an asymmetric top.
 Rotational symmetry number  1.
 Warning -- assumption of classical behavior for rotation
           may cause significant error
 Rotational temperatures (Kelvin)      0.11131     0.04221     0.03137
 Rotational constants (GHZ):           2.31940     0.87950     0.65357
 Zero-point vibrational energy     420076.0 (Joules/Mol)
                                  100.40058 (Kcal/Mol)
 Warning -- explicit consideration of  14 degrees of freedom as
           vibrations may cause significant error
 Vibrational temperatures:    125.28   182.74   238.46   309.39   324.29
          (Kelvin)            373.70   440.62   475.44   554.92   638.58
                              751.14   795.56   814.87   872.46   908.19
                              981.97  1070.73  1137.87  1207.30  1265.72
                             1346.87  1398.56  1418.60  1478.45  1510.15
                             1569.18  1630.79  1651.40  1699.60  1716.51
                             1743.23  1823.14  1845.58  1909.97  1982.90
                             1990.43  2029.17  2093.02  2109.81  2155.16
                             2179.41  2229.22  2396.57  2466.97  2582.49
                             4281.09  4312.17  4383.31  4423.81  4445.40
                             4445.64  4593.35  4640.95  5094.95

 Zero-point correction=                           0.159999 (Hartree/Particle)
 Thermal correction to Energy=                    0.169510
 Thermal correction to Enthalpy=                  0.170455
 Thermal correction to Gibbs Free Energy=         0.125467
 Sum of electronic and zero-point Energies=           -515.263396
 Sum of electronic and thermal Energies=              -515.253884
 Sum of electronic and thermal Enthalpies=            -515.252940
 Sum of electronic and thermal Free Energies=         -515.297927

                     E (Thermal)             CV                S
                      KCal/Mol        Cal/Mol-Kelvin    Cal/Mol-Kelvin
 Total                  106.369             36.669             94.684
 Electronic               0.000              0.000              0.000
 Translational            0.889              2.981             40.948
 Rotational               0.889              2.981             29.868
 Vibrational            104.592             30.708             23.869
 Vibration     1          0.601              1.958              3.725
 Vibration     2          0.611              1.926              2.991
 Vibration     3          0.624              1.885              2.483
 Vibration     4          0.645              1.818              2.000
 Vibration     5          0.650              1.802              1.915
 Vibration     6          0.668              1.746              1.664
 Vibration     7          0.697              1.662              1.383
 Vibration     8          0.713              1.615              1.258
 Vibration     9          0.754              1.501              1.017
 Vibration    10          0.803              1.374              0.815
 Vibration    11          0.877              1.201              0.605
 Vibration    12          0.908              1.133              0.538
 Vibration    13          0.922              1.104              0.511
 Vibration    14          0.965              1.018              0.439

 Optimization completed.
    -- Stationary point found.
 Normal termination of Gaussian 16 at Tue Dec  8 19:24:29 2020.

 ----------------------------------------------------------------------
 # B3LYP/6-311++G(d,p) empiricaldispersion=gd3bj scf=xqc pop=npa geom=c
 heck
 ----------------------------------------------------------------------

 ---------------------------------------
 CID_141030913_JID_1186_Energie_neutraal
 ---------------------------------------
 Structure from the checkpoint file:  "JID_1186.chk"
 Charge =  0 Multiplicity = 1

 SCF Done:  E(RB3LYP) =  -515.575512291     A.U. after   15 cycles
 Normal termination of Gaussian 16 at Tue Dec  8 19:26:14 2020.

 ----------------------------------------------------------------------
 # B3LYP/6-311++G(d,p) empiricaldispersion=gd3bj scf=xqc pop=npa geom=c
 heck
 ----------------------------------------------------------------------

 -------------------------------------
 CID_141030913_JID_1186_Energie_kation
 -------------------------------------
 Structure from the checkpoint file:  "JID_1186.chk"
 Charge =  1 Multiplicity = 2

 SCF Done:  E(UB3LYP) =  -515.299444985     A.U. after   21 cycles
 Normal termination of Gaussian 16 at Tue Dec  8 19:29:39 2020.
 Gaussian 16:  ES64L-G16RevA.03 25-Dec-2016

 ----------------------------------------------------------------------
 # B3LYP/6-311++G(d,p) empiricaldispersion=gd3bj scf=xqc pop=npa geom=c
 heck
 ----------------------------------------------------------------------

 ------------------------------------
 CID_141030913_JID_1186_Energie_anion
 ------------------------------------
 Structure from the checkpoint file:  "JID_1186.chk"
 Charge = -1 Multiplicity = 2

                         Standard orientation:
 ---------------------------------------------------------------------
 Center     Atomic      Atomic             Coordinates (Angstroms)
 Number     Number       Type             X           Y           Z
 ---------------------------------------------------------------------
      1          6           0       -2.846612   -0.297985   -0.373056
      2          6           0       -1.873178   -1.365765    0.173572
      3          6           0       -0.457298   -0.890739    0.031760
      4          6           0       -0.182456    0.430844    0.089793
      5          6           0       -1.187327    1.472336    0.196446
      6          6           0       -2.470500    1.118277    0.010621
      7          7           0        1.209179    0.613124    0.191147
      8          6           0        1.899078   -0.561273    0.019937
      9          8           0        3.107325   -0.599680   -0.178008
     10          6           0        0.837362   -1.665499    0.067903
     11          8           0        1.833357    1.820888   -0.120647
     12          1           0       -3.868068   -0.524071   -0.049004
     13          1           0       -2.854414   -0.353961   -1.474364
     14          1           0       -2.093606   -1.566551    1.236385
     15          1           0       -2.035810   -2.312228   -0.355074
     16          1           0       -0.882936    2.490150    0.415060
     17          1           0       -3.258392    1.864991    0.060416
     18          1           0        0.956266   -2.255240    0.987899
     19          1           0        0.983123   -2.355223   -0.771916
     20          1           0        2.749715    1.509414   -0.300054
 ---------------------------------------------------------------------

 SCF Done:  E(UB3LYP) =  -515.568303900     A.U. after   33 cycles
 SCF Done:  E(UB3LYP) =  -515.568303900     a.u. after    1 cycles

 The electronic state is 2-A.
 Alpha  occ. eigenvalues --  -19.04360 -18.95913 -14.25201 -10.12287 -10.04166
 Alpha  occ. eigenvalues --  -10.03774 -10.03125 -10.02967 -10.00641  -9.99742
 Alpha  occ. eigenvalues --   -9.99328  -0.97721  -0.89122  -0.77611  -0.67404
 Alpha  occ. eigenvalues --   -0.62000  -0.58401  -0.55965  -0.48192  -0.47413
 Alpha  occ. eigenvalues --   -0.42246  -0.38689  -0.35440  -0.34205  -0.32984
 Alpha  occ. eigenvalues --   -0.30783  -0.29894  -0.27741  -0.27260  -0.26006
 Alpha  occ. eigenvalues --   -0.25621  -0.24585  -0.22537  -0.21587  -0.20592
 Alpha  occ. eigenvalues --   -0.17745  -0.17225  -0.13166  -0.10727  -0.04517
 Alpha  occ. eigenvalues --    0.06550
 Alpha virt. eigenvalues --    0.09157   0.10196   0.10557   0.11254   0.11765
 Alpha virt. eigenvalues --    0.12713   0.12819   0.13890   0.14524   0.14899
 Alpha virt. eigenvalues --    0.16869   0.18033   0.18972   0.19384   0.19973

  Beta  occ. eigenvalues --  -19.04365 -18.95809 -14.25280 -10.12114 -10.04227
  Beta  occ. eigenvalues --  -10.03655 -10.03142 -10.02996 -10.00583  -9.99306
  Beta  occ. eigenvalues --   -9.98926  -0.97724  -0.88923  -0.77428  -0.67030
  Beta  occ. eigenvalues --   -0.61579  -0.58204  -0.55452  -0.48051  -0.47323
  Beta  occ. eigenvalues --   -0.41614  -0.38399  -0.35229  -0.33735  -0.32690
  Beta  occ. eigenvalues --   -0.30537  -0.29663  -0.27568  -0.27072  -0.25878
  Beta  occ. eigenvalues --   -0.25380  -0.24295  -0.22052  -0.21027  -0.20356
  Beta  occ. eigenvalues --   -0.17501  -0.16343  -0.13074  -0.09903  -0.02753
  Beta virt. eigenvalues --    0.09177   0.10231   0.10513   0.10897   0.11786
  Beta virt. eigenvalues --    0.12369   0.12748   0.13537   0.14064   0.14484
  Beta virt. eigenvalues --    0.16103   0.16728   0.17897   0.18888   0.19524

 Mulliken charges and spin densities:
               1          2
     1  C   -0.524776   0.009575
     2  C   -0.605688  -0.122516
     3  C    1.651354   0.262864
     4  C   -1.203697   0.127872
     5  C   -0.164252   0.014260
     6  C   -0.167284   0.333731
     7  N   -0.073329  -0.023022
     8  C    0.136883   0.093643
     9  O   -0.456777   0.042769
    10  C   -0.258581  -0.243594
    11  O   -0.024370  -0.003324
    12  H    0.085427   0.009250
    13  H    0.077488   0.041283
    14  H    0.005212   0.057543
    15  H    0.032220   0.094953
    16  H    0.141757  -0.008046
    17  H    0.109486  -0.019065
    18  H    0.054465   0.131590
    19  H   -0.030944   0.199300
    20  H    0.215408   0.000935
 Sum of Mulliken charges =  -1.00000   1.00000

 Dipole moment (field-independent basis, Debye):
    X=             -0.8866    Y=              0.4948    Z=              0.2821  Tot=              1.0538
 Quadrupole moment (field-independent basis, Debye-Ang):
   XX=            -99.1546   YY=            -83.0396   ZZ=            -77.0827
   XY=              5.8771   XZ=              0.5220   YZ=             -1.2929

 Summary of Natural Population Analysis:

                                       Natural Population
                Natural  -----------------------------------------------
    Atom  No    Charge         Core      Valence    Rydberg      Total
 -----------------------------------------------------------------------
      C    1   -0.20388      0.99964     2.19454    0.00971     3.20388
      C    2   -0.19008      0.99961     2.18292    0.00754     3.19008
      C    3    0.03004      0.99944     1.95877    0.01176     2.96996
      C    4    0.07667      0.99935     1.90882    0.01515     2.92333
      C    5   -0.12453      0.99951     2.11581    0.00921     3.12453
      C    6   -0.00365      0.99957     1.99519    0.00889     3.00365
      N    7   -0.09308      0.99949     2.58113    0.01245     3.59308
      C    8    0.35363      0.99966     1.62239    0.02432     2.64637
      O    9   -0.33897      0.99987     3.33259    0.00651     4.33897
      C   10   -0.23614      0.99958     2.22937    0.00719     3.23614
      O   11   -0.27995      0.99990     3.27221    0.00784     4.27995
      H   12    0.09190      0.00000     0.40713    0.00097     0.40810
      H   13    0.09405      0.00000     0.40246    0.00348     0.40595
      H   14    0.08816      0.00000     0.40958    0.00227     0.41184
      H   15    0.09440      0.00000     0.40385    0.00175     0.40560
      H   16    0.09714      0.00000     0.40180    0.00106     0.40286
      H   17    0.07980      0.00000     0.41919    0.00102     0.42020
      H   18    0.11348      0.00000     0.38498    0.00155     0.38652
      H   19    0.11378      0.00000     0.38417    0.00205     0.38622
      H   20    0.23722      0.00000     0.25969    0.00309     0.26278
 =======================================================================
   * Total *    0.00000     10.99561    28.86657    0.13782    40.00000

 Normal termination of Gaussian 16 at Tue Dec  8 19:35:03 2020.
