 Gaussian 16, Revision A.03,

 -----------------------------------------------------------
 # opt freq B3LYP/6-31G(d) empiricaldispersion=gd3bj scf=xqc
 -----------------------------------------------------------

 --------------------------------
 CID_141189884_JID_10278_neutraal
 --------------------------------
 Symbolic Z-matrix:
 Charge =  0 Multiplicity = 1

 SCF Done:  E(RB3LYP) =  -790.178377424     A.U. after   15 cycles
 SCF Done:  E(RB3LYP) =  -790.190928571     A.U. after   12 cycles
 SCF Done:  E(RB3LYP) =  -790.192550916     A.U. after   12 cycles
 SCF Done:  E(RB3LYP) =  -790.192899288     A.U. after   12 cycles
 SCF Done:  E(RB3LYP) =  -790.193216452     A.U. after   12 cycles
 SCF Done:  E(RB3LYP) =  -790.193668822     A.U. after   12 cycles
 SCF Done:  E(RB3LYP) =  -790.194333959     A.U. after   14 cycles
 SCF Done:  E(RB3LYP) =  -790.194153961     A.U. after   14 cycles
 SCF Done:  E(RB3LYP) =  -790.194791141     A.U. after   14 cycles
 SCF Done:  E(RB3LYP) =  -790.193911618     A.U. after   14 cycles
 SCF Done:  E(RB3LYP) =  -790.195238170     A.U. after    9 cycles
 SCF Done:  E(RB3LYP) =  -790.195277772     A.U. after   11 cycles
 SCF Done:  E(RB3LYP) =  -790.195279468     A.U. after    8 cycles
 SCF Done:  E(RB3LYP) =  -790.195279577     A.U. after    8 cycles
 Optimization completed.
    -- Stationary point found.
 Normal termination of Gaussian 16 at Sat Dec 12 15:20:11 2020.

 --------------------------------------------------------------------
 #N Geom=AllCheck Guess=TCheck SCRF=Check GenChk RB3LYP/6-31G(d) Freq
 --------------------------------------------------------------------

 Structure from the checkpoint file:  "JID_10278.chk"
 --------------------------------
 CID_141189884_JID_10278_neutraal
 --------------------------------
 Charge =  0 Multiplicity = 1

 SCF Done:  E(RB3LYP) =  -790.195279577     A.U. after    1 cycles

  Exact polarizability: 292.796   2.057 179.213  14.277   1.442 117.486
 Approx polarizability: 387.032  13.219 322.969  23.997  -0.104 196.065

                      1                      2                      3
                      A                      A                      A
 Frequencies --     34.7734                40.2593                72.2269
 Red. masses --      3.7472                 4.8111                 3.8677
 Frc consts  --      0.0027                 0.0046                 0.0119
 IR Inten    --      0.0758                 0.0250                 0.9041

                      4                      5                      6
                      A                      A                      A
 Frequencies --     86.8515               109.1038               160.7744
 Red. masses --      4.3180                 4.9402                 4.1391
 Frc consts  --      0.0192                 0.0346                 0.0630
 IR Inten    --      0.6728                 0.2851                 0.0182

                      7                      8                      9
                      A                      A                      A
 Frequencies --    209.3653               215.3032               306.9533
 Red. masses --      6.0267                 4.6165                 4.1275
 Frc consts  --      0.1556                 0.1261                 0.2291
 IR Inten    --      0.0907                 0.0993                 0.6497

                     10                     11                     12
                      A                      A                      A
 Frequencies --    323.6982               367.0127               412.2565
 Red. masses --      2.2688                 4.7806                 4.9882
 Frc consts  --      0.1401                 0.3794                 0.4995
 IR Inten    --      0.0070                 0.7752                 7.9093

                     13                     14                     15
                      A                      A                      A
 Frequencies --    423.0272               429.8818               450.1327
 Red. masses --      3.1580                 2.6849                 3.4297
 Frc consts  --      0.3330                 0.2923                 0.4094
 IR Inten    --      1.1153                 3.0914                 1.6791

                     16                     17                     18
                      A                      A                      A
 Frequencies --    483.1490               505.8696               546.3511
 Red. masses --      2.2955                 2.9641                 3.0526
 Frc consts  --      0.3157                 0.4469                 0.5369
 IR Inten    --      3.0877                 5.6416                 8.2444

                     19                     20                     21
                      A                      A                      A
 Frequencies --    576.9960               598.0615               621.3742
 Red. masses --      4.1095                 3.0918                 3.6296
 Frc consts  --      0.8061                 0.6516                 0.8257
 IR Inten    --      2.2024                 2.6482                 3.0484

                     22                     23                     24
                      A                      A                      A
 Frequencies --    631.6077               657.9160               678.7561
 Red. masses --      4.7487                 5.8477                 1.2772
 Frc consts  --      1.1161                 1.4913                 0.3467
 IR Inten    --      3.2879                 1.8497                 2.1499

                     25                     26                     27
                      A                      A                      A
 Frequencies --    689.7690               706.9449               719.4678
 Red. masses --      4.1786                 4.9343                 3.9581
 Frc consts  --      1.1714                 1.4529                 1.2072
 IR Inten    --      3.5097                 5.1394                 2.2567

                     28                     29                     30
                      A                      A                      A
 Frequencies --    735.1863               755.5893               760.5779
 Red. masses --      1.1912                 4.2202                 3.9838
 Frc consts  --      0.3793                 1.4196                 1.3578
 IR Inten    --     79.9580                59.1498                 1.0778

                     31                     32                     33
                      A                      A                      A
 Frequencies --    790.9006               813.9798               828.9175
 Red. masses --      4.3043                 1.2873                 2.2472
 Frc consts  --      1.5863                 0.5025                 0.9097
 IR Inten    --      3.6057                 1.7727                16.1296

                     34                     35                     36
                      A                      A                      A
 Frequencies --    837.0801               847.2322               864.0522
 Red. masses --      2.4420                 1.3038                 3.5383
 Frc consts  --      1.0081                 0.5514                 1.5564
 IR Inten    --      1.5042                 0.4708                 2.8747

                     37                     38                     39
                      A                      A                      A
 Frequencies --    866.7811               871.7291               893.7683
 Red. masses --      1.2994                 2.0338                 5.6527
 Frc consts  --      0.5752                 0.9106                 2.6605
 IR Inten    --      0.2116                25.7126                 0.2853

                     40                     41                     42
                      A                      A                      A
 Frequencies --    896.8933               916.9683               933.5569
 Red. masses --      1.9304                 2.2577                 2.6434
 Frc consts  --      0.9149                 1.1185                 1.3574
 IR Inten    --     14.1856                 9.2783                 4.3054

                     43                     44                     45
                      A                      A                      A
 Frequencies --    946.4399               951.4389               957.2183
 Red. masses --      1.8244                 3.7294                 1.8499
 Frc consts  --      0.9629                 1.9891                 0.9987
 IR Inten    --     16.9429                23.8543                 4.5112

                     46                     47                     48
                      A                      A                      A
 Frequencies --    964.6450               970.2542               983.4985
 Red. masses --      1.3412                 1.4073                 2.1000
 Frc consts  --      0.7353                 0.7806                 1.1968
 IR Inten    --      0.4769                 3.3988                 1.1879

                     49                     50                     51
                      A                      A                      A
 Frequencies --   1009.1576              1037.1633              1050.5428
 Red. masses --      1.6732                 2.6281                 1.6640
 Frc consts  --      1.0039                 1.6656                 1.0820
 IR Inten    --      3.0574                 0.8026                12.6469

                     52                     53                     54
                      A                      A                      A
 Frequencies --   1053.1402              1055.4981              1077.2210
 Red. masses --      1.6216                 1.5968                 2.1697
 Frc consts  --      1.0596                 1.0481                 1.4834
 IR Inten    --      3.2118                 3.3440                 4.5489

                     55                     56                     57
                      A                      A                      A
 Frequencies --   1103.9157              1104.5600              1109.3488
 Red. masses --      1.5930                 1.2545                 1.6966
 Frc consts  --      1.1438                 0.9018                 1.2302
 IR Inten    --     58.9578                13.8014                 0.9963

                     58                     59                     60
                      A                      A                      A
 Frequencies --   1127.7067              1139.3152              1147.9273
 Red. masses --      1.1824                 1.1568                 1.3355
 Frc consts  --      0.8859                 0.8847                 1.0369
 IR Inten    --      1.1790                 0.3832                 3.3695

                     61                     62                     63
                      A                      A                      A
 Frequencies --   1158.3363              1171.1981              1185.8481
 Red. masses --      2.5256                 1.3532                 1.2711
 Frc consts  --      1.9966                 1.0936                 1.0531
 IR Inten    --     11.6993                 4.4860                 6.2540

                     64                     65                     66
                      A                      A                      A
 Frequencies --   1218.3084              1225.2359              1233.3061
 Red. masses --      1.3880                 1.1537                 2.4136
 Frc consts  --      1.2138                 1.0204                 2.1630
 IR Inten    --      3.3781                 2.3417                 0.9158

                     67                     68                     69
                      A                      A                      A
 Frequencies --   1249.1402              1260.3222              1285.1167
 Red. masses --      1.4965                 1.7147                 1.5828
 Frc consts  --      1.3758                 1.6047                 1.5402
 IR Inten    --      2.9389                 0.2174                 2.9397

                     70                     71                     72
                      A                      A                      A
 Frequencies --   1287.1718              1307.3493              1315.7018
 Red. masses --      1.3653                 1.5056                 1.4600
 Frc consts  --      1.3328                 1.5161                 1.4891
 IR Inten    --      1.1971                 0.5345                 1.7476

                     73                     74                     75
                      A                      A                      A
 Frequencies --   1323.8691              1333.6199              1340.1007
 Red. masses --      1.4935                 2.0178                 1.9084
 Frc consts  --      1.5422                 2.1145                 2.0193
 IR Inten    --      4.1694                 0.3393                 4.2985

                     76                     77                     78
                      A                      A                      A
 Frequencies --   1349.9231              1354.4070              1367.8600
 Red. masses --      1.5529                 1.6001                 1.6625
 Frc consts  --      1.6673                 1.7294                 1.8327
 IR Inten    --      0.6883                 4.7676                 3.5074

                     79                     80                     81
                      A                      A                      A
 Frequencies --   1375.2883              1379.7631              1382.8624
 Red. masses --      3.2900                 3.0419                 1.8611
 Frc consts  --      3.6663                 3.4120                 2.0969
 IR Inten    --     54.2977                68.7951                 0.8084

                     82                     83                     84
                      A                      A                      A
 Frequencies --   1446.9703              1471.4117              1515.7876
 Red. masses --      4.5998                 3.0811                 1.0984
 Frc consts  --      5.6742                 3.9303                 1.4869
 IR Inten    --     10.0750                 3.6217                 1.6268

                     85                     86                     87
                      A                      A                      A
 Frequencies --   1527.8462              1530.9771              1544.4888
 Red. masses --      1.1097                 2.9917                 1.1059
 Frc consts  --      1.5263                 4.1314                 1.5543
 IR Inten    --      5.3417                76.7233                 1.4549

                     88                     89                     90
                      A                      A                      A
 Frequencies --   1573.7537              1584.3176              1585.0977
 Red. masses --      2.8766                 4.3182                 6.2565
 Frc consts  --      4.1976                 6.3862                 9.2618
 IR Inten    --    233.9440                 5.2809                 3.8526

                     91                     92                     93
                      A                      A                      A
 Frequencies --   1635.4757              1677.5769              3011.1514
 Red. masses --      6.5424                 5.8724                 1.0830
 Frc consts  --     10.3105                 9.7370                 5.7856
 IR Inten    --      5.4252                27.8710                16.1803

                     94                     95                     96
                      A                      A                      A
 Frequencies --   3045.1198              3059.7334              3065.5757
 Red. masses --      1.0686                 1.0606                 1.0606
 Frc consts  --      5.8383                 5.8503                 5.8725
 IR Inten    --     57.8557                36.8225                36.9396

                     97                     98                     99
                      A                      A                      A
 Frequencies --   3083.6504              3095.0068              3098.8757
 Red. masses --      1.0849                 1.0862                 1.0887
 Frc consts  --      6.0779                 6.1303                 6.1599
 IR Inten    --     46.1179                62.3151                43.6887

                    100                    101                    102
                      A                      A                      A
 Frequencies --   3103.0155              3111.0968              3144.6891
 Red. masses --      1.1053                 1.1056                 1.0960
 Frc consts  --      6.2703                 6.3046                 6.3856
 IR Inten    --     31.0643                43.8141                21.4248

                    103                    104                    105
                      A                      A                      A
 Frequencies --   3165.7298              3183.5988              3209.4342
 Red. masses --      1.0902                 1.0883                 1.0890
 Frc consts  --      6.4374                 6.4987                 6.6091
 IR Inten    --     27.7758                17.3983                 8.6206

                    106                    107                    108
                      A                      A                      A
 Frequencies --   3214.7897              3235.8154              3253.2414
 Red. masses --      1.0930                 1.0912                 1.0889
 Frc consts  --      6.6552                 6.7316                 6.7899
 IR Inten    --      9.1857                 8.0039                 4.8080

                    109                    110                    111
                      A                      A                      A
 Frequencies --   3265.7243              3288.0005              3292.3821
 Red. masses --      1.0944                 1.0979                 1.1043
 Frc consts  --      6.8771                 6.9932                 7.0530
 IR Inten    --      7.4232                 2.2350                 1.6632

 - Thermochemistry -
 -------------------
 Temperature   298.150 Kelvin.  Pressure   1.00000 Atm.
 Atom     1 has atomic number  6 and mass  12.00000

 Molecular mass:   261.15175 amu.
 Principal axes and moments of inertia in atomic units:
                           1         2         3
     Eigenvalues --  1430.78129********************
           X            0.99999   0.00032   0.00466
           Y           -0.00030   0.99999  -0.00439
           Z           -0.00466   0.00439   0.99998
 This molecule is an asymmetric top.
 Rotational symmetry number  1.
 Warning -- assumption of classical behavior for rotation
           may cause significant error
 Rotational temperatures (Kelvin)      0.06054     0.00735     0.00703
 Rotational constants (GHZ):           1.26137     0.15310     0.14644
 Zero-point vibrational energy     876773.9 (Joules/Mol)
                                  209.55399 (Kcal/Mol)
 Warning -- explicit consideration of  20 degrees of freedom as
           vibrations may cause significant error
 Vibrational temperatures:     50.03    57.92   103.92   124.96   156.98
          (Kelvin)            231.32   301.23   309.77   441.64   465.73
                              528.05   593.15   608.64   618.50   647.64
                              695.14   727.83   786.08   830.17   860.48
                              894.02   908.74   946.59   976.58   992.42
                             1017.14  1035.15  1057.77  1087.12  1094.30
                             1137.93  1171.14  1192.63  1204.37  1218.98
                             1243.18  1247.10  1254.22  1285.93  1290.43
                             1319.31  1343.18  1361.72  1368.91  1377.22
                             1387.91  1395.98  1415.03  1451.95  1492.25
                             1511.50  1515.23  1518.63  1549.88  1588.29
                             1589.22  1596.11  1622.52  1639.22  1651.61
                             1666.59  1685.09  1706.17  1752.87  1762.84
                             1774.45  1797.23  1813.32  1849.00  1851.95
                             1880.98  1893.00  1904.75  1918.78  1928.11
                             1942.24  1948.69  1968.05  1978.73  1985.17
                             1989.63  2081.87  2117.03  2180.88  2198.23
                             2202.73  2222.17  2264.28  2279.48  2280.60
                             2353.08  2413.66  4332.38  4381.25  4402.27
                             4410.68  4436.69  4453.02  4458.59  4464.55
                             4476.17  4524.51  4554.78  4580.49  4617.66
                             4625.37  4655.62  4680.69  4698.65  4730.70
                             4737.00

 Zero-point correction=                           0.333946 (Hartree/Particle)
 Thermal correction to Energy=                    0.348520
 Thermal correction to Enthalpy=                  0.349465
 Thermal correction to Gibbs Free Energy=         0.291440
 Sum of electronic and zero-point Energies=           -789.861334
 Sum of electronic and thermal Energies=              -789.846759
 Sum of electronic and thermal Enthalpies=            -789.845815
 Sum of electronic and thermal Free Energies=         -789.903840

                     E (Thermal)             CV                S
                      KCal/Mol        Cal/Mol-Kelvin    Cal/Mol-Kelvin
 Total                  218.700             62.676            122.124
 Electronic               0.000              0.000              0.000
 Translational            0.889              2.981             42.579
 Rotational               0.889              2.981             33.696
 Vibrational            216.922             56.714             45.848
 Vibration     1          0.594              1.983              5.537
 Vibration     2          0.594              1.981              5.246
 Vibration     3          0.598              1.967              4.092
 Vibration     4          0.601              1.958              3.730
 Vibration     5          0.606              1.942              3.285
 Vibration     6          0.622              1.890              2.541
 Vibration     7          0.642              1.826              2.049
 Vibration     8          0.645              1.818              1.998
 Vibration     9          0.697              1.660              1.379
 Vibration    10          0.708              1.628              1.291
 Vibration    11          0.740              1.540              1.092
 Vibration    12          0.776              1.444              0.919
 Vibration    13          0.785              1.420              0.882
 Vibration    14          0.791              1.405              0.859
 Vibration    15          0.809              1.361              0.795
 Vibration    16          0.839              1.287              0.702
 Vibration    17          0.861              1.237              0.644
 Vibration    18          0.902              1.148              0.552
 Vibration    19          0.933              1.081              0.491
 Vibration    20          0.956              1.036              0.453

 Optimization completed.
    -- Stationary point found.
 Normal termination of Gaussian 16 at Sat Dec 12 15:41:39 2020.

 ----------------------------------------------------------------------
 # B3LYP/6-311++G(d,p) empiricaldispersion=gd3bj scf=xqc pop=npa geom=c
 heck
 ----------------------------------------------------------------------

 ----------------------------------------
 CID_141189884_JID_10278_Energie_neutraal
 ----------------------------------------
 Structure from the checkpoint file:  "JID_10278.chk"
 Charge =  0 Multiplicity = 1

 SCF Done:  E(RB3LYP) =  -790.392494912     A.U. after   15 cycles
 Normal termination of Gaussian 16 at Sat Dec 12 15:51:26 2020.

 ----------------------------------------------------------------------
 # B3LYP/6-311++G(d,p) empiricaldispersion=gd3bj scf=xqc pop=npa geom=c
 heck
 ----------------------------------------------------------------------

 --------------------------------------
 CID_141189884_JID_10278_Energie_kation
 --------------------------------------
 Structure from the checkpoint file:  "JID_10278.chk"
 Charge =  1 Multiplicity = 2

 SCF Done:  E(UB3LYP) =  -790.120166514     A.U. after   33 cycles
 SCF Done:  E(UB3LYP) =  -790.121794368     a.u. after   10 cycles
 Normal termination of Gaussian 16 at Sat Dec 12 19:43:13 2020.
 Gaussian 16:  ES64L-G16RevA.03 25-Dec-2016

 ----------------------------------------------------------------------
 # B3LYP/6-311++G(d,p) empiricaldispersion=gd3bj scf=xqc pop=npa geom=c
 heck
 ----------------------------------------------------------------------

 -------------------------------------
 CID_141189884_JID_10278_Energie_anion
 -------------------------------------
 Structure from the checkpoint file:  "JID_10278.chk"
 Charge = -1 Multiplicity = 2

                         Standard orientation:
 ---------------------------------------------------------------------
 Center     Atomic      Atomic             Coordinates (Angstroms)
 Number     Number       Type             X           Y           Z
 ---------------------------------------------------------------------
      1          6           0       -4.188277   -0.734224   -1.045596
      2          6           0       -4.574915    0.124059    0.186752
      3          6           0       -4.048085    1.559016   -0.016142
      4          6           0       -2.571099    1.348478    0.333051
      5          6           0       -2.650755    0.483997    1.557850
      6          6           0       -3.613375   -0.432103    1.273888
      7          6           0       -2.991700   -1.712579    0.764963
      8          6           0       -2.734117   -1.085752   -0.687459
      9          6           0       -1.929661    0.267784   -0.700045
     10          6           0       -0.430312    0.146576   -0.505747
     11          6           0        0.377061    1.273199   -0.728698
     12          6           0        1.757101    1.229156   -0.573169
     13          6           0        2.377030    0.041163   -0.167684
     14          6           0        1.592681   -1.092011    0.056762
     15          6           0        0.211094   -1.036076   -0.122294
     16          7           0        3.779154   -0.009921    0.004529
     17          6           0        4.589340   -1.095352   -0.282312
     18          6           0        5.887382   -0.755118    0.017840
     19          6           0        5.874421    0.583122    0.513045
     20          6           0        4.570006    1.017513    0.490294
     21          1           0       -4.285413   -0.186920   -1.989273
     22          1           0       -4.798290   -1.641436   -1.115781
     23          1           0       -5.637354    0.067436    0.438494
     24          1           0       -4.212274    1.929638   -1.033381
     25          1           0       -4.498401    2.268523    0.686115
     26          1           0       -1.963627    2.258029    0.362844
     27          1           0       -1.744039    0.208222    2.093003
     28          1           0       -3.637787   -2.594137    0.663157
     29          1           0       -2.084685   -1.992289    1.303159
     30          1           0       -2.266658   -1.804550   -1.369488
     31          1           0       -2.089044    0.693978   -1.702007
     32          1           0       -0.083892    2.202039   -1.054976
     33          1           0        2.361871    2.103200   -0.791283
     34          1           0        2.060815   -2.011240    0.393183
     35          1           0       -0.367109   -1.935788    0.049076
     36          1           0        4.170329   -1.988279   -0.720358
     37          1           0        6.752677   -1.390246   -0.113577
     38          1           0        6.724475    1.156304    0.856923
     39          1           0        4.121401    1.941875    0.820678
 ---------------------------------------------------------------------

 SCF Done:  E(UB3LYP) =  -790.385254625     A.U. after   33 cycles
 SCF Done:  E(UB3LYP) =  -790.385254624     a.u. after    1 cycles

 The electronic state is 2-A.
 Alpha  occ. eigenvalues --  -14.27511 -10.11087 -10.10026 -10.10020 -10.07589
 Alpha  occ. eigenvalues --  -10.07236 -10.07143 -10.07110 -10.07061 -10.07028
 Alpha  occ. eigenvalues --  -10.06921 -10.06806 -10.06666 -10.06490 -10.06085
 Alpha  occ. eigenvalues --  -10.05371 -10.05225 -10.04903 -10.03109 -10.02355
 Alpha  occ. eigenvalues --   -0.89920  -0.77905  -0.76032  -0.70896  -0.66468
 Alpha  occ. eigenvalues --   -0.65391  -0.65149  -0.63287  -0.62628  -0.59935
 Alpha  occ. eigenvalues --   -0.53797  -0.52994  -0.51887  -0.49274  -0.47961
 Alpha  occ. eigenvalues --   -0.46481  -0.45893  -0.45605  -0.42933  -0.40793
 Alpha  occ. eigenvalues --   -0.37940  -0.37039  -0.36142  -0.35696  -0.35121
 Alpha  occ. eigenvalues --   -0.34048  -0.32763  -0.32437  -0.32132  -0.31657
 Alpha  occ. eigenvalues --   -0.30568  -0.30145  -0.29344  -0.29157  -0.27630
 Alpha  occ. eigenvalues --   -0.26441  -0.25270  -0.24946  -0.23497  -0.23092
 Alpha  occ. eigenvalues --   -0.22389  -0.21084  -0.19963  -0.19378  -0.19120
 Alpha  occ. eigenvalues --   -0.17559  -0.15680  -0.13257  -0.12272  -0.09229
 Alpha  occ. eigenvalues --    0.04620
 Alpha virt. eigenvalues --    0.06570   0.06879   0.07307   0.07527   0.08079
 Alpha virt. eigenvalues --    0.08211   0.08642   0.09245   0.09555   0.09842
 Alpha virt. eigenvalues --    0.10528   0.10783   0.11217   0.11481   0.11771

  Beta  occ. eigenvalues --  -14.27525 -10.10983 -10.09986 -10.09982 -10.07609
  Beta  occ. eigenvalues --  -10.07218 -10.07104 -10.07087 -10.07054 -10.07030
  Beta  occ. eigenvalues --  -10.06910 -10.06686 -10.06620 -10.06448 -10.06039
  Beta  occ. eigenvalues --  -10.05383 -10.05202 -10.04881 -10.02897 -10.02124
  Beta  occ. eigenvalues --   -0.89874  -0.77736  -0.75899  -0.70777  -0.66347
  Beta  occ. eigenvalues --   -0.65282  -0.65043  -0.63208  -0.62426  -0.59823
  Beta  occ. eigenvalues --   -0.53652  -0.52816  -0.51831  -0.49160  -0.47916
  Beta  occ. eigenvalues --   -0.46412  -0.45784  -0.45552  -0.42805  -0.40622
  Beta  occ. eigenvalues --   -0.37814  -0.36936  -0.36070  -0.35533  -0.35019
  Beta  occ. eigenvalues --   -0.33948  -0.32665  -0.32346  -0.32091  -0.31559
  Beta  occ. eigenvalues --   -0.30513  -0.30070  -0.29320  -0.29073  -0.27438
  Beta  occ. eigenvalues --   -0.26253  -0.25205  -0.24842  -0.23403  -0.22926
  Beta  occ. eigenvalues --   -0.22181  -0.20903  -0.19800  -0.19290  -0.19026
  Beta  occ. eigenvalues --   -0.17370  -0.15422  -0.13045  -0.11875  -0.07914
  Beta virt. eigenvalues --    0.06496   0.07186   0.07505   0.07614   0.08173
  Beta virt. eigenvalues --    0.08314   0.08424   0.09422   0.09502   0.09861
  Beta virt. eigenvalues --    0.09927   0.10674   0.11107   0.11314   0.11617

 Mulliken charges and spin densities:
               1          2
     1  C    0.465337  -1.111275
     2  C   -0.504246   0.682514
     3  C    0.099842  -1.047738
     4  C   -0.031056   0.411462
     5  C   -0.406160   0.086419
     6  C    0.249058   0.116030
     7  C   -0.627465  -0.108001
     8  C   -0.123021   0.449365
     9  C    0.147760  -0.348161
    10  C    1.174658  -0.282106
    11  C   -0.245034  -0.044753
    12  C    0.001772  -0.014760
    13  C   -0.650217  -0.361543
    14  C   -0.385683   0.153472
    15  C   -0.547132   0.235140
    16  N    0.422765   0.008115
    17  C   -0.119607   0.022792
    18  C   -0.182980  -0.079549
    19  C   -0.385551   0.098661
    20  C    0.007596  -0.089557
    21  H   -0.208362   0.335726
    22  H   -0.063440   0.199193
    23  H    0.133267   0.099054
    24  H   -0.168244   0.296126
    25  H   -0.048606   0.182547
    26  H    0.138332   0.093984
    27  H    0.112623  -0.005071
    28  H    0.080131   0.039391
    29  H    0.131717  -0.020514
    30  H   -0.130316   0.350829
    31  H    0.237106  -0.025074
    32  H   -0.142172   0.290075
    33  H   -0.022819   0.185967
    34  H    0.159984   0.016251
    35  H    0.014098   0.103230
    36  H    0.062966   0.052887
    37  H    0.111815   0.020420
    38  H    0.096073   0.035058
    39  H    0.145213  -0.026606
 Sum of Mulliken charges =  -1.00000   1.00000

 Dipole moment (field-independent basis, Debye):
    X=              5.1573    Y=             -0.9237    Z=              0.5543  Tot=              5.2686
 Quadrupole moment (field-independent basis, Debye-Ang):
   XX=           -210.6170   YY=           -141.5679   ZZ=           -152.3259
   XY=              1.9547   XZ=              1.8161   YZ=             -2.3613

 Summary of Natural Population Analysis:

                                       Natural Population
                Natural  -----------------------------------------------
    Atom  No    Charge         Core      Valence    Rydberg      Total
 -----------------------------------------------------------------------
      C    1   -0.18971      0.99961     2.17998    0.01012     3.18971
      C    2   -0.12658      0.99958     2.11425    0.01275     3.12658
      C    3   -0.19021      0.99960     2.18120    0.00941     3.19021
      C    4   -0.11119      0.99958     2.09942    0.01219     3.11119
      C    5   -0.05210      0.99932     2.03906    0.01372     3.05210
      C    6    0.01706      0.99928     1.97033    0.01333     2.98294
      C    7   -0.19276      0.99958     2.18364    0.00954     3.19276
      C    8   -0.11100      0.99960     2.09901    0.01239     3.11100
      C    9   -0.11288      0.99955     2.10140    0.01193     3.11288
      C   10    0.00821      0.99949     1.98197    0.01033     2.99179
      C   11   -0.09704      0.99952     2.08888    0.00863     3.09704
      C   12   -0.09610      0.99953     2.08783    0.00875     3.09610
      C   13    0.08608      0.99947     1.90336    0.01110     2.91392
      C   14   -0.11092      0.99953     2.10282    0.00856     3.11092
      C   15   -0.09150      0.99952     2.08374    0.00824     3.09150
      N   16   -0.19635      0.99963     2.68818    0.00854     3.69635
      C   17   -0.01151      0.99957     2.00157    0.01036     3.01151
      C   18   -0.15127      0.99958     2.14162    0.01007     3.15127
      C   19   -0.15079      0.99958     2.14112    0.01009     3.15079
      C   20   -0.01128      0.99957     2.00142    0.01029     3.01128
      H   21    0.09790      0.00000     0.40087    0.00122     0.40210
      H   22    0.09762      0.00000     0.40107    0.00132     0.40238
      H   23    0.10044      0.00000     0.39859    0.00097     0.39956
      H   24    0.09561      0.00000     0.40307    0.00132     0.40439
      H   25    0.10112      0.00000     0.39796    0.00092     0.39888
      H   26    0.09795      0.00000     0.40036    0.00169     0.40205
      H   27    0.09116      0.00000     0.40760    0.00124     0.40884
      H   28    0.08977      0.00000     0.40900    0.00122     0.41023
      H   29    0.09881      0.00000     0.40013    0.00105     0.40119
      H   30    0.10638      0.00000     0.39182    0.00179     0.39362
      H   31    0.10663      0.00000     0.39165    0.00172     0.39337
      H   32    0.09935      0.00000     0.39924    0.00141     0.40065
      H   33    0.10124      0.00000     0.39777    0.00099     0.39876
      H   34    0.09972      0.00000     0.39867    0.00160     0.40028
      H   35    0.10187      0.00000     0.39668    0.00145     0.39813
      H   36    0.10174      0.00000     0.39732    0.00094     0.39826
      H   37    0.10130      0.00000     0.39800    0.00071     0.39870
      H   38    0.10129      0.00000     0.39801    0.00070     0.39871
      H   39    0.10193      0.00000     0.39718    0.00090     0.39807
 =======================================================================
   * Total *    0.00000     19.99072    49.77578    0.23350    70.00000

 Normal termination of Gaussian 16 at Sat Dec 12 20:11:52 2020.
