 Gaussian 16, Revision A.03,

 -----------------------------------------------------------
 # opt freq B3LYP/6-31G(d) empiricaldispersion=gd3bj scf=xqc
 -----------------------------------------------------------

 -------------------------------
 CID_129736043_JID_4667_neutraal
 -------------------------------
 Symbolic Z-matrix:
 Charge =  0 Multiplicity = 1

 SCF Done:  E(RB3LYP) =  -574.032143749     A.U. after   14 cycles
 SCF Done:  E(RB3LYP) =  -574.034620332     A.U. after   12 cycles
 SCF Done:  E(RB3LYP) =  -574.035542233     A.U. after   12 cycles
 SCF Done:  E(RB3LYP) =  -574.035970329     A.U. after   12 cycles
 SCF Done:  E(RB3LYP) =  -574.036083273     A.U. after   11 cycles
 SCF Done:  E(RB3LYP) =  -574.036126675     A.U. after   11 cycles
 SCF Done:  E(RB3LYP) =  -574.036137199     A.U. after    9 cycles
 SCF Done:  E(RB3LYP) =  -574.036146572     A.U. after    9 cycles
 SCF Done:  E(RB3LYP) =  -574.036153374     A.U. after   10 cycles
 SCF Done:  E(RB3LYP) =  -574.036157553     A.U. after    9 cycles
 SCF Done:  E(RB3LYP) =  -574.036159673     A.U. after    9 cycles
 SCF Done:  E(RB3LYP) =  -574.036159974     A.U. after    7 cycles
 SCF Done:  E(RB3LYP) =  -574.036160019     A.U. after    7 cycles
 Optimization completed.
    -- Stationary point found.
 Normal termination of Gaussian 16 at Thu Dec 10 10:18:45 2020.

 --------------------------------------------------------------------
 #N Geom=AllCheck Guess=TCheck SCRF=Check GenChk RB3LYP/6-31G(d) Freq
 --------------------------------------------------------------------

 Structure from the checkpoint file:  "JID_4667.chk"
 -------------------------------
 CID_129736043_JID_4667_neutraal
 -------------------------------
 Charge =  0 Multiplicity = 1

 SCF Done:  E(RB3LYP) =  -574.036160019     A.U. after    1 cycles

  Exact polarizability: 240.738  -2.266 135.079   0.081  -5.955  61.958
 Approx polarizability: 349.061   7.750 225.238  -3.532 -13.004  98.508

                      1                      2                      3
                      A                      A                      A
 Frequencies --     31.9763                61.8511                69.0675
 Red. masses --      3.6538                 4.9584                 4.4225
 Frc consts  --      0.0022                 0.0112                 0.0124
 IR Inten    --      0.6904                 0.3804                 1.3868

                      4                      5                      6
                      A                      A                      A
 Frequencies --    117.9375               167.1774               175.9085
 Red. masses --      3.2244                 2.9820                 1.1237
 Frc consts  --      0.0264                 0.0491                 0.0205
 IR Inten    --      1.5189                 0.8819                 0.7855

                      7                      8                      9
                      A                      A                      A
 Frequencies --    212.2386               258.9373               268.0633
 Red. masses --      4.4340                 2.6119                 3.4132
 Frc consts  --      0.1177                 0.1032                 0.1445
 IR Inten    --      0.9558                 1.4433                 1.0693

                     10                     11                     12
                      A                      A                      A
 Frequencies --    346.3410               414.8363               461.1778
 Red. masses --      4.2889                 3.4396                 3.0448
 Frc consts  --      0.3031                 0.3487                 0.3816
 IR Inten    --      0.2068                 0.3707                 2.0077

                     13                     14                     15
                      A                      A                      A
 Frequencies --    481.6196               544.1337               546.7793
 Red. masses --      3.8144                 3.7539                 4.7457
 Frc consts  --      0.5213                 0.6548                 0.8359
 IR Inten    --      2.2966                 1.5148                 3.4408

                     16                     17                     18
                      A                      A                      A
 Frequencies --    617.6545               631.6984               668.4229
 Red. masses --      6.5649                 3.5749                 3.6498
 Frc consts  --      1.4756                 0.8405                 0.9608
 IR Inten    --     12.0285                 2.0184                19.5073

                     19                     20                     21
                      A                      A                      A
 Frequencies --    706.9874               735.1510               756.8781
 Red. masses --      1.2757                 2.8744                 3.7693
 Frc consts  --      0.3757                 0.9153                 1.2722
 IR Inten    --     13.1262                 5.8122                18.2432

                     22                     23                     24
                      A                      A                      A
 Frequencies --    767.1512               798.2422               829.6478
 Red. masses --      1.4704                 1.3974                 4.2632
 Frc consts  --      0.5098                 0.5246                 1.7289
 IR Inten    --     26.0663                22.4924                 3.3180

                     25                     26                     27
                      A                      A                      A
 Frequencies --    849.7843               857.6544               877.1453
 Red. masses --      1.6254                 1.5522                 1.9513
 Frc consts  --      0.6915                 0.6727                 0.8845
 IR Inten    --      0.3700                 4.5392                 0.3631

                     28                     29                     30
                      A                      A                      A
 Frequencies --    891.3644               918.2634               946.4303
 Red. masses --      2.0932                 6.0832                 1.3749
 Frc consts  --      0.9799                 3.0221                 0.7256
 IR Inten    --      0.7519                 9.0055                 0.4778

                     31                     32                     33
                      A                      A                      A
 Frequencies --    971.3420               983.2368              1020.5455
 Red. masses --      1.1030                 1.2524                 1.5763
 Frc consts  --      0.6132                 0.7134                 0.9673
 IR Inten    --     37.2808                 1.4528                 3.1384

                     34                     35                     36
                      A                      A                      A
 Frequencies --   1049.2361              1074.8764              1085.4644
 Red. masses --      3.1676                 1.5259                 2.1685
 Frc consts  --      2.0546                 1.0387                 1.5054
 IR Inten    --     69.0329                 2.8690                 3.2098

                     37                     38                     39
                      A                      A                      A
 Frequencies --   1111.0441              1133.6038              1147.0165
 Red. masses --      1.5327                 2.0405                 2.0533
 Frc consts  --      1.1147                 1.5449                 1.5916
 IR Inten    --     32.1292                 5.5856                17.0279

                     40                     41                     42
                      A                      A                      A
 Frequencies --   1198.6750              1218.1748              1247.4105
 Red. masses --      1.1027                 1.8485                 1.9793
 Frc consts  --      0.9335                 1.6162                 1.8146
 IR Inten    --      0.2063                 4.5467                64.2105

                     43                     44                     45
                      A                      A                      A
 Frequencies --   1262.9706              1291.5560              1327.9973
 Red. masses --      2.1254                 1.8933                 1.9000
 Frc consts  --      1.9975                 1.8608                 1.9742
 IR Inten    --      3.2445                14.5221                73.3218

                     46                     47                     48
                      A                      A                      A
 Frequencies --   1334.9379              1346.7853              1363.8325
 Red. masses --      1.7430                 3.8796                 1.6242
 Frc consts  --      1.8300                 4.1460                 1.7800
 IR Inten    --     40.2299                 0.6870                 6.1125

                     49                     50                     51
                      A                      A                      A
 Frequencies --   1406.2231              1432.1381              1445.0625
 Red. masses --      2.4693                 4.3349                 1.2407
 Frc consts  --      2.8769                 5.2384                 1.5265
 IR Inten    --      8.7224                 1.0760                 0.2796

                     52                     53                     54
                      A                      A                      A
 Frequencies --   1494.8403              1517.4926              1526.2372
 Red. masses --      1.9819                 1.0475                 1.6580
 Frc consts  --      2.6092                 1.4211                 2.2756
 IR Inten    --      2.5750                 7.9496                15.9462

                     55                     56                     57
                      A                      A                      A
 Frequencies --   1532.4862              1544.1332              1567.2577
 Red. masses --      2.0895                 2.3411                 4.3992
 Frc consts  --      2.8913                 3.2889                 6.3665
 IR Inten    --    221.8684                32.6557                56.6728

                     58                     59                     60
                      A                      A                      A
 Frequencies --   1631.1219              1663.3433              1729.9375
 Red. masses --      5.5434                 5.5647                 5.4369
 Frc consts  --      8.6896                 9.0711                 9.5865
 IR Inten    --      0.5616                 6.9422               116.9971

                     61                     62                     63
                      A                      A                      A
 Frequencies --   3039.0322              3091.3894              3130.4177
 Red. masses --      1.0406                 1.0979                 1.1001
 Frc consts  --      5.6627                 6.1818                 6.3517
 IR Inten    --     22.5760                19.7956                18.4720

                     64                     65                     66
                      A                      A                      A
 Frequencies --   3179.6234              3187.5373              3196.9372
 Red. masses --      1.0863                 1.0877                 1.0897
 Frc consts  --      6.4708                 6.5113                 6.5621
 IR Inten    --     12.6701                 3.1913                14.3875

                     67                     68                     69
                      A                      A                      A
 Frequencies --   3199.1989              3211.5040              3215.8999
 Red. masses --      1.0914                 1.0970                 1.0896
 Frc consts  --      6.5812                 6.6661                 6.6390
 IR Inten    --     36.7733                17.5606                18.9846

                     70                     71                     72
                      A                      A                      A
 Frequencies --   3261.1331              3265.7985              3308.6599
 Red. masses --      1.0952                 1.0948                 1.1016
 Frc consts  --      6.8626                 6.8796                 7.1052
 IR Inten    --      3.8725                 4.7895                 2.3498

 - Thermochemistry -
 -------------------
 Temperature   298.150 Kelvin.  Pressure   1.00000 Atm.
 Atom     1 has atomic number  6 and mass  12.00000

 Molecular mass:   184.10005 amu.
 Principal axes and moments of inertia in atomic units:
                           1         2         3
     Eigenvalues --   913.464845947.037626720.23888
           X            1.00000   0.00092   0.00266
           Y           -0.00091   0.99999  -0.00351
           Z           -0.00266   0.00351   0.99999
 This molecule is an asymmetric top.
 Rotational symmetry number  1.
 Warning -- assumption of classical behavior for rotation
           may cause significant error
 Rotational temperatures (Kelvin)      0.09482     0.01456     0.01289
 Rotational constants (GHZ):           1.97571     0.30347     0.26855
 Zero-point vibrational energy     561985.5 (Joules/Mol)
                                  134.31775 (Kcal/Mol)
 Warning -- explicit consideration of  16 degrees of freedom as
           vibrations may cause significant error
 Vibrational temperatures:     46.01    88.99    99.37   169.69   240.53
          (Kelvin)            253.09   305.36   372.55   385.68   498.31
                              596.86   663.53   692.94   782.89   786.69
                              888.67   908.87   961.71  1017.20  1057.72
                             1088.98  1103.76  1148.49  1193.68  1222.65
                             1233.97  1262.02  1282.47  1321.18  1361.70
                             1397.54  1414.66  1468.34  1509.62  1546.51
                             1561.74  1598.54  1631.00  1650.30  1724.63
                             1752.68  1794.75  1817.13  1858.26  1910.69
                             1920.68  1937.72  1962.25  2023.24  2060.53
                             2079.12  2150.74  2183.33  2195.91  2204.91
                             2221.66  2254.93  2346.82  2393.18  2488.99
                             4372.49  4447.82  4503.97  4574.77  4586.16
                             4599.68  4602.93  4620.64  4626.96  4692.04
                             4698.76  4760.42

 Zero-point correction=                           0.214049 (Hartree/Particle)
 Thermal correction to Energy=                    0.226015
 Thermal correction to Enthalpy=                  0.226959
 Thermal correction to Gibbs Free Energy=         0.174565
 Sum of electronic and zero-point Energies=           -573.822111
 Sum of electronic and thermal Energies=              -573.810145
 Sum of electronic and thermal Enthalpies=            -573.809201
 Sum of electronic and thermal Free Energies=         -573.861595

                     E (Thermal)             CV                S
                      KCal/Mol        Cal/Mol-Kelvin    Cal/Mol-Kelvin
 Total                  141.826             46.105            110.271
 Electronic               0.000              0.000              0.000
 Translational            0.889              2.981             41.537
 Rotational               0.889              2.981             31.968
 Vibrational            140.049             40.144             36.766
 Vibration     1          0.594              1.983              5.703
 Vibration     2          0.597              1.973              4.397
 Vibration     3          0.598              1.969              4.180
 Vibration     4          0.608              1.934              3.134
 Vibration     5          0.624              1.883              2.467
 Vibration     6          0.628              1.872              2.371
 Vibration     7          0.643              1.822              2.024
 Vibration     8          0.668              1.748              1.669
 Vibration     9          0.673              1.732              1.609
 Vibration    10          0.724              1.583              1.183
 Vibration    11          0.778              1.438              0.910
 Vibration    12          0.819              1.336              0.763
 Vibration    13          0.838              1.291              0.706
 Vibration    14          0.899              1.153              0.556
 Vibration    15          0.902              1.147              0.551
 Vibration    16          0.977              0.995              0.420

                           ! Non-Optimized Parameters !
 Normal termination of Gaussian 16 at Thu Dec 10 10:25:00 2020.

 ----------------------------------------------------------------------
 # B3LYP/6-311++G(d,p) empiricaldispersion=gd3bj scf=xqc pop=npa geom=c
 heck
 ----------------------------------------------------------------------

 ---------------------------------------
 CID_129736043_JID_4667_Energie_neutraal
 ---------------------------------------
 Structure from the checkpoint file:  "JID_4667.chk"
 Charge =  0 Multiplicity = 1

 SCF Done:  E(RB3LYP) =  -574.184940888     A.U. after   16 cycles
 Normal termination of Gaussian 16 at Thu Dec 10 10:28:02 2020.

 ----------------------------------------------------------------------
 # B3LYP/6-311++G(d,p) empiricaldispersion=gd3bj scf=xqc pop=npa geom=c
 heck
 ----------------------------------------------------------------------

 -------------------------------------
 CID_129736043_JID_4667_Energie_kation
 -------------------------------------
 Structure from the checkpoint file:  "JID_4667.chk"
 Charge =  1 Multiplicity = 2

 SCF Done:  E(UB3LYP) =  -573.899485414     A.U. after   25 cycles
 Normal termination of Gaussian 16 at Thu Dec 10 10:35:03 2020.
 Gaussian 16:  ES64L-G16RevA.03 25-Dec-2016

 ----------------------------------------------------------------------
 # B3LYP/6-311++G(d,p) empiricaldispersion=gd3bj scf=xqc pop=npa geom=c
 heck
 ----------------------------------------------------------------------

 ------------------------------------
 CID_129736043_JID_4667_Energie_anion
 ------------------------------------
 Structure from the checkpoint file:  "JID_4667.chk"
 Charge = -1 Multiplicity = 2

                         Standard orientation:
 ---------------------------------------------------------------------
 Center     Atomic      Atomic             Coordinates (Angstroms)
 Number     Number       Type             X           Y           Z
 ---------------------------------------------------------------------
      1          6           0        1.979323    2.380324    0.299214
      2          6           0        2.375301    0.936474    0.104351
      3          6           0        3.721257    0.567746    0.174274
      4          6           0        4.125209   -0.757900    0.018981
      5          6           0        3.169222   -1.744035   -0.222267
      6          6           0        1.825146   -1.394427   -0.304238
      7          6           0        1.403187   -0.065433   -0.129287
      8          6           0       -0.018879    0.290230   -0.190886
      9          6           0       -1.019612   -0.543321    0.132638
     10          7           0       -2.384908   -0.247247    0.038980
     11          6           0       -3.005996    0.856236   -0.531968
     12          6           0       -4.347589    0.666034   -0.334915
     13          7           0       -4.585038   -0.518084    0.339321
     14          6           0       -3.398614   -1.035175    0.545069
     15          1           0        2.855349    2.996598    0.520294
     16          1           0        1.502261    2.798298   -0.597108
     17          1           0        1.268154    2.497658    1.125359
     18          1           0        4.466040    1.337640    0.360069
     19          1           0        5.178844   -1.015392    0.076732
     20          1           0        3.469128   -2.778481   -0.363222
     21          1           0        1.087355   -2.156975   -0.536342
     22          1           0       -0.261601    1.302399   -0.500470
     23          1           0       -0.830008   -1.539532    0.518596
     24          1           0       -2.446949    1.633877   -1.026433
     25          1           0       -5.161445    1.307733   -0.643470
     26          1           0       -3.185239   -1.967013    1.052102
 ---------------------------------------------------------------------

 SCF Done:  E(UB3LYP) =  -574.190101412     A.U. after   27 cycles

 The electronic state is 2-A.
 Alpha  occ. eigenvalues --  -14.24278 -14.16306 -10.08252 -10.06177 -10.05384
 Alpha  occ. eigenvalues --  -10.04669 -10.04553 -10.03961 -10.03590 -10.03433
 Alpha  occ. eigenvalues --  -10.03048 -10.02555 -10.02504 -10.01396  -0.88535
 Alpha  occ. eigenvalues --   -0.75772  -0.72130  -0.64652  -0.63628  -0.61814
 Alpha  occ. eigenvalues --   -0.58582  -0.55575  -0.50504  -0.47037  -0.46125
 Alpha  occ. eigenvalues --   -0.44423  -0.42690  -0.38788  -0.36957  -0.33456
 Alpha  occ. eigenvalues --   -0.32167  -0.31260  -0.30925  -0.30549  -0.29775
 Alpha  occ. eigenvalues --   -0.28343  -0.27890  -0.27688  -0.26262  -0.24365
 Alpha  occ. eigenvalues --   -0.22671  -0.20579  -0.20314  -0.19444  -0.14845
 Alpha  occ. eigenvalues --   -0.14082  -0.11588  -0.11207  -0.07664   0.04971
 Alpha virt. eigenvalues --    0.08335   0.08968   0.09481   0.10159   0.10731
 Alpha virt. eigenvalues --    0.11368   0.11700   0.12356   0.13056   0.13343
 Alpha virt. eigenvalues --    0.14010   0.14241   0.14399   0.15468   0.16035

  Beta  occ. eigenvalues --  -14.24379 -14.16299 -10.08041 -10.06063 -10.05324
  Beta  occ. eigenvalues --  -10.04674 -10.04115 -10.03867 -10.03645 -10.03457
  Beta  occ. eigenvalues --  -10.02908 -10.02423 -10.02251 -10.01262  -0.88413
  Beta  occ. eigenvalues --   -0.75554  -0.71855  -0.64272  -0.63333  -0.61516
  Beta  occ. eigenvalues --   -0.58184  -0.55437  -0.49950  -0.46854  -0.45984
  Beta  occ. eigenvalues --   -0.44198  -0.42485  -0.38438  -0.36825  -0.33303
  Beta  occ. eigenvalues --   -0.31938  -0.30887  -0.30705  -0.30363  -0.29598
  Beta  occ. eigenvalues --   -0.28267  -0.27789  -0.27529  -0.26193  -0.24167
  Beta  occ. eigenvalues --   -0.21976  -0.20428  -0.20134  -0.18474  -0.14795
  Beta  occ. eigenvalues --   -0.12986  -0.11037  -0.10307  -0.06229
  Beta virt. eigenvalues --    0.08278   0.08913   0.09421   0.10106   0.10143
  Beta virt. eigenvalues --    0.10681   0.11522   0.11727   0.12483   0.13203
  Beta virt. eigenvalues --    0.13471   0.14088   0.14288   0.15013   0.15564

 Mulliken charges and spin densities:
               1          2
     1  C   -0.467267  -0.021246
     2  C    0.329981   0.135583
     3  C   -0.614896  -0.018961
     4  C   -0.397459   0.199528
     5  C   -0.317898  -0.030506
     6  C   -0.828263   0.092679
     7  C    1.535644   0.097913
     8  C   -0.413154   0.080592
     9  C   -0.565406   0.255163
    10  N    0.170082  -0.038463
    11  C   -0.012411   0.075884
    12  C   -0.383133   0.064362
    13  N   -0.214394  -0.002170
    14  C   -0.020290   0.135075
    15  H    0.113837   0.010202
    16  H    0.133197   0.003116
    17  H    0.113851   0.030353
    18  H    0.072733   0.000002
    19  H    0.100702  -0.015969
    20  H    0.118699   0.003739
    21  H    0.096294  -0.007519
    22  H    0.069127  -0.013574
    23  H    0.077350  -0.019442
    24  H    0.095089  -0.007276
    25  H    0.106703  -0.002571
    26  H    0.101282  -0.006493
 Sum of Mulliken charges =  -1.00000   1.00000

 Dipole moment (field-independent basis, Debye):
    X=              2.6846    Y=              1.3055    Z=             -0.3430  Tot=              3.0048
 Quadrupole moment (field-independent basis, Debye-Ang):
   XX=           -155.1258   YY=            -89.6352   ZZ=            -95.1776
   XY=             -1.8946   XZ=              3.7571   YZ=             -1.9714

 Summary of Natural Population Analysis:

                                       Natural Population
                Natural  -----------------------------------------------
    Atom  No    Charge         Core      Valence    Rydberg      Total
 -----------------------------------------------------------------------
      C    1   -0.29233      0.99965     2.28815    0.00453     3.29233
      C    2    0.00322      0.99949     1.98928    0.00801     2.99678
      C    3   -0.11625      0.99953     2.10777    0.00895     3.11625
      C    4   -0.07074      0.99957     2.06113    0.01004     3.07074
      C    5   -0.12351      0.99957     2.11467    0.00927     3.12351
      C    6   -0.07279      0.99954     2.06457    0.00869     3.07279
      C    7   -0.00529      0.99948     1.99722    0.00860     3.00529
      C    8   -0.10696      0.99954     2.09914    0.00829     3.10696
      C    9    0.08517      0.99951     1.90581    0.00951     2.91483
      N   10   -0.21189      0.99965     2.70231    0.00994     3.71189
      C   11   -0.02358      0.99957     2.01304    0.01098     3.02358
      C   12   -0.03419      0.99960     2.01981    0.01478     3.03419
      N   13   -0.26981      0.99973     2.75769    0.01239     3.76981
      C   14    0.14115      0.99966     1.84227    0.01692     2.85885
      H   15    0.09334      0.00000     0.40574    0.00091     0.40666
      H   16    0.09839      0.00000     0.40056    0.00105     0.40161
      H   17    0.10370      0.00000     0.39517    0.00112     0.39630
      H   18    0.08769      0.00000     0.41081    0.00150     0.41231
      H   19    0.08595      0.00000     0.41237    0.00168     0.41405
      H   20    0.09006      0.00000     0.40885    0.00110     0.40994
      H   21    0.09250      0.00000     0.40590    0.00161     0.40750
      H   22    0.09160      0.00000     0.40706    0.00133     0.40840
      H   23    0.08376      0.00000     0.41479    0.00145     0.41624
      H   24    0.09967      0.00000     0.39938    0.00096     0.40033
      H   25    0.08748      0.00000     0.41150    0.00102     0.41252
      H   26    0.08368      0.00000     0.41526    0.00106     0.41632
 =======================================================================
   * Total *   -0.00000     13.99408    34.85020    0.15572    49.00000

 Normal termination of Gaussian 16 at Thu Dec 10 10:43:08 2020.
