 Gaussian 16, Revision A.03,

 -----------------------------------------------------------
 # opt freq B3LYP/6-31G(d) empiricaldispersion=gd3bj scf=xqc
 -----------------------------------------------------------

 ------------------------------
 CID_71695546_JID_2609_neutraal
 ------------------------------
 Symbolic Z-matrix:
 Charge =  0 Multiplicity = 1

 SCF Done:  E(RB3LYP) =  -539.754427175     A.U. after   12 cycles
 SCF Done:  E(RB3LYP) =  -539.756651166     A.U. after   11 cycles
 SCF Done:  E(RB3LYP) =  -539.753541176     A.U. after   11 cycles
 SCF Done:  E(RB3LYP) =  -539.756605746     A.U. after   11 cycles
 SCF Done:  E(RB3LYP) =  -539.757652187     A.U. after    8 cycles
 SCF Done:  E(RB3LYP) =  -539.758265798     A.U. after   10 cycles
 SCF Done:  E(RB3LYP) =  -539.758218109     A.U. after   10 cycles
 SCF Done:  E(RB3LYP) =  -539.758439628     A.U. after   10 cycles
 SCF Done:  E(RB3LYP) =  -539.758488974     A.U. after    9 cycles
 SCF Done:  E(RB3LYP) =  -539.758550241     A.U. after   10 cycles
 SCF Done:  E(RB3LYP) =  -539.762470894     A.U. after   11 cycles
 SCF Done:  E(RB3LYP) =  -539.762951000     A.U. after   10 cycles
 SCF Done:  E(RB3LYP) =  -539.763081236     A.U. after   10 cycles
 SCF Done:  E(RB3LYP) =  -539.763100995     A.U. after    9 cycles
 SCF Done:  E(RB3LYP) =  -539.763104220     A.U. after    9 cycles
 SCF Done:  E(RB3LYP) =  -539.763104747     A.U. after    7 cycles
 Optimization completed.
    -- Stationary point found.
 Normal termination of Gaussian 16 at Wed Dec  9 17:59:49 2020.

 --------------------------------------------------------------------
 #N Geom=AllCheck Guess=TCheck SCRF=Check GenChk RB3LYP/6-31G(d) Freq
 --------------------------------------------------------------------

 Structure from the checkpoint file:  "JID_2609.chk"
 ------------------------------
 CID_71695546_JID_2609_neutraal
 ------------------------------
 Charge =  0 Multiplicity = 1

 SCF Done:  E(RB3LYP) =  -539.763104747     A.U. after    1 cycles

  Exact polarizability: 129.030  -1.060 107.738   2.935  -0.988  95.254
 Approx polarizability: 154.340   0.864 152.579   4.296  -0.713 147.308

                      1                      2                      3
                      A                      A                      A
 Frequencies --     41.9198                71.6046                96.4936
 Red. masses --      3.3791                 3.4600                 3.2978
 Frc consts  --      0.0035                 0.0105                 0.0181
 IR Inten    --      1.2513                 1.5397                 0.1087

                      4                      5                      6
                      A                      A                      A
 Frequencies --    114.5015               172.9035               230.8991
 Red. masses --      3.0223                 3.0631                 2.1852
 Frc consts  --      0.0233                 0.0540                 0.0686
 IR Inten    --      1.2799                 0.8555                 3.8580

                      7                      8                      9
                      A                      A                      A
 Frequencies --    246.1646               258.7604               285.8097
 Red. masses --      2.0615                 2.4473                 1.6962
 Frc consts  --      0.0736                 0.0965                 0.0816
 IR Inten    --      0.1663                 1.6546                20.6062

                     10                     11                     12
                      A                      A                      A
 Frequencies --    309.2714               312.8230               385.0924
 Red. masses --      2.3344                 2.8208                 2.0979
 Frc consts  --      0.1316                 0.1626                 0.1833
 IR Inten    --      9.8371                10.6931                 2.4093

                     13                     14                     15
                      A                      A                      A
 Frequencies --    391.9548               405.9143               444.0990
 Red. masses --      1.9753                 2.9799                 2.1555
 Frc consts  --      0.1788                 0.2893                 0.2505
 IR Inten    --      2.4322                 9.3786                 4.6995

                     16                     17                     18
                      A                      A                      A
 Frequencies --    471.1017               494.9631               600.9618
 Red. masses --      2.7667                 2.0071                 1.8934
 Frc consts  --      0.3618                 0.2897                 0.4029
 IR Inten    --      0.8062                 1.4243                 6.9427

                     19                     20                     21
                      A                      A                      A
 Frequencies --    629.1461               765.9520               775.1488
 Red. masses --      2.4692                 1.0821                 3.0421
 Frc consts  --      0.5759                 0.3740                 1.0770
 IR Inten    --      2.1266               132.7053                 2.7688

                     22                     23                     24
                      A                      A                      A
 Frequencies --    789.0109               834.3434               861.5588
 Red. masses --      3.1192                 1.4669                 1.7366
 Frc consts  --      1.1441                 0.6017                 0.7595
 IR Inten    --      4.7352                 0.5668                46.8613

                     25                     26                     27
                      A                      A                      A
 Frequencies --    868.5677               882.4272               907.7070
 Red. masses --      2.6953                 1.4094                 2.0845
 Frc consts  --      1.1980                 0.6466                 1.0119
 IR Inten    --      0.8740                 4.9084                 5.7064

                     28                     29                     30
                      A                      A                      A
 Frequencies --    921.3144               951.3737               986.0383
 Red. masses --      1.8099                 1.9075                 1.7121
 Frc consts  --      0.9052                 1.0172                 0.9808
 IR Inten    --     12.6736                 0.6185                10.1195

                     31                     32                     33
                      A                      A                      A
 Frequencies --    993.0520              1019.5614              1030.4526
 Red. masses --      1.3063                 2.3173                 1.8636
 Frc consts  --      0.7590                 1.4192                 1.1659
 IR Inten    --      0.6359                13.9892                29.8340

                     34                     35                     36
                      A                      A                      A
 Frequencies --   1060.0730              1062.7460              1088.1883
 Red. masses --      2.0161                 1.7428                 1.5990
 Frc consts  --      1.3348                 1.1597                 1.1156
 IR Inten    --      3.1428                10.3785                15.7081

                     37                     38                     39
                      A                      A                      A
 Frequencies --   1098.0687              1132.0173              1146.6005
 Red. masses --      2.6058                 2.3900                 2.2748
 Frc consts  --      1.8512                 1.8045                 1.7620
 IR Inten    --     60.6447                 3.6843                42.0993

                     40                     41                     42
                      A                      A                      A
 Frequencies --   1149.3001              1183.3115              1192.7617
 Red. masses --      2.2493                 1.1778                 1.4163
 Frc consts  --      1.7505                 0.9717                 1.1872
 IR Inten    --     46.6594                 7.2831                18.4320

                     43                     44                     45
                      A                      A                      A
 Frequencies --   1213.0257              1234.2452              1275.7662
 Red. masses --      2.2448                 1.4523                 1.2609
 Frc consts  --      1.9461                 1.3035                 1.2091
 IR Inten    --     16.8029                 8.3381                11.9905

                     46                     47                     48
                      A                      A                      A
 Frequencies --   1303.7076              1311.7632              1334.9629
 Red. masses --      1.2454                 1.2047                 1.2839
 Frc consts  --      1.2471                 1.2213                 1.3481
 IR Inten    --      4.2466                 4.1374                 6.9616

                     49                     50                     51
                      A                      A                      A
 Frequencies --   1343.1029              1353.2704              1362.5627
 Red. masses --      1.2468                 1.4923                 1.5698
 Frc consts  --      1.3251                 1.6102                 1.7172
 IR Inten    --      9.5379                15.5213                 9.6898

                     52                     53                     54
                      A                      A                      A
 Frequencies --   1372.6699              1390.4271              1400.3511
 Red. masses --      1.3053                 1.2875                 1.3980
 Frc consts  --      1.4491                 1.4666                 1.6152
 IR Inten    --      0.1333                16.1337                 0.1020

                     55                     56                     57
                      A                      A                      A
 Frequencies --   1401.4847              1403.4917              1410.8989
 Red. masses --      1.4428                 1.4574                 1.4007
 Frc consts  --      1.6697                 1.6914                 1.6428
 IR Inten    --      4.3403                 1.4125                 3.9675

                     58                     59                     60
                      A                      A                      A
 Frequencies --   1428.6753              1443.2639              1447.2193
 Red. masses --      1.3728                 1.4244                 1.4412
 Frc consts  --      1.6509                 1.7482                 1.7784
 IR Inten    --      4.5985                 8.0892                12.7670

                     61                     62                     63
                      A                      A                      A
 Frequencies --   1502.9003              1505.1998              1506.2271
 Red. masses --      1.1004                 1.0983                 1.0891
 Frc consts  --      1.4644                 1.4661                 1.4558
 IR Inten    --     12.9971                 1.4958                 6.7204

                     64                     65                     66
                      A                      A                      A
 Frequencies --   1513.3082              1519.4117              1523.4828
 Red. masses --      1.0870                 1.1440                 1.1123
 Frc consts  --      1.4667                 1.5561                 1.5210
 IR Inten    --      8.7612                64.0182                 3.9554

                     67                     68                     69
                      A                      A                      A
 Frequencies --   1526.0062              1539.2957              1547.0665
 Red. masses --      1.1013                 1.1048                 1.0873
 Frc consts  --      1.5111                 1.5424                 1.5333
 IR Inten    --     20.4567                 3.6717                 4.7994

                     70                     71                     72
                      A                      A                      A
 Frequencies --   1689.9179              2901.4520              2912.2986
 Red. masses --      1.0872                 1.0732                 1.0715
 Frc consts  --      1.8293                 5.3231                 5.3545
 IR Inten    --     33.2583                29.6945               128.7933

                     73                     74                     75
                      A                      A                      A
 Frequencies --   2985.1988              3021.5168              3033.6316
 Red. masses --      1.0748                 1.0673                 1.0674
 Frc consts  --      5.6434                 5.7411                 5.7875
 IR Inten    --     74.3917                28.7659                35.4428

                     76                     77                     78
                      A                      A                      A
 Frequencies --   3039.3621              3042.6201              3043.6886
 Red. masses --      1.0618                 1.0610                 1.0616
 Frc consts  --      5.7790                 5.7869                 5.7946
 IR Inten    --     28.1232                28.5250                23.8931

                     79                     80                     81
                      A                      A                      A
 Frequencies --   3051.5849              3069.9716              3073.8961
 Red. masses --      1.0846                 1.0871                 1.0895
 Frc consts  --      5.9506                 6.0365                 6.0654
 IR Inten    --     34.7631                44.3781                53.3294

                     82                     83                     84
                      A                      A                      A
 Frequencies --   3077.4286              3083.3842              3085.2862
 Red. masses --      1.0907                 1.1010                 1.1054
 Frc consts  --      6.0858                 6.1670                 6.1996
 IR Inten    --     29.1574                52.1962                27.3624

                     85                     86                     87
                      A                      A                      A
 Frequencies --   3089.2216              3091.6063              3106.3613
 Red. masses --      1.0967                 1.1036                 1.0895
 Frc consts  --      6.1662                 6.2151                 6.1941
 IR Inten    --     41.7296                88.1688                46.0727

                     88                     89                     90
                      A                      A                      A
 Frequencies --   3468.6690              3517.8788              3554.9129
 Red. masses --      1.0502                 1.0662                 1.0928
 Frc consts  --      7.4448                 7.7744                 8.1365
 IR Inten    --      1.5212               248.7357                 2.0195

 - Thermochemistry -
 -------------------
 Temperature   298.150 Kelvin.  Pressure   1.00000 Atm.
 Atom     1 has atomic number  6 and mass  12.00000

 Molecular mass:   172.15756 amu.
 Principal axes and moments of inertia in atomic units:
                           1         2         3
     Eigenvalues --  1006.016983698.666044204.06931
           X            0.99993  -0.01200   0.00072
           Y            0.01201   0.99987  -0.01044
           Z           -0.00059   0.01045   0.99995
 This molecule is an asymmetric top.
 Rotational symmetry number  1.
 Warning -- assumption of classical behavior for rotation
           may cause significant error
 Rotational temperatures (Kelvin)      0.08610     0.02342     0.02060
 Rotational constants (GHZ):           1.79395     0.48794     0.42928
 Zero-point vibrational energy     781865.1 (Joules/Mol)
                                  186.87024 (Kcal/Mol)
 Warning -- explicit consideration of  18 degrees of freedom as
           vibrations may cause significant error
 Vibrational temperatures:     60.31   103.02   138.83   164.74   248.77
          (Kelvin)            332.21   354.18   372.30   411.22   444.97
                              450.08   554.06   563.94   584.02   638.96
                              677.81   712.14   864.65   905.20  1102.03
                             1115.27  1135.21  1200.43  1239.59  1249.68
                             1269.62  1305.99  1325.57  1368.81  1418.69
                             1428.78  1466.92  1482.59  1525.21  1529.05
                             1565.66  1579.88  1628.72  1649.70  1653.59
                             1702.52  1716.12  1745.27  1775.80  1835.54
                             1875.74  1887.33  1920.71  1932.43  1947.05
                             1960.42  1974.97  2000.51  2014.79  2016.42
                             2019.31  2029.97  2055.55  2076.53  2082.23
                             2162.34  2165.65  2167.12  2177.31  2186.09
                             2191.95  2195.58  2214.70  2225.88  2431.41
                             4174.54  4190.15  4295.04  4347.29  4364.72
                             4372.96  4377.65  4379.19  4390.55  4417.00
                             4422.65  4427.73  4436.30  4439.04  4444.70
                             4448.13  4469.36  4990.64  5061.44  5114.73

 Zero-point correction=                           0.297797 (Hartree/Particle)
 Thermal correction to Energy=                    0.310261
 Thermal correction to Enthalpy=                  0.311205
 Thermal correction to Gibbs Free Energy=         0.259183
 Sum of electronic and zero-point Energies=           -539.465308
 Sum of electronic and thermal Energies=              -539.452844
 Sum of electronic and thermal Enthalpies=            -539.451900
 Sum of electronic and thermal Free Energies=         -539.503922

                     E (Thermal)             CV                S
                      KCal/Mol        Cal/Mol-Kelvin    Cal/Mol-Kelvin
 Total                  194.692             48.837            109.490
 Electronic               0.000              0.000              0.000
 Translational            0.889              2.981             41.337
 Rotational               0.889              2.981             31.126
 Vibrational            192.914             42.875             37.027
 Vibration     1          0.595              1.980              5.166
 Vibration     2          0.598              1.968              4.109
 Vibration     3          0.603              1.952              3.524
 Vibration     4          0.607              1.937              3.191
 Vibration     5          0.626              1.876              2.404
 Vibration     6          0.653              1.794              1.872
 Vibration     7          0.661              1.769              1.758
 Vibration     8          0.668              1.748              1.670
 Vibration     9          0.684              1.700              1.499
 Vibration    10          0.699              1.656              1.366
 Vibration    11          0.701              1.649              1.347
 Vibration    12          0.754              1.502              1.019
 Vibration    13          0.759              1.487              0.993
 Vibration    14          0.771              1.457              0.941
 Vibration    15          0.804              1.374              0.814
 Vibration    16          0.828              1.314              0.734
 Vibration    17          0.851              1.261              0.671
 Vibration    18          0.959              1.030              0.448

 Optimization completed.
    -- Stationary point found.
 Normal termination of Gaussian 16 at Wed Dec  9 18:09:36 2020.

 ----------------------------------------------------------------------
 # B3LYP/6-311++G(d,p) empiricaldispersion=gd3bj scf=xqc pop=npa geom=c
 heck
 ----------------------------------------------------------------------

 --------------------------------------
 CID_71695546_JID_2609_Energie_neutraal
 --------------------------------------
 Structure from the checkpoint file:  "JID_2609.chk"
 Charge =  0 Multiplicity = 1

 SCF Done:  E(RB3LYP) =  -539.930933323     A.U. after   13 cycles
 Normal termination of Gaussian 16 at Wed Dec  9 18:14:20 2020.

 ----------------------------------------------------------------------
 # B3LYP/6-311++G(d,p) empiricaldispersion=gd3bj scf=xqc pop=npa geom=c
 heck
 ----------------------------------------------------------------------

 ------------------------------------
 CID_71695546_JID_2609_Energie_kation
 ------------------------------------
 Structure from the checkpoint file:  "JID_2609.chk"
 Charge =  1 Multiplicity = 2

 SCF Done:  E(UB3LYP) =  -539.657394674     A.U. after   19 cycles
 Normal termination of Gaussian 16 at Wed Dec  9 18:22:48 2020.
 Gaussian 16:  ES64L-G16RevA.03 25-Dec-2016

 ----------------------------------------------------------------------
 # B3LYP/6-311++G(d,p) empiricaldispersion=gd3bj scf=xqc pop=npa geom=c
 heck
 ----------------------------------------------------------------------

 -----------------------------------
 CID_71695546_JID_2609_Energie_anion
 -----------------------------------
 Structure from the checkpoint file:  "JID_2609.chk"
 Charge = -1 Multiplicity = 2

                         Standard orientation:
 ---------------------------------------------------------------------
 Center     Atomic      Atomic             Coordinates (Angstroms)
 Number     Number       Type             X           Y           Z
 ---------------------------------------------------------------------
      1          6           0        3.447768    0.559050    0.476887
      2          6           0        2.625640    1.421116   -0.488081
      3          6           0        1.136107    1.081150   -0.375007
      4          7           0        0.921047   -0.338550   -0.613099
      5          6           0        1.640927   -1.189839    0.324730
      6          6           0        3.147619   -0.926460    0.246618
      7          6           0       -0.438626   -0.769764   -0.915782
      8          6           0       -1.422404   -1.041389    0.248825
      9          6           0       -1.754572    0.168692    1.139688
     10          6           0       -2.367755    1.364161    0.404235
     11          7           0       -3.604046    0.966586   -0.299660
     12          8           0       -2.605667   -1.628721   -0.281493
     13          1           0        4.519388    0.761308    0.361218
     14          1           0        3.184378    0.824870    1.511557
     15          1           0        2.776874    2.488117   -0.281544
     16          1           0        2.951079    1.232214   -1.518825
     17          1           0        0.779428    1.412465    0.621849
     18          1           0        0.565548    1.644236   -1.122677
     19          1           0        1.425101   -2.234923    0.073416
     20          1           0        1.307304   -1.035938    1.371887
     21          1           0        3.503701   -1.223164   -0.748023
     22          1           0        3.669844   -1.547811    0.984736
     23          1           0       -0.882351   -0.036743   -1.601005
     24          1           0       -0.382303   -1.714427   -1.471938
     25          1           0       -0.976915   -1.808922    0.893738
     26          1           0       -2.458130   -0.175442    1.910756
     27          1           0       -0.853892    0.505022    1.666299
     28          1           0       -2.525746    2.189694    1.117807
     29          1           0       -1.670608    1.735630   -0.353238
     30          1           0       -4.332874    0.757555    0.382023
     31          1           0       -3.951263    1.736026   -0.869126
     32          1           0       -3.110458   -0.876540   -0.660332
 ---------------------------------------------------------------------

 SCF Done:  E(UB3LYP) =  -539.919018666     A.U. after   26 cycles

 The electronic state is 2-A.
 Alpha  occ. eigenvalues --  -18.99493 -14.20189 -14.19622 -10.10862 -10.09593
 Alpha  occ. eigenvalues --  -10.09081 -10.08783 -10.08497 -10.07130 -10.07049
 Alpha  occ. eigenvalues --  -10.06672 -10.06179  -0.90323  -0.82765  -0.78217
 Alpha  occ. eigenvalues --   -0.70336  -0.65830  -0.65780  -0.60544  -0.54724
 Alpha  occ. eigenvalues --   -0.52929  -0.51491  -0.47381  -0.45175  -0.40239
 Alpha  occ. eigenvalues --   -0.39580  -0.38616  -0.37034  -0.36170  -0.35570
 Alpha  occ. eigenvalues --   -0.33828  -0.32418  -0.32086  -0.30947  -0.30221
 Alpha  occ. eigenvalues --   -0.29249  -0.28272  -0.26566  -0.25718  -0.24750
 Alpha  occ. eigenvalues --   -0.24266  -0.23422  -0.22546  -0.21800  -0.21633
 Alpha  occ. eigenvalues --   -0.17082  -0.14468  -0.10673   0.04394
 Alpha virt. eigenvalues --    0.06115   0.07389   0.07829   0.08435   0.08941
 Alpha virt. eigenvalues --    0.09705   0.10458   0.10521   0.11025   0.11441
 Alpha virt. eigenvalues --    0.12231   0.12935   0.13078   0.13832   0.14178

  Beta  occ. eigenvalues --  -18.99487 -14.20182 -14.19558 -10.10861 -10.09584
  Beta  occ. eigenvalues --  -10.09066 -10.08746 -10.08488 -10.07120 -10.07033
  Beta  occ. eigenvalues --  -10.06659 -10.06167  -0.90312  -0.82749  -0.78112
  Beta  occ. eigenvalues --   -0.70311  -0.65781  -0.65754  -0.60500  -0.54666
  Beta  occ. eigenvalues --   -0.52890  -0.51435  -0.47335  -0.45134  -0.40199
  Beta  occ. eigenvalues --   -0.39531  -0.38539  -0.37008  -0.36130  -0.35537
  Beta  occ. eigenvalues --   -0.33795  -0.32372  -0.32060  -0.30913  -0.30180
  Beta  occ. eigenvalues --   -0.29215  -0.28235  -0.26536  -0.25689  -0.24727
  Beta  occ. eigenvalues --   -0.24226  -0.23393  -0.22519  -0.21767  -0.21610
  Beta  occ. eigenvalues --   -0.17066  -0.14407  -0.10633
  Beta virt. eigenvalues --    0.06430   0.07544   0.07768   0.08134   0.09031
  Beta virt. eigenvalues --    0.09568   0.10207   0.10589   0.10749   0.11580
  Beta virt. eigenvalues --    0.11808   0.12501   0.13080   0.13345   0.14156

 Mulliken charges and spin densities:
               1          2
     1  C   -0.091018  -0.188680
     2  C    0.060275  -0.527594
     3  C   -0.097033  -0.134211
     4  N    0.057130   0.116067
     5  C   -0.164360  -0.128454
     6  C    0.025322  -0.455263
     7  C    0.275398  -0.528214
     8  C   -0.532167   0.207223
     9  C   -0.118082   0.019584
    10  C    1.558103  -2.046825
    11  N   -0.575763   0.124232
    12  O   -0.244654   0.000381
    13  H   -0.271328   0.440112
    14  H   -0.074750   0.190914
    15  H   -0.273119   0.431516
    16  H    0.073325   0.053779
    17  H    0.298122  -0.195663
    18  H   -0.094681   0.255339
    19  H    0.112047   0.045188
    20  H   -0.007915   0.130111
    21  H    0.057355   0.074134
    22  H   -0.042361   0.186590
    23  H    0.105388   0.051865
    24  H    0.136809   0.048258
    25  H    0.101158   0.074106
    26  H   -0.213997   0.402398
    27  H    0.023668   0.109085
    28  H   -0.608643   0.769589
    29  H   -0.363294   0.538561
    30  H   -0.062922   0.311219
    31  H   -0.374700   0.632090
    32  H    0.326685  -0.007434
 Sum of Mulliken charges =  -1.00000   1.00000

 Dipole moment (field-independent basis, Debye):
    X=              5.1861    Y=             -4.5861    Z=             -0.2926  Tot=              6.9292
 Quadrupole moment (field-independent basis, Debye-Ang):
   XX=           -159.7941   YY=           -123.3103   ZZ=           -106.6657
   XY=              7.3441   XZ=             -2.5131   YZ=             -1.1690

 Summary of Natural Population Analysis:

                                       Natural Population
                Natural  -----------------------------------------------
    Atom  No    Charge         Core      Valence    Rydberg      Total
 -----------------------------------------------------------------------
      C    1   -0.19089      0.99963     2.18309    0.00817     3.19089
      C    2   -0.19248      0.99963     2.18348    0.00937     3.19248
      C    3   -0.08346      0.99961     2.07124    0.01262     3.08346
      N    4   -0.28499      0.99971     2.77336    0.01193     3.78499
      C    5   -0.08213      0.99961     2.07315    0.00937     3.08213
      C    6   -0.19388      0.99963     2.18432    0.00993     3.19388
      C    7   -0.09096      0.99959     2.07930    0.01207     3.09096
      C    8    0.05685      0.99956     1.93077    0.01282     2.94315
      C    9   -0.20883      0.99960     2.19939    0.00984     3.20883
      C   10   -0.09196      0.99963     2.07984    0.01250     3.09196
      N   11   -0.43741      0.99977     2.92561    0.01203     3.93741
      O   12   -0.39081      0.99990     3.38378    0.00712     4.39081
      H   13    0.09815      0.00000     0.40068    0.00117     0.40185
      H   14    0.09353      0.00000     0.40503    0.00144     0.40647
      H   15    0.09928      0.00000     0.39977    0.00095     0.40072
      H   16    0.09418      0.00000     0.40430    0.00152     0.40582
      H   17    0.07769      0.00000     0.42030    0.00201     0.42231
      H   18    0.09804      0.00000     0.40012    0.00184     0.40196
      H   19    0.09590      0.00000     0.40299    0.00111     0.40410
      H   20    0.07826      0.00000     0.42002    0.00171     0.42174
      H   21    0.09458      0.00000     0.40399    0.00143     0.40542
      H   22    0.09647      0.00000     0.40267    0.00086     0.40353
      H   23    0.09657      0.00000     0.40205    0.00139     0.40343
      H   24    0.09582      0.00000     0.40296    0.00122     0.40418
      H   25    0.08109      0.00000     0.41710    0.00181     0.41891
      H   26    0.09900      0.00000     0.39977    0.00123     0.40100
      H   27    0.10289      0.00000     0.39535    0.00176     0.39711
      H   28    0.08705      0.00000     0.40948    0.00347     0.41295
      H   29    0.09137      0.00000     0.40624    0.00238     0.40863
      H   30    0.17937      0.00000     0.31772    0.00291     0.32063
      H   31    0.18722      0.00000     0.30642    0.00636     0.31278
      H   32    0.24448      0.00000     0.25195    0.00357     0.25552
 =======================================================================
   * Total *    0.00000     11.99586    35.83623    0.16790    48.00000

 Normal termination of Gaussian 16 at Wed Dec  9 18:33:52 2020.
