 Gaussian 16, Revision A.03,

 -----------------------------------------------------------
 # opt freq B3LYP/6-31G(d) empiricaldispersion=gd3bj scf=xqc
 -----------------------------------------------------------

 -------------------------------
 CID_154307518_JID_5352_neutraal
 -------------------------------
 Symbolic Z-matrix:
 Charge =  0 Multiplicity = 1

 SCF Done:  E(RB3LYP) =  -594.812181253     A.U. after   16 cycles
 SCF Done:  E(RB3LYP) =  -594.832591647     A.U. after   13 cycles
 SCF Done:  E(RB3LYP) =  -594.836515349     A.U. after   13 cycles
 SCF Done:  E(RB3LYP) =  -594.837002539     A.U. after   12 cycles
 SCF Done:  E(RB3LYP) =  -594.837151600     A.U. after   12 cycles
 SCF Done:  E(RB3LYP) =  -594.837177834     A.U. after   10 cycles
 SCF Done:  E(RB3LYP) =  -594.837183834     A.U. after    9 cycles
 SCF Done:  E(RB3LYP) =  -594.837184645     A.U. after    8 cycles
 SCF Done:  E(RB3LYP) =  -594.837184890     A.U. after    8 cycles
 Optimization completed.
    -- Stationary point found.
 Normal termination of Gaussian 16 at Thu Dec 10 15:34:18 2020.

 --------------------------------------------------------------------
 #N Geom=AllCheck Guess=TCheck SCRF=Check GenChk RB3LYP/6-31G(d) Freq
 --------------------------------------------------------------------

 Structure from the checkpoint file:  "JID_5352.chk"
 -------------------------------
 CID_154307518_JID_5352_neutraal
 -------------------------------
 Charge =  0 Multiplicity = 1

 SCF Done:  E(RB3LYP) =  -594.837184891     A.U. after    1 cycles

  Exact polarizability: 236.610   0.453 167.209   3.547  -0.390  65.523
 Approx polarizability: 377.709   8.388 317.427  11.867  -4.322 111.734

                      1                      2                      3
                      A                      A                      A
 Frequencies --     87.3803                95.0598               170.8743
 Red. masses --      4.6196                 3.8529                 3.9987
 Frc consts  --      0.0208                 0.0205                 0.0688
 IR Inten    --      0.2067                 1.2264                 0.5832

                      4                      5                      6
                      A                      A                      A
 Frequencies --    209.7759               239.3038               287.8032
 Red. masses --      4.2189                 4.5668                 2.5041
 Frc consts  --      0.1094                 0.1541                 0.1222
 IR Inten    --      2.5923                 1.5643                 1.6049

                      7                      8                      9
                      A                      A                      A
 Frequencies --    364.2707               383.2378               409.8224
 Red. masses --      3.7258                 4.6543                 4.6197
 Frc consts  --      0.2913                 0.4028                 0.4571
 IR Inten    --      2.5111                 9.3913                 9.4714

                     10                     11                     12
                      A                      A                      A
 Frequencies --    418.2588               454.0222               465.2350
 Red. masses --      3.6625                 3.7612                 3.4499
 Frc consts  --      0.3775                 0.4568                 0.4400
 IR Inten    --      3.0066                 3.7146                 8.5280

                     13                     14                     15
                      A                      A                      A
 Frequencies --    491.0777               529.2738               536.2513
 Red. masses --      2.2764                 2.5758                 2.1868
 Frc consts  --      0.3234                 0.4251                 0.3705
 IR Inten    --     21.3816                18.4661                25.1815

                     16                     17                     18
                      A                      A                      A
 Frequencies --    569.6353               581.7491               620.1104
 Red. masses --      3.3107                 4.3932                 2.8325
 Frc consts  --      0.6329                 0.8760                 0.6417
 IR Inten    --      3.0000                 2.1224                 3.7798

                     19                     20                     21
                      A                      A                      A
 Frequencies --    683.4602               695.2728               712.6845
 Red. masses --      4.3453                 2.5272                 2.5544
 Frc consts  --      1.1959                 0.7198                 0.7644
 IR Inten    --      7.0839                14.2471                33.1273

                     22                     23                     24
                      A                      A                      A
 Frequencies --    749.9179               766.2154               780.6411
 Red. masses --      1.5489                 2.3838                 2.2572
 Frc consts  --      0.5132                 0.8245                 0.8105
 IR Inten    --     36.0429                22.5258                23.7592

                     25                     26                     27
                      A                      A                      A
 Frequencies --    795.8341               827.8149               863.3418
 Red. masses --      3.4005                 1.5482                 4.0008
 Frc consts  --      1.2689                 0.6251                 1.7570
 IR Inten    --      5.8425                36.7849                 0.8431

                     28                     29                     30
                      A                      A                      A
 Frequencies --    866.1043               880.2031               918.2959
 Red. masses --      3.9524                 1.8053                 1.6668
 Frc consts  --      1.7469                 0.8241                 0.8281
 IR Inten    --      4.5631                 5.6061                15.8296

                     31                     32                     33
                      A                      A                      A
 Frequencies --    945.2903               947.9281               957.8919
 Red. masses --      1.3374                 1.3265                 1.2976
 Frc consts  --      0.7041                 0.7023                 0.7015
 IR Inten    --     10.4707                 1.3353                 0.2824

                     34                     35                     36
                      A                      A                      A
 Frequencies --    985.3848               987.9280              1039.8437
 Red. masses --      1.3196                 3.4662                 3.4407
 Frc consts  --      0.7549                 1.9932                 2.1920
 IR Inten    --      0.1882                 1.9102                14.8280

                     37                     38                     39
                      A                      A                      A
 Frequencies --   1070.1344              1103.2910              1125.9415
 Red. masses --      2.1968                 2.6021                 1.6789
 Frc consts  --      1.4822                 1.8662                 1.2540
 IR Inten    --      1.8979                 1.3303                27.8858

                     40                     41                     42
                      A                      A                      A
 Frequencies --   1181.0184              1199.5678              1208.2162
 Red. masses --      1.2967                 1.1869                 1.4790
 Frc consts  --      1.0656                 1.0063                 1.2720
 IR Inten    --      0.0150                 0.3323                 0.0232

                     43                     44                     45
                      A                      A                      A
 Frequencies --   1248.9846              1263.5735              1293.7495
 Red. masses --      2.2052                 1.5791                 1.6770
 Frc consts  --      2.0268                 1.4855                 1.6538
 IR Inten    --      0.4514                 4.3225                 9.1353

                     46                     47                     48
                      A                      A                      A
 Frequencies --   1309.3981              1310.7342              1333.4902
 Red. masses --      2.0297                 1.7502                 1.3270
 Frc consts  --      2.0504                 1.7716                 1.3903
 IR Inten    --      5.1934                32.4658                 0.1637

                     49                     50                     51
                      A                      A                      A
 Frequencies --   1360.3885              1397.6847              1408.4366
 Red. masses --      3.3664                 4.9440                 4.8061
 Frc consts  --      3.6707                 5.6904                 5.6172
 IR Inten    --     24.2008               139.9340                14.0389

                     52                     53                     54
                      A                      A                      A
 Frequencies --   1439.7620              1472.7616              1505.3303
 Red. masses --      1.6759                 2.1912                 2.2009
 Frc consts  --      2.0469                 2.8002                 2.9385
 IR Inten    --     24.4637                 0.6191                25.2906

                     55                     56                     57
                      A                      A                      A
 Frequencies --   1543.1334              1566.8098              1582.9503
 Red. masses --      2.0094                 3.5024                 4.7140
 Frc consts  --      2.8191                 5.0659                 6.9594
 IR Inten    --    114.1036                15.8890                47.3158

                     58                     59                     60
                      A                      A                      A
 Frequencies --   1614.7447              1643.9222              1660.6297
 Red. masses --      4.2261                 5.2503                 3.1775
 Frc consts  --      6.4923                 8.3598                 5.1628
 IR Inten    --      6.1865                23.1721                13.6260

                     61                     62                     63
                      A                      A                      A
 Frequencies --   1677.4792              3116.3187              3121.6687
 Red. masses --      5.3793                 1.0877                 1.0849
 Frc consts  --      8.9185                 6.2237                 6.2289
 IR Inten    --      5.2959                18.5481                28.9680

                     64                     65                     66
                      A                      A                      A
 Frequencies --   3162.1879              3180.8662              3183.3906
 Red. masses --      1.0850                 1.0855                 1.0957
 Frc consts  --      6.3921                 6.4707                 6.5423
 IR Inten    --      8.7466                 4.0054                63.6797

                     67                     68                     69
                      A                      A                      A
 Frequencies --   3185.8791              3188.7265              3199.4283
 Red. masses --      1.0872                 1.0871                 1.0929
 Frc consts  --      6.5014                 6.5123                 6.5913
 IR Inten    --      1.5328                 2.6465                32.6028

                     70                     71                     72
                      A                      A                      A
 Frequencies --   3208.5173              3212.0940              3639.8815
 Red. masses --      1.0953                 1.0973                 1.0754
 Frc consts  --      6.6437                 6.6702                 8.3945
 IR Inten    --     27.6097                27.0596                22.6425

 - Thermochemistry -
 -------------------
 Temperature   298.150 Kelvin.  Pressure   1.00000 Atm.
 Atom     1 has atomic number  6 and mass  12.00000

 Molecular mass:   193.08915 amu.
 Principal axes and moments of inertia in atomic units:
                           1         2         3
     Eigenvalues --  1324.635083842.168115034.03253
           X            0.99998  -0.00650  -0.00060
           Y            0.00650   0.99998   0.00171
           Z            0.00059  -0.00171   1.00000
 This molecule is an asymmetric top.
 Rotational symmetry number  1.
 Warning -- assumption of classical behavior for rotation
           may cause significant error
 Rotational temperatures (Kelvin)      0.06539     0.02254     0.01721
 Rotational constants (GHZ):           1.36244     0.46972     0.35851
 Zero-point vibrational energy     551707.5 (Joules/Mol)
                                  131.86125 (Kcal/Mol)
 Warning -- explicit consideration of  18 degrees of freedom as
           vibrations may cause significant error
 Vibrational temperatures:    125.72   136.77   245.85   301.82   344.30
          (Kelvin)            414.08   524.10   551.39   589.64   601.78
                              653.24   669.37   706.55   761.51   771.55
                              819.58   837.01   892.20   983.35  1000.34
                             1025.39  1078.96  1102.41  1123.17  1145.03
                             1191.04  1242.16  1246.13  1266.42  1321.22
                             1360.06  1363.86  1378.19  1417.75  1421.41
                             1496.10  1539.68  1587.39  1619.98  1699.22
                             1725.91  1738.35  1797.01  1818.00  1861.42
                             1883.93  1885.85  1918.59  1957.30  2010.96
                             2026.43  2071.50  2118.98  2165.83  2220.22
                             2254.29  2277.51  2323.26  2365.24  2389.28
                             2413.52  4483.69  4491.38  4549.68  4576.56
                             4580.19  4583.77  4587.87  4603.26  4616.34
                             4621.49  5236.98

 Zero-point correction=                           0.210134 (Hartree/Particle)
 Thermal correction to Energy=                    0.220957
 Thermal correction to Enthalpy=                  0.221901
 Thermal correction to Gibbs Free Energy=         0.173931
 Sum of electronic and zero-point Energies=           -594.627051
 Sum of electronic and thermal Energies=              -594.616228
 Sum of electronic and thermal Enthalpies=            -594.615283
 Sum of electronic and thermal Free Energies=         -594.663254

                     E (Thermal)             CV                S
                      KCal/Mol        Cal/Mol-Kelvin    Cal/Mol-Kelvin
 Total                  138.653             46.182            100.962
 Electronic               0.000              0.000              0.000
 Translational            0.889              2.981             41.679
 Rotational               0.889              2.981             31.616
 Vibrational            136.875             40.220             27.667
 Vibration     1          0.601              1.958              3.718
 Vibration     2          0.603              1.953              3.553
 Vibration     3          0.626              1.878              2.426
 Vibration     4          0.642              1.826              2.046
 Vibration     5          0.657              1.780              1.808
 Vibration     6          0.685              1.696              1.487
 Vibration     7          0.738              1.546              1.104
 Vibration     8          0.752              1.506              1.026
 Vibration     9          0.774              1.449              0.927
 Vibration    10          0.781              1.431              0.898
 Vibration    11          0.812              1.352              0.784
 Vibration    12          0.823              1.327              0.751
 Vibration    13          0.847              1.270              0.681
 Vibration    14          0.884              1.185              0.589
 Vibration    15          0.891              1.170              0.573
 Vibration    16          0.926              1.097              0.505
 Vibration    17          0.939              1.071              0.482
 Vibration    18          0.980              0.989              0.416

 Optimization completed.
    -- Stationary point found.
 Normal termination of Gaussian 16 at Thu Dec 10 15:42:29 2020.

 ----------------------------------------------------------------------
 # B3LYP/6-311++G(d,p) empiricaldispersion=gd3bj scf=xqc pop=npa geom=c
 heck
 ----------------------------------------------------------------------

 ---------------------------------------
 CID_154307518_JID_5352_Energie_neutraal
 ---------------------------------------
 Structure from the checkpoint file:  "JID_5352.chk"
 Charge =  0 Multiplicity = 1

 SCF Done:  E(RB3LYP) =  -594.988819787     A.U. after   16 cycles
 Normal termination of Gaussian 16 at Thu Dec 10 15:45:40 2020.

 ----------------------------------------------------------------------
 # B3LYP/6-311++G(d,p) empiricaldispersion=gd3bj scf=xqc pop=npa geom=c
 heck
 ----------------------------------------------------------------------

 -------------------------------------
 CID_154307518_JID_5352_Energie_kation
 -------------------------------------
 Structure from the checkpoint file:  "JID_5352.chk"
 Charge =  1 Multiplicity = 2

 SCF Done:  E(UB3LYP) =  -594.730294138     A.U. after   24 cycles
 Normal termination of Gaussian 16 at Thu Dec 10 15:52:33 2020.
 Gaussian 16:  ES64L-G16RevA.03 25-Dec-2016

 ----------------------------------------------------------------------
 # B3LYP/6-311++G(d,p) empiricaldispersion=gd3bj scf=xqc pop=npa geom=c
 heck
 ----------------------------------------------------------------------

 ------------------------------------
 CID_154307518_JID_5352_Energie_anion
 ------------------------------------
 Structure from the checkpoint file:  "JID_5352.chk"
 Charge = -1 Multiplicity = 2

                         Standard orientation:
 ---------------------------------------------------------------------
 Center     Atomic      Atomic             Coordinates (Angstroms)
 Number     Number       Type             X           Y           Z
 ---------------------------------------------------------------------
      1          6           0       -3.717996   -0.630710    0.134539
      2          6           0       -2.871144   -1.760506    0.153697
      3          6           0       -1.503965   -1.606589    0.072690
      4          6           0       -0.909443   -0.321714   -0.042183
      5          6           0       -1.769042    0.825857   -0.016788
      6          6           0       -3.172449    0.630418    0.061878
      7          6           0       -1.211858    2.131584   -0.055976
      8          6           0        0.149871    2.303825   -0.099043
      9          6           0        1.024553    1.196141   -0.128362
     10          6           0        0.510876   -0.114674   -0.152646
     11          7           0        1.307028   -1.258176   -0.397300
     12          6           0        2.666231   -1.572528   -0.271728
     13          6           0        3.657015   -0.831416    0.295162
     14          6           0        3.149511    0.462326    0.727048
     15          6           0        2.488935    1.161027   -0.241185
     16          1           0       -4.794753   -0.759449    0.194984
     17          1           0       -3.297606   -2.755073    0.246890
     18          1           0       -0.876816   -2.490034    0.145171
     19          1           0       -3.813598    1.508220    0.070301
     20          1           0       -1.880993    2.987261   -0.037611
     21          1           0        0.584019    3.299079   -0.108455
     22          1           0        0.770564   -2.017966   -0.785997
     23          1           0        2.854870   -2.596815   -0.589404
     24          1           0        4.621387   -1.285709    0.509267
     25          1           0        2.862254    0.587799    1.773023
     26          1           0        2.874913    1.091673   -1.259676
 ---------------------------------------------------------------------

 SCF Done:  E(UB3LYP) =  -594.991039553     A.U. after   33 cycles
 SCF Done:  E(UB3LYP) =  -594.991039553     a.u. after    1 cycles

 The electronic state is 2-A.
 Alpha  occ. eigenvalues --  -14.21997 -10.08820 -10.07438 -10.04860 -10.04354
 Alpha  occ. eigenvalues --  -10.03931 -10.03732 -10.03697 -10.03332 -10.03274
 Alpha  occ. eigenvalues --  -10.03210 -10.02857 -10.02532 -10.02412 -10.01843
 Alpha  occ. eigenvalues --   -0.82228  -0.73134  -0.69219  -0.67614  -0.64123
 Alpha  occ. eigenvalues --   -0.61161  -0.59427  -0.54812  -0.51782  -0.48679
 Alpha  occ. eigenvalues --   -0.46944  -0.43335  -0.41927  -0.41204  -0.36929
 Alpha  occ. eigenvalues --   -0.36761  -0.35192  -0.32899  -0.31687  -0.29961
 Alpha  occ. eigenvalues --   -0.29489  -0.28681  -0.28206  -0.27147  -0.25619
 Alpha  occ. eigenvalues --   -0.24595  -0.23469  -0.23387  -0.20547  -0.19679
 Alpha  occ. eigenvalues --   -0.18716  -0.15197  -0.11256  -0.10833  -0.09317
 Alpha  occ. eigenvalues --   -0.06265   0.04774
 Alpha virt. eigenvalues --    0.07609   0.08532   0.08683   0.09499   0.10182
 Alpha virt. eigenvalues --    0.10521   0.11467   0.11774   0.12063   0.12571
 Alpha virt. eigenvalues --    0.13338   0.13633   0.13883   0.14863   0.15591

  Beta  occ. eigenvalues --  -14.22035 -10.08735 -10.07252 -10.04893 -10.04405
  Beta  occ. eigenvalues --  -10.03979 -10.03688 -10.03664 -10.03375 -10.03116
  Beta  occ. eigenvalues --  -10.03055 -10.02588 -10.02425 -10.02230 -10.01603
  Beta  occ. eigenvalues --   -0.82133  -0.72913  -0.68951  -0.67421  -0.63748
  Beta  occ. eigenvalues --   -0.60963  -0.59063  -0.54597  -0.51530  -0.48293
  Beta  occ. eigenvalues --   -0.46751  -0.43074  -0.41777  -0.41071  -0.36680
  Beta  occ. eigenvalues --   -0.36625  -0.35044  -0.32773  -0.31611  -0.29826
  Beta  occ. eigenvalues --   -0.29343  -0.28505  -0.27985  -0.26996  -0.25292
  Beta  occ. eigenvalues --   -0.24432  -0.23269  -0.23032  -0.20454  -0.19505
  Beta  occ. eigenvalues --   -0.17811  -0.14317  -0.10458  -0.10332  -0.08736
  Beta  occ. eigenvalues --   -0.05368
  Beta virt. eigenvalues --    0.07819   0.08642   0.08992   0.09319   0.09634
  Beta virt. eigenvalues --    0.10296   0.10599   0.11674   0.11814   0.12108
  Beta virt. eigenvalues --    0.12799   0.13610   0.13833   0.14076   0.14869

 Mulliken charges and spin densities:
               1          2
     1  C   -0.243181  -0.065712
     2  C   -0.488014   0.170544
     3  C   -0.390419   0.033626
     4  C    0.482758  -0.023965
     5  C    0.515423  -0.055331
     6  C   -0.220355   0.196990
     7  C   -0.523698   0.149170
     8  C   -0.616166   0.048714
     9  C    0.164904   0.116540
    10  C   -0.165196  -0.027416
    11  N    0.051080   0.002181
    12  C    0.132312  -0.155310
    13  C   -0.338687  -0.046635
    14  C   -0.137487  -0.006635
    15  C    0.104902   0.036750
    16  H    0.104715   0.001795
    17  H    0.059703   0.039931
    18  H    0.050397   0.007282
    19  H    0.078123  -0.010065
    20  H    0.074630  -0.014162
    21  H    0.117206   0.007533
    22  H    0.055259   0.208865
    23  H   -0.258027   0.375626
    24  H    0.110486   0.000525
    25  H    0.133900   0.011984
    26  H    0.145432  -0.002826
 Sum of Mulliken charges =  -1.00000   1.00000

 Dipole moment (field-independent basis, Debye):
    X=             -1.2077    Y=             -0.4529    Z=              0.3750  Tot=              1.3433
 Quadrupole moment (field-independent basis, Debye-Ang):
   XX=           -129.5124   YY=           -108.4241   ZZ=           -102.4169
   XY=             -3.3124   XZ=              0.9264   YZ=             -1.6992

 Summary of Natural Population Analysis:

                                       Natural Population
                Natural  -----------------------------------------------
    Atom  No    Charge         Core      Valence    Rydberg      Total
 -----------------------------------------------------------------------
      C    1   -0.12487      0.99957     2.11596    0.00934     3.12487
      C    2   -0.07729      0.99957     2.06816    0.00956     3.07729
      C    3   -0.08580      0.99954     2.07526    0.01100     3.08580
      C    4   -0.04106      0.99946     2.03243    0.00916     3.04106
      C    5   -0.03473      0.99950     2.02756    0.00766     3.03473
      C    6   -0.04234      0.99954     2.03430    0.00850     3.04234
      C    7   -0.06206      0.99954     2.05386    0.00866     3.06206
      C    8   -0.07831      0.99953     2.07046    0.00833     3.07831
      C    9   -0.04216      0.99944     2.03033    0.01239     3.04216
      C   10    0.11970      0.99940     1.86937    0.01153     2.88030
      N   11   -0.30281      0.99966     2.79341    0.00974     3.80281
      C   12    0.03591      0.99953     1.95139    0.01317     2.96409
      C   13   -0.16708      0.99950     2.15450    0.01309     3.16708
      C   14   -0.12723      0.99948     2.11754    0.01021     3.12723
      C   15   -0.06487      0.99945     2.05168    0.01373     3.06487
      H   16    0.09063      0.00000     0.40841    0.00096     0.40937
      H   17    0.08982      0.00000     0.40927    0.00091     0.41018
      H   18    0.09095      0.00000     0.40790    0.00115     0.40905
      H   19    0.08708      0.00000     0.41134    0.00158     0.41292
      H   20    0.09007      0.00000     0.40917    0.00076     0.40993
      H   21    0.09268      0.00000     0.40593    0.00139     0.40732
      H   22    0.19506      0.00000     0.30145    0.00349     0.30494
      H   23    0.08796      0.00000     0.41040    0.00164     0.41204
      H   24    0.09325      0.00000     0.40553    0.00122     0.40675
      H   25    0.08930      0.00000     0.40932    0.00138     0.41070
      H   26    0.08819      0.00000     0.41021    0.00160     0.41181
 =======================================================================
   * Total *    0.00001     14.99272    35.83513    0.17214    50.99999

 Normal termination of Gaussian 16 at Thu Dec 10 16:02:40 2020.
