 Gaussian 16, Revision A.03,

 -----------------------------------------------------------
 # opt freq B3LYP/6-31G(d) empiricaldispersion=gd3bj scf=xqc
 -----------------------------------------------------------

 -------------------------------
 CID_103559727_JID_8532_neutraal
 -------------------------------
 Symbolic Z-matrix:
 Charge =  0 Multiplicity = 1

 SCF Done:  E(RB3LYP) =  -788.024211744     A.U. after   14 cycles
 SCF Done:  E(RB3LYP) =  -788.033106467     A.U. after   11 cycles
 SCF Done:  E(RB3LYP) =  -788.033724091     A.U. after   12 cycles
 SCF Done:  E(RB3LYP) =  -788.033999896     A.U. after   11 cycles
 SCF Done:  E(RB3LYP) =  -788.034099232     A.U. after   12 cycles
 SCF Done:  E(RB3LYP) =  -788.034196354     A.U. after   10 cycles
 SCF Done:  E(RB3LYP) =  -788.034213044     A.U. after   10 cycles
 SCF Done:  E(RB3LYP) =  -788.034219571     A.U. after    9 cycles
 SCF Done:  E(RB3LYP) =  -788.034221539     A.U. after    9 cycles
 SCF Done:  E(RB3LYP) =  -788.034222457     A.U. after    8 cycles
 SCF Done:  E(RB3LYP) =  -788.034225955     A.U. after    9 cycles
 SCF Done:  E(RB3LYP) =  -788.034226798     A.U. after    8 cycles
 SCF Done:  E(RB3LYP) =  -788.034227043     A.U. after    8 cycles
 SCF Done:  E(RB3LYP) =  -788.034227098     A.U. after    6 cycles
 SCF Done:  E(RB3LYP) =  -788.034227115     A.U. after    6 cycles
 Optimization completed.
    -- Stationary point found.
 Normal termination of Gaussian 16 at Fri Dec 11 21:15:11 2020.

 --------------------------------------------------------------------
 #N Geom=AllCheck Guess=TCheck SCRF=Check GenChk RB3LYP/6-31G(d) Freq
 --------------------------------------------------------------------

 Structure from the checkpoint file:  "JID_8532.chk"
 -------------------------------
 CID_103559727_JID_8532_neutraal
 -------------------------------
 Charge =  0 Multiplicity = 1

 SCF Done:  E(RB3LYP) =  -788.034227115     A.U. after    1 cycles

  Exact polarizability: 180.127  -9.420 172.286  14.692  -0.199 141.192
 Approx polarizability: 229.079 -12.800 248.403  28.809   3.235 218.371

                      1                      2                      3
                      A                      A                      A
 Frequencies --     18.3516                30.6639                37.5681
 Red. masses --      3.5477                 3.1007                 2.3560
 Frc consts  --      0.0007                 0.0017                 0.0020
 IR Inten    --      0.0750                 0.2533                 0.3706

                      4                      5                      6
                      A                      A                      A
 Frequencies --     45.9748                55.0474                77.0265
 Red. masses --      1.6220                 2.8640                 3.4127
 Frc consts  --      0.0020                 0.0051                 0.0119
 IR Inten    --      0.0247                 0.5403                 0.6922

                      7                      8                      9
                      A                      A                      A
 Frequencies --     87.6661               105.3401               122.5881
 Red. masses --      1.8072                 3.3947                 1.9535
 Frc consts  --      0.0082                 0.0222                 0.0173
 IR Inten    --      0.5801                 2.3262                 1.2719

                     10                     11                     12
                      A                      A                      A
 Frequencies --    132.0421               166.3593               174.8425
 Red. masses --      2.6684                 2.5276                 3.2799
 Frc consts  --      0.0274                 0.0412                 0.0591
 IR Inten    --      2.4055                 2.0410                 2.8283

                     13                     14                     15
                      A                      A                      A
 Frequencies --    188.9896               219.5605               238.4013
 Red. masses --      2.7570                 2.1507                 1.8333
 Frc consts  --      0.0580                 0.0611                 0.0614
 IR Inten    --      4.1833                 4.8104                 0.6726

                     16                     17                     18
                      A                      A                      A
 Frequencies --    266.2964               283.6602               296.1024
 Red. masses --      1.3265                 2.7574                 2.4602
 Frc consts  --      0.0554                 0.1307                 0.1271
 IR Inten    --      0.6136                 0.6752                 1.2144

                     19                     20                     21
                      A                      A                      A
 Frequencies --    299.9993               346.3248               376.4567
 Red. masses --      2.9570                 2.4700                 2.2683
 Frc consts  --      0.1568                 0.1745                 0.1894
 IR Inten    --      2.2215                 1.3462                 0.4009

                     22                     23                     24
                      A                      A                      A
 Frequencies --    423.0379               427.9808               435.0166
 Red. masses --      3.1700                 2.3253                 2.6304
 Frc consts  --      0.3342                 0.2509                 0.2933
 IR Inten    --      4.1813                 4.1762                 1.8791

                     25                     26                     27
                      A                      A                      A
 Frequencies --    483.5784               521.4505               549.6307
 Red. masses --      2.6595                 2.8445                 3.3361
 Frc consts  --      0.3664                 0.4557                 0.5938
 IR Inten    --      2.2829                 4.8689                 3.6870

                     28                     29                     30
                      A                      A                      A
 Frequencies --    622.9451               646.0234               685.0477
 Red. masses --      4.9615                 4.2822                 3.0299
 Frc consts  --      1.1344                 1.0530                 0.8378
 IR Inten    --      0.5569                 3.4424                 6.2832

                     31                     32                     33
                      A                      A                      A
 Frequencies --    720.2217               724.2766               752.6179
 Red. masses --      1.6910                 3.2479                 1.2582
 Frc consts  --      0.5168                 1.0038                 0.4199
 IR Inten    --      1.3352                 4.1975                81.7932

                     34                     35                     36
                      A                      A                      A
 Frequencies --    763.9897               780.7949               790.2320
 Red. masses --      1.4410                 1.5718                 3.2714
 Frc consts  --      0.4956                 0.5646                 1.2036
 IR Inten    --      5.5035                46.4658                18.5734

                     37                     38                     39
                      A                      A                      A
 Frequencies --    823.0940               830.8969               863.3454
 Red. masses --      1.1766                 1.2880                 1.9476
 Frc consts  --      0.4696                 0.5239                 0.8553
 IR Inten    --      1.8848                 0.3600                 5.7983

                     40                     41                     42
                      A                      A                      A
 Frequencies --    865.1738               894.7539               918.9312
 Red. masses --      2.3304                 1.7107                 2.3462
 Frc consts  --      1.0277                 0.8069                 1.1673
 IR Inten    --      0.2806                10.7250                28.1211

                     43                     44                     45
                      A                      A                      A
 Frequencies --    943.0621               951.9359               963.2061
 Red. masses --      2.3952                 2.4573                 1.7575
 Frc consts  --      1.2551                 1.3120                 0.9607
 IR Inten    --      3.0888                 2.4323                17.9599

                     46                     47                     48
                      A                      A                      A
 Frequencies --    977.5653              1023.2798              1025.1231
 Red. masses --      2.5920                 2.2547                 4.8309
 Frc consts  --      1.4594                 1.3910                 2.9911
 IR Inten    --      2.1219                 0.3923                 9.0423

                     49                     50                     51
                      A                      A                      A
 Frequencies --   1027.8335              1045.9507              1067.9851
 Red. masses --      3.0338                 1.2668                 2.0921
 Frc consts  --      1.8884                 0.8165                 1.4059
 IR Inten    --      4.5433                 1.3760                 1.5511

                     52                     53                     54
                      A                      A                      A
 Frequencies --   1071.0568              1087.5986              1095.4133
 Red. masses --      1.5674                 2.3837                 1.5680
 Frc consts  --      1.0594                 1.6613                 1.1086
 IR Inten    --      6.0928                16.3360                12.4581

                     55                     56                     57
                      A                      A                      A
 Frequencies --   1119.4940              1136.5101              1152.0151
 Red. masses --      2.1182                 4.7180                 2.1507
 Frc consts  --      1.5641                 3.5905                 1.6817
 IR Inten    --      9.8069               107.1916                39.2803

                     58                     59                     60
                      A                      A                      A
 Frequencies --   1159.3323              1161.7328              1190.4095
 Red. masses --      2.1513                 1.3059                 1.2765
 Frc consts  --      1.7036                 1.0384                 1.0658
 IR Inten    --     12.4155                 2.0753                 0.8993

                     61                     62                     63
                      A                      A                      A
 Frequencies --   1198.3240              1210.6289              1215.3352
 Red. masses --      1.7506                 1.4342                 1.6696
 Frc consts  --      1.4811                 1.2385                 1.4530
 IR Inten    --     12.8427                 8.6941                34.4874

                     64                     65                     66
                      A                      A                      A
 Frequencies --   1234.3401              1234.8913              1252.8276
 Red. masses --      1.5834                 1.6771                 1.5155
 Frc consts  --      1.4214                 1.5069                 1.4015
 IR Inten    --      9.7702                31.0618                 4.8338

                     67                     68                     69
                      A                      A                      A
 Frequencies --   1260.1162              1264.3614              1284.0214
 Red. masses --      1.4356                 1.2844                 1.4227
 Frc consts  --      1.3431                 1.2098                 1.3820
 IR Inten    --      1.4037                 2.7845                10.9061

                     70                     71                     72
                      A                      A                      A
 Frequencies --   1290.0061              1301.3677              1326.5077
 Red. masses --      1.5423                 1.3724                 1.8768
 Frc consts  --      1.5122                 1.3694                 1.9457
 IR Inten    --     27.2080                23.8844                13.7670

                     73                     74                     75
                      A                      A                      A
 Frequencies --   1331.2165              1341.1514              1366.1244
 Red. masses --      3.7242                 1.3435                 1.4958
 Frc consts  --      3.8885                 1.4238                 1.6448
 IR Inten    --     12.7416                 6.8240                 5.1413

                     76                     77                     78
                      A                      A                      A
 Frequencies --   1383.3220              1408.9865              1415.3137
 Red. masses --      1.3787                 1.7340                 2.5488
 Frc consts  --      1.5544                 2.0282                 3.0081
 IR Inten    --     25.6217                10.4751                15.6498

                     79                     80                     81
                      A                      A                      A
 Frequencies --   1426.7731              1444.7808              1458.6506
 Red. masses --      1.4514                 1.4003                 3.5079
 Frc consts  --      1.7408                 1.7222                 4.3975
 IR Inten    --      6.1371                12.4746                23.8000

                     82                     83                     84
                      A                      A                      A
 Frequencies --   1477.3293              1488.3591              1494.7156
 Red. masses --      1.3323                 1.0879                 1.1010
 Frc consts  --      1.7132                 1.4199                 1.4493
 IR Inten    --      7.3760                 3.3632                 4.5321

                     85                     86                     87
                      A                      A                      A
 Frequencies --   1498.7131              1504.8231              1509.2157
 Red. masses --      1.1328                 1.0493                 1.2402
 Frc consts  --      1.4991                 1.3999                 1.6644
 IR Inten    --      2.4702                 6.9830                 7.4753

                     88                     89                     90
                      A                      A                      A
 Frequencies --   1510.6365              1515.3848              1521.7436
 Red. masses --      1.1107                 1.0812                 1.9315
 Frc consts  --      1.4933                 1.4628                 2.6353
 IR Inten    --      1.5965                 5.2522                 3.1463

                     91                     92                     93
                      A                      A                      A
 Frequencies --   1527.6476              1528.9554              1536.2991
 Red. masses --      1.0543                 1.0408                 1.1455
 Frc consts  --      1.4497                 1.4336                 1.5929
 IR Inten    --      5.8228                 3.9429                17.4390

                     94                     95                     96
                      A                      A                      A
 Frequencies --   1538.2639              1541.4032              1551.2529
 Red. masses --      1.1561                 1.0557                 1.2025
 Frc consts  --      1.6118                 1.4778                 1.7049
 IR Inten    --     13.5409                11.3927                 9.2721

                     97                     98                     99
                      A                      A                      A
 Frequencies --   1552.5758              1578.2581              2932.6158
 Red. masses --      1.1823                 5.1464                 1.0736
 Frc consts  --      1.6791                 7.5528                 5.4400
 IR Inten    --      1.3170                40.7615                92.2358

                    100                    101                    102
                      A                      A                      A
 Frequencies --   3012.2894              3043.6657              3049.8379
 Red. masses --      1.0358                 1.0405                 1.0606
 Frc consts  --      5.5374                 5.6794                 5.8123
 IR Inten    --     63.3472                21.7928                13.3103

                    103                    104                    105
                      A                      A                      A
 Frequencies --   3057.9537              3060.2933              3062.4021
 Red. masses --      1.0828                 1.1007                 1.0625
 Frc consts  --      5.9656                 6.0736                 5.8706
 IR Inten    --     26.8371                24.5964                19.6136

                    106                    107                    108
                      A                      A                      A
 Frequencies --   3068.4362              3069.1258              3073.7461
 Red. masses --      1.0340                 1.0582                 1.0629
 Frc consts  --      5.7357                 5.8727                 5.9169
 IR Inten    --     54.7489                53.8330                54.9004

                    109                    110                    111
                      A                      A                      A
 Frequencies --   3081.2168              3095.2958              3102.6717
 Red. masses --      1.0897                 1.0948                 1.0662
 Frc consts  --      6.0955                 6.1801                 6.0475
 IR Inten    --      4.5691                32.9977                19.6668

                    112                    113                    114
                      A                      A                      A
 Frequencies --   3106.7912              3108.0114              3108.3066
 Red. masses --      1.1018                 1.0993                 1.1045
 Frc consts  --      6.2656                 6.2568                 6.2875
 IR Inten    --     32.3620                48.6707                 5.1413

                    115                    116                    117
                      A                      A                      A
 Frequencies --   3124.8936              3127.3334              3131.5127
 Red. masses --      1.1056                 1.1004                 1.1030
 Frc consts  --      6.3610                 6.3409                 6.3726
 IR Inten    --     72.4537                13.3266                31.7058

                    118                    119                    120
                      A                      A                      A
 Frequencies --   3136.9085              3151.3716              3164.2878
 Red. masses --      1.1037                 1.1060                 1.1052
 Frc consts  --      6.3988                 6.4718                 6.5198
 IR Inten    --     15.7524                36.7790                10.2129

                    121                    122                    123
                      A                      A                      A
 Frequencies --   3261.6202              3279.7650              3464.7588
 Red. masses --      1.0904                 1.1047                 1.0727
 Frc consts  --      6.8345                 7.0014                 7.5872
 IR Inten    --      2.8484                 2.6157                 1.5160

 - Thermochemistry -
 -------------------
 Temperature   298.150 Kelvin.  Pressure   1.00000 Atm.
 Atom     1 has atomic number  6 and mass  12.00000

 Molecular mass:   251.19976 amu.
 Principal axes and moments of inertia in atomic units:
                           1         2         3
     Eigenvalues --  3251.662197201.853698778.92009
           X            1.00000  -0.00113   0.00174
           Y            0.00113   1.00000   0.00100
           Z           -0.00175  -0.00100   1.00000
 This molecule is an asymmetric top.
 Rotational symmetry number  1.
 Warning -- assumption of classical behavior for rotation
           may cause significant error
 Rotational temperatures (Kelvin)      0.02664     0.01203     0.00987
 Rotational constants (GHZ):           0.55502     0.25059     0.20558
 Zero-point vibrational energy    1008999.5 (Joules/Mol)
                                  241.15666 (Kcal/Mol)
 Warning -- explicit consideration of  27 degrees of freedom as
           vibrations may cause significant error
 Vibrational temperatures:     26.40    44.12    54.05    66.15    79.20
          (Kelvin)            110.82   126.13   151.56   176.38   189.98
                              239.35   251.56   271.91   315.90   343.01
                              383.14   408.12   426.03   431.63   498.28
                              541.64   608.66   615.77   625.89   695.76
                              750.25   790.80   896.28   929.48   985.63
                             1036.24  1042.07  1082.85  1099.21  1123.39
                             1136.97  1184.25  1195.48  1242.16  1244.79
                             1287.35  1322.14  1356.86  1369.62  1385.84
                             1406.50  1472.27  1474.92  1478.82  1504.89
                             1536.59  1541.01  1564.81  1576.06  1610.70
                             1635.18  1657.49  1668.02  1671.47  1712.73
                             1724.12  1741.83  1748.60  1775.94  1776.73
                             1802.54  1813.03  1819.13  1847.42  1856.03
                             1872.38  1908.55  1915.32  1929.62  1965.55
                             1990.29  2027.22  2036.32  2052.81  2078.72
                             2098.67  2125.55  2141.42  2150.56  2156.31
                             2165.10  2171.42  2173.47  2180.30  2189.45
                             2197.94  2199.83  2210.39  2213.22  2217.74
                             2231.91  2233.81  2270.76  4219.38  4334.01
                             4379.16  4388.04  4399.71  4403.08  4406.11
                             4414.80  4415.79  4422.44  4433.18  4453.44
                             4464.05  4469.98  4471.74  4472.16  4496.02
                             4499.54  4505.55  4513.31  4534.12  4552.70
                             4692.74  4718.85  4985.02

 Zero-point correction=                           0.384308 (Hartree/Particle)
 Thermal correction to Energy=                    0.404008
 Thermal correction to Enthalpy=                  0.404952
 Thermal correction to Gibbs Free Energy=         0.333711
 Sum of electronic and zero-point Energies=           -787.649920
 Sum of electronic and thermal Energies=              -787.630219
 Sum of electronic and thermal Enthalpies=            -787.629275
 Sum of electronic and thermal Free Energies=         -787.700516

                     E (Thermal)             CV                S
                      KCal/Mol        Cal/Mol-Kelvin    Cal/Mol-Kelvin
 Total                  253.519             72.902            149.939
 Electronic               0.000              0.000              0.000
 Translational            0.889              2.981             42.464
 Rotational               0.889              2.981             33.685
 Vibrational            251.742             66.940             73.791
 Vibration     1          0.593              1.986              6.805
 Vibration     2          0.594              1.984              5.786
 Vibration     3          0.594              1.982              5.383
 Vibration     4          0.595              1.979              4.983
 Vibration     5          0.596              1.976              4.627
 Vibration     6          0.599              1.964              3.965
 Vibration     7          0.601              1.958              3.711
 Vibration     8          0.605              1.945              3.353
 Vibration     9          0.610              1.930              3.059
 Vibration    10          0.612              1.921              2.916
 Vibration    11          0.624              1.884              2.476
 Vibration    12          0.627              1.873              2.383
 Vibration    13          0.633              1.855              2.238
 Vibration    14          0.647              1.811              1.963
 Vibration    15          0.656              1.782              1.815
 Vibration    16          0.672              1.735              1.620
 Vibration    17          0.682              1.704              1.511
 Vibration    18          0.690              1.681              1.439
 Vibration    19          0.693              1.674              1.417
 Vibration    20          0.724              1.583              1.183
 Vibration    21          0.747              1.520              1.053
 Vibration    22          0.785              1.420              0.882
 Vibration    23          0.789              1.409              0.865
 Vibration    24          0.796              1.394              0.842
 Vibration    25          0.840              1.286              0.700
 Vibration    26          0.876              1.202              0.607
 Vibration    27          0.905              1.140              0.545

 Optimization completed.
    -- Stationary point found.
 Normal termination of Gaussian 16 at Fri Dec 11 21:36:26 2020.

 ----------------------------------------------------------------------
 # B3LYP/6-311++G(d,p) empiricaldispersion=gd3bj scf=xqc pop=npa geom=c
 heck
 ----------------------------------------------------------------------

 ---------------------------------------
 CID_103559727_JID_8532_Energie_neutraal
 ---------------------------------------
 Structure from the checkpoint file:  "JID_8532.chk"
 Charge =  0 Multiplicity = 1

 SCF Done:  E(RB3LYP) =  -788.252687175     A.U. after   15 cycles
 Normal termination of Gaussian 16 at Fri Dec 11 21:46:50 2020.

 ----------------------------------------------------------------------
 # B3LYP/6-311++G(d,p) empiricaldispersion=gd3bj scf=xqc pop=npa geom=c
 heck
 ----------------------------------------------------------------------

 -------------------------------------
 CID_103559727_JID_8532_Energie_kation
 -------------------------------------
 Structure from the checkpoint file:  "JID_8532.chk"
 Charge =  1 Multiplicity = 2

 SCF Done:  E(UB3LYP) =  -787.972991614     A.U. after   27 cycles
 Normal termination of Gaussian 16 at Fri Dec 11 22:14:34 2020.
 Gaussian 16:  ES64L-G16RevA.03 25-Dec-2016

 ----------------------------------------------------------------------
 # B3LYP/6-311++G(d,p) empiricaldispersion=gd3bj scf=xqc pop=npa geom=c
 heck
 ----------------------------------------------------------------------

 ------------------------------------
 CID_103559727_JID_8532_Energie_anion
 ------------------------------------
 Structure from the checkpoint file:  "JID_8532.chk"
 Charge = -1 Multiplicity = 2

                         Standard orientation:
 ---------------------------------------------------------------------
 Center     Atomic      Atomic             Coordinates (Angstroms)
 Number     Number       Type             X           Y           Z
 ---------------------------------------------------------------------
      1          6           0       -0.231554    3.761697    1.227326
      2          6           0       -0.114806    2.949254   -0.059369
      3          7           0       -0.265767    1.527371    0.223367
      4          6           0       -0.239685    0.641966   -0.941668
      5          6           0        1.132850    0.595240   -1.678666
      6          6           0        2.258666    0.163053   -0.791586
      7          7           0        2.643270   -1.118140   -0.737461
      8          7           0        3.610765   -1.159835    0.208364
      9          6           0        3.853219    0.060295    0.753757
     10          6           0        2.992250    0.948030    0.135672
     11          6           0        4.288970   -2.410242    0.476409
     12          6           0       -0.691793   -0.764207   -0.530520
     13          6           0       -2.141362   -0.852991   -0.065638
     14          6           0       -2.596430   -2.264024    0.428118
     15          6           0       -3.211505   -1.618591    1.699107
     16          6           0       -2.491591   -0.289635    1.347677
     17          8           0       -2.907121   -0.328863   -1.151552
     18          6           0       -4.307896   -0.268616   -1.003679
     19          1           0       -1.187358    3.558001    1.720305
     20          1           0       -0.158504    4.835799    1.024148
     21          1           0        0.571108    3.499943    1.928818
     22          1           0       -0.915490    3.234659   -0.753657
     23          1           0        0.836738    3.204586   -0.564092
     24          1           0        0.462747    1.234863    0.875234
     25          1           0       -0.978259    1.031521   -1.649917
     26          1           0        1.057916   -0.092487   -2.527449
     27          1           0        1.352847    1.588524   -2.086095
     28          1           0        4.605494    0.197284    1.517639
     29          1           0        2.913374    2.011822    0.308761
     30          1           0        3.550443   -3.193185    0.665580
     31          1           0        4.907472   -2.704481   -0.377541
     32          1           0        4.922632   -2.287302    1.357266
     33          1           0       -0.569348   -1.439920   -1.386379
     34          1           0       -0.037634   -1.149700    0.260701
     35          1           0       -3.269358   -2.810009   -0.240254
     36          1           0       -1.738430   -2.907874    0.646865
     37          1           0       -2.943000   -2.079123    2.654687
     38          1           0       -4.302656   -1.543488    1.651803
     39          1           0       -1.589760   -0.119781    1.938189
     40          1           0       -3.074411    0.634311    1.369812
     41          1           0       -4.760863   -1.261015   -0.864357
     42          1           0       -4.615786    0.374789   -0.167704
     43          1           0       -4.696822    0.160016   -1.931479
 ---------------------------------------------------------------------

 SCF Done:  E(UB3LYP) =  -788.240511468     A.U. after   33 cycles
 SCF Done:  E(UB3LYP) =  -788.240511468     a.u. after    1 cycles

 The electronic state is 2-A.
 Alpha  occ. eigenvalues --  -19.03603 -14.29499 -14.22913 -14.19994 -10.13437
 Alpha  occ. eigenvalues --  -10.12578 -10.11454 -10.11062 -10.10406 -10.10365
 Alpha  occ. eigenvalues --  -10.09993 -10.07847 -10.07818 -10.07620 -10.07339
 Alpha  occ. eigenvalues --  -10.06977 -10.06964 -10.06765  -0.95407  -0.94811
 Alpha  occ. eigenvalues --   -0.81844  -0.75392  -0.74809  -0.69237  -0.69028
 Alpha  occ. eigenvalues --   -0.64672  -0.64039  -0.60205  -0.58066  -0.57491
 Alpha  occ. eigenvalues --   -0.53758  -0.52001  -0.50807  -0.49156  -0.45692
 Alpha  occ. eigenvalues --   -0.45504  -0.42484  -0.41015  -0.40652  -0.38789
 Alpha  occ. eigenvalues --   -0.38201  -0.37624  -0.37114  -0.35631  -0.34898
 Alpha  occ. eigenvalues --   -0.34661  -0.33773  -0.33306  -0.32406  -0.31802
 Alpha  occ. eigenvalues --   -0.30666  -0.29671  -0.29419  -0.29043  -0.28383
 Alpha  occ. eigenvalues --   -0.27824  -0.27675  -0.27115  -0.25904  -0.24558
 Alpha  occ. eigenvalues --   -0.23966  -0.23378  -0.22939  -0.20014  -0.19803
 Alpha  occ. eigenvalues --   -0.16363  -0.15992  -0.15189  -0.13022   0.03947
 Alpha virt. eigenvalues --    0.05199   0.06097   0.06942   0.07437   0.07749
 Alpha virt. eigenvalues --    0.08228   0.08434   0.08731   0.09361   0.09568
 Alpha virt. eigenvalues --    0.10120   0.10899   0.11092   0.11249   0.11392

  Beta  occ. eigenvalues --  -19.03600 -14.29500 -14.22907 -14.19989 -10.13437
  Beta  occ. eigenvalues --  -10.12556 -10.11402 -10.11034 -10.10400 -10.10364
  Beta  occ. eigenvalues --  -10.09993 -10.07846 -10.07807 -10.07612 -10.07321
  Beta  occ. eigenvalues --  -10.06970 -10.06957 -10.06762  -0.95399  -0.94806
  Beta  occ. eigenvalues --   -0.81837  -0.75377  -0.74800  -0.69225  -0.69003
  Beta  occ. eigenvalues --   -0.64652  -0.64016  -0.60167  -0.58027  -0.57469
  Beta  occ. eigenvalues --   -0.53731  -0.51969  -0.50781  -0.49122  -0.45657
  Beta  occ. eigenvalues --   -0.45475  -0.42431  -0.40991  -0.40640  -0.38772
  Beta  occ. eigenvalues --   -0.38176  -0.37610  -0.37100  -0.35612  -0.34866
  Beta  occ. eigenvalues --   -0.34647  -0.33732  -0.33287  -0.32384  -0.31777
  Beta  occ. eigenvalues --   -0.30635  -0.29649  -0.29400  -0.29027  -0.28366
  Beta  occ. eigenvalues --   -0.27800  -0.27659  -0.27100  -0.25889  -0.24546
  Beta  occ. eigenvalues --   -0.23956  -0.23364  -0.22925  -0.20003  -0.19791
  Beta  occ. eigenvalues --   -0.16355  -0.15978  -0.15180  -0.13012
  Beta virt. eigenvalues --    0.05582   0.06321   0.06682   0.07134   0.07843
  Beta virt. eigenvalues --    0.08233   0.08327   0.08669   0.08929   0.09566
  Beta virt. eigenvalues --    0.09886   0.10322   0.10963   0.11283   0.11501

 Mulliken charges and spin densities:
               1          2
     1  C    0.118697  -0.732733
     2  C   -0.293928   0.239952
     3  N    0.081406  -0.002879
     4  C    0.199068  -0.177652
     5  C    0.298613  -0.766608
     6  C   -0.179708  -0.280856
     7  N   -0.415026   0.351260
     8  N    0.250936  -0.063131
     9  C    0.012525  -0.220455
    10  C    0.518925  -0.379129
    11  C    1.238515  -1.504876
    12  C   -0.964644   0.299871
    13  C   -0.112612   0.071304
    14  C   -0.711775   0.189515
    15  C    0.365652  -0.613654
    16  C   -0.534022   0.075308
    17  O   -0.059548   0.013454
    18  C    0.353455  -0.617926
    19  H    0.032635   0.118843
    20  H   -0.100144   0.226854
    21  H   -0.076938   0.208484
    22  H    0.025010   0.118985
    23  H    0.075994   0.016802
    24  H    0.344053  -0.165900
    25  H    0.317566  -0.059457
    26  H    0.152624   0.017274
    27  H    0.083254   0.072301
    28  H   -1.361125   1.555490
    29  H   -0.088214   0.262489
    30  H   -0.265729   0.432163
    31  H   -0.208491   0.384275
    32  H   -0.636354   0.794608
    33  H    0.146511   0.034941
    34  H    0.327568  -0.127979
    35  H    0.020231   0.120109
    36  H    0.075908   0.053117
    37  H   -0.041430   0.196015
    38  H    0.039849   0.082800
    39  H    0.001079   0.150575
    40  H    0.139473   0.023645
    41  H   -0.060197   0.203892
    42  H   -0.123964   0.278177
    43  H    0.014305   0.120731
 Sum of Mulliken charges =  -1.00000   1.00000

 Dipole moment (field-independent basis, Debye):
    X=             -7.1191    Y=              1.9235    Z=             -4.2264  Tot=              8.4997
 Quadrupole moment (field-independent basis, Debye-Ang):
   XX=           -224.5399   YY=           -162.3968   ZZ=           -152.7116
   XY=             12.3019   XZ=            -18.0651   YZ=             -0.5313

 Summary of Natural Population Analysis:

                                       Natural Population
                Natural  -----------------------------------------------
    Atom  No    Charge         Core      Valence    Rydberg      Total
 -----------------------------------------------------------------------
      C    1   -0.28627      0.99967     2.28209    0.00452     3.28627
      C    2   -0.08601      0.99964     2.07601    0.01035     3.08601
      N    3   -0.34698      0.99973     2.83552    0.01173     3.84698
      C    4   -0.00352      0.99960     1.99155    0.01237     3.00352
      C    5   -0.21083      0.99958     2.20299    0.00827     3.21083
      C    6    0.06957      0.99958     1.91429    0.01656     2.93043
      N    7   -0.16243      0.99969     2.65134    0.01140     3.66243
      N    8   -0.10510      0.99967     2.59234    0.01308     3.60510
      C    9    0.00147      0.99955     1.98645    0.01254     2.99853
      C   10   -0.17288      0.99951     2.16355    0.00983     3.17288
      C   11   -0.17060      0.99963     2.16244    0.00853     3.17060
      C   12   -0.18789      0.99954     2.18029    0.00806     3.18789
      C   13    0.14815      0.99950     1.83366    0.01869     2.85185
      C   14   -0.20311      0.99960     2.19624    0.00727     3.20311
      C   15   -0.19705      0.99965     2.19039    0.00700     3.19705
      C   16   -0.20299      0.99959     2.19403    0.00937     3.20299
      O   17   -0.30686      0.99986     3.29641    0.01059     4.30686
      C   18   -0.10012      0.99960     2.09019    0.01033     3.10012
      H   19    0.10029      0.00000     0.39842    0.00129     0.39971
      H   20    0.09679      0.00000     0.40229    0.00092     0.40321
      H   21    0.09656      0.00000     0.40205    0.00139     0.40344
      H   22    0.08936      0.00000     0.40940    0.00124     0.41064
      H   23    0.07505      0.00000     0.42334    0.00161     0.42495
      H   24    0.17401      0.00000     0.32263    0.00336     0.32599
      H   25    0.10005      0.00000     0.39787    0.00208     0.39995
      H   26    0.10850      0.00000     0.39049    0.00101     0.39150
      H   27    0.10203      0.00000     0.39693    0.00104     0.39797
      H   28    0.10887      0.00000     0.38776    0.00337     0.39113
      H   29    0.10927      0.00000     0.38958    0.00115     0.39073
      H   30    0.10305      0.00000     0.39537    0.00158     0.39695
      H   31    0.09890      0.00000     0.39972    0.00138     0.40110
      H   32    0.10580      0.00000     0.39061    0.00359     0.39420
      H   33    0.10302      0.00000     0.39575    0.00123     0.39698
      H   34    0.10314      0.00000     0.39530    0.00156     0.39686
      H   35    0.09897      0.00000     0.40004    0.00099     0.40103
      H   36    0.10253      0.00000     0.39626    0.00121     0.39747
      H   37    0.09562      0.00000     0.40326    0.00112     0.40438
      H   38    0.09416      0.00000     0.40424    0.00160     0.40584
      H   39    0.10734      0.00000     0.39131    0.00135     0.39266
      H   40    0.10246      0.00000     0.39637    0.00117     0.39754
      H   41    0.07790      0.00000     0.42063    0.00147     0.42210
      H   42    0.08049      0.00000     0.41817    0.00134     0.41951
      H   43    0.08934      0.00000     0.40978    0.00088     0.41066
 =======================================================================
   * Total *    0.00003     17.99320    50.77734    0.22944    68.99997

 Normal termination of Gaussian 16 at Fri Dec 11 22:47:00 2020.
