 Gaussian 16, Revision A.03,

 -----------------------------------------------------------
 # opt freq B3LYP/6-31G(d) empiricaldispersion=gd3bj scf=xqc
 -----------------------------------------------------------

 -------------------------------
 CID_113843894_JID_8879_neutraal
 -------------------------------
 Symbolic Z-matrix:
 Charge =  0 Multiplicity = 1

 SCF Done:  E(RB3LYP) =  -803.143258081     A.U. after   16 cycles
 SCF Done:  E(RB3LYP) =  -803.150180779     A.U. after   13 cycles
 SCF Done:  E(RB3LYP) =  -803.152105069     A.U. after   13 cycles
 SCF Done:  E(RB3LYP) =  -803.153194970     A.U. after   13 cycles
 SCF Done:  E(RB3LYP) =  -803.153394486     A.U. after   13 cycles
 SCF Done:  E(RB3LYP) =  -803.154049153     A.U. after   12 cycles
 SCF Done:  E(RB3LYP) =  -803.154367647     A.U. after   12 cycles
 SCF Done:  E(RB3LYP) =  -803.155136421     A.U. after   14 cycles
 SCF Done:  E(RB3LYP) =  -803.155406990     A.U. after   11 cycles
 SCF Done:  E(RB3LYP) =  -803.154621276     A.U. after   13 cycles
 SCF Done:  E(RB3LYP) =  -803.157628848     A.U. after   11 cycles
 SCF Done:  E(RB3LYP) =  -803.157736679     A.U. after   11 cycles
 SCF Done:  E(RB3LYP) =  -803.157736882     A.U. after    9 cycles
 SCF Done:  E(RB3LYP) =  -803.157736765     A.U. after    9 cycles
 SCF Done:  E(RB3LYP) =  -803.157737220     A.U. after    8 cycles
 SCF Done:  E(RB3LYP) =  -803.157737226     A.U. after    6 cycles
 Optimization completed on the basis of negligible forces.
    -- Stationary point found.
 Normal termination of Gaussian 16 at Fri Dec 11 23:03:57 2020.

 --------------------------------------------------------------------
 #N Geom=AllCheck Guess=TCheck SCRF=Check GenChk RB3LYP/6-31G(d) Freq
 --------------------------------------------------------------------

 Structure from the checkpoint file:  "JID_8879.chk"
 -------------------------------
 CID_113843894_JID_8879_neutraal
 -------------------------------
 Charge =  0 Multiplicity = 1

 SCF Done:  E(RB3LYP) =  -803.157737226     A.U. after    1 cycles

  Exact polarizability: 319.965   8.500 171.391   5.810  -4.836  81.934
 Approx polarizability: 445.589  31.315 306.221  12.588 -11.919 123.457

                      1                      2                      3
                      A                      A                      A
 Frequencies --     24.2718                35.3584                40.1568
 Red. masses --      3.9092                 2.0227                 1.3799
 Frc consts  --      0.0014                 0.0015                 0.0013
 IR Inten    --      0.4287                 2.6980                 0.2234

                      4                      5                      6
                      A                      A                      A
 Frequencies --     56.0463                66.9445                86.0179
 Red. masses --      3.7979                 1.0326                 3.9543
 Frc consts  --      0.0070                 0.0027                 0.0172
 IR Inten    --      0.3389                 0.0108                 1.3843

                      7                      8                      9
                      A                      A                      A
 Frequencies --    103.8035               133.4511               158.4052
 Red. masses --      4.9253                 3.3795                 4.5037
 Frc consts  --      0.0313                 0.0355                 0.0666
 IR Inten    --      1.4153                 0.8031                 0.3335

                     10                     11                     12
                      A                      A                      A
 Frequencies --    198.9474               215.8541               248.8293
 Red. masses --      1.3592                 3.3588                 4.7772
 Frc consts  --      0.0317                 0.0922                 0.1743
 IR Inten    --      1.1511                 2.6967                 1.0104

                     13                     14                     15
                      A                      A                      A
 Frequencies --    266.5349               304.6828               329.2663
 Red. masses --      2.5105                 5.3585                 3.0704
 Frc consts  --      0.1051                 0.2931                 0.1961
 IR Inten    --      0.3456                 1.3236                 1.9648

                     16                     17                     18
                      A                      A                      A
 Frequencies --    352.0916               362.0295               392.1539
 Red. masses --      3.1727                 4.2841                 3.7021
 Frc consts  --      0.2317                 0.3308                 0.3354
 IR Inten    --      0.1459                 2.7754                 3.3215

                     19                     20                     21
                      A                      A                      A
 Frequencies --    412.2484               424.7167               469.1409
 Red. masses --      4.4557                 3.3584                 4.5411
 Frc consts  --      0.4462                 0.3569                 0.5889
 IR Inten    --      0.4943                 0.0461                 0.1352

                     22                     23                     24
                      A                      A                      A
 Frequencies --    495.5449               519.8734               545.2108
 Red. masses --      5.2956                 4.1271                 2.8437
 Frc consts  --      0.7662                 0.6572                 0.4980
 IR Inten    --     11.8635                 7.3623                 4.6291

                     25                     26                     27
                      A                      A                      A
 Frequencies --    562.7928               611.1568               630.6390
 Red. masses --      4.3969                 4.1179                 3.8184
 Frc consts  --      0.8205                 0.9062                 0.8947
 IR Inten    --     23.7563                 9.7758                 7.6074

                     28                     29                     30
                      A                      A                      A
 Frequencies --    646.0078               655.8320               718.5432
 Red. masses --      5.4741                 6.4963                 6.4203
 Frc consts  --      1.3460                 1.6463                 1.9530
 IR Inten    --     18.6252                 2.9649                 6.8197

                     31                     32                     33
                      A                      A                      A
 Frequencies --    719.9311               739.8055               790.7064
 Red. masses --      1.7705                 2.6251                 3.5408
 Frc consts  --      0.5407                 0.8465                 1.3043
 IR Inten    --     43.9241                49.2583                 4.8709

                     34                     35                     36
                      A                      A                      A
 Frequencies --    796.5397               825.5285               832.3003
 Red. masses --      5.9745                 1.5241                 1.3706
 Frc consts  --      2.2334                 0.6120                 0.5594
 IR Inten    --      0.9467                 0.5407                 3.2793

                     37                     38                     39
                      A                      A                      A
 Frequencies --    838.4115               861.0796               921.2681
 Red. masses --      2.3665                 1.6553                 2.4097
 Frc consts  --      0.9801                 0.7231                 1.2050
 IR Inten    --      0.2638                41.9650                12.3920

                     40                     41                     42
                      A                      A                      A
 Frequencies --    982.6952               989.1702               992.1774
 Red. masses --      1.3168                 2.8846                 1.2793
 Frc consts  --      0.7492                 1.6629                 0.7420
 IR Inten    --      0.3121                23.3208                 0.4621

                     43                     44                     45
                      A                      A                      A
 Frequencies --   1025.4354              1034.7766              1060.6611
 Red. masses --      1.7715                 2.4841                 2.0180
 Frc consts  --      1.0975                 1.5671                 1.3376
 IR Inten    --      1.2461                 0.1840                 2.5882

                     46                     47                     48
                      A                      A                      A
 Frequencies --   1066.3954              1076.4360              1081.0664
 Red. masses --      1.4086                 3.7100                 1.5155
 Frc consts  --      0.9438                 2.5328                 1.0436
 IR Inten    --      3.0491                62.0315                 0.0006

                     49                     50                     51
                      A                      A                      A
 Frequencies --   1130.8747              1153.0609              1188.6196
 Red. masses --      2.0278                 1.3201                 3.1337
 Frc consts  --      1.5279                 1.0341                 2.6085
 IR Inten    --     58.7520                10.9865                47.4237

                     52                     53                     54
                      A                      A                      A
 Frequencies --   1205.1950              1212.3547              1221.9426
 Red. masses --      1.6449                 1.9646                 2.0137
 Frc consts  --      1.4077                 1.7013                 1.7715
 IR Inten    --     10.3783                69.8806               117.9425

                     55                     56                     57
                      A                      A                      A
 Frequencies --   1290.6524              1293.4305              1324.5064
 Red. masses --      2.7757                 3.2845                 2.9943
 Frc consts  --      2.7242                 3.2374                 3.0949
 IR Inten    --    227.3305               219.7379               108.4064

                     58                     59                     60
                      A                      A                      A
 Frequencies --   1332.0083              1349.1608              1353.0390
 Red. masses --      1.6306                 2.2350                 1.6299
 Frc consts  --      1.7045                 2.3969                 1.7580
 IR Inten    --      8.4549               167.0692                 1.1072

                     61                     62                     63
                      A                      A                      A
 Frequencies --   1376.0107              1421.3531              1435.5628
 Red. masses --      4.9853                 1.2832                 1.3252
 Frc consts  --      5.5614                 1.5274                 1.6090
 IR Inten    --     58.5275                 0.0555                 1.2493

                     64                     65                     66
                      A                      A                      A
 Frequencies --   1443.6308              1454.6729              1469.9242
 Red. masses --      1.2988                 1.2395                 3.4497
 Frc consts  --      1.5948                 1.5453                 4.3916
 IR Inten    --     24.5918                 0.5679                11.5971

                     67                     68                     69
                      A                      A                      A
 Frequencies --   1486.6754              1505.3965              1513.9049
 Red. masses --      2.8228                 1.0432                 1.0421
 Frc consts  --      3.6759                 1.3929                 1.4071
 IR Inten    --      6.9884                 0.7344                11.2004

                     70                     71                     72
                      A                      A                      A
 Frequencies --   1516.4153              1517.7536              1527.5889
 Red. masses --      1.0446                 1.1063                 1.1523
 Frc consts  --      1.4152                 1.5015                 1.5843
 IR Inten    --      4.2493                 1.8909                 0.6186

                     73                     74                     75
                      A                      A                      A
 Frequencies --   1531.9844              1547.2077              1560.5203
 Red. masses --      1.0517                 1.1286                 3.0229
 Frc consts  --      1.4543                 1.5919                 4.3372
 IR Inten    --      3.1660                 8.0597                23.2699

                     76                     77                     78
                      A                      A                      A
 Frequencies --   1564.9719              1618.3601              1662.6131
 Red. masses --      4.0744                 6.7707                 5.2176
 Frc consts  --      5.8794                10.4480                 8.4978
 IR Inten    --    136.2774                 3.8488               383.8403

                     79                     80                     81
                      A                      A                      A
 Frequencies --   1670.3775              1760.7235              3040.6621
 Red. masses --      5.9143                 8.0510                 1.0428
 Frc consts  --      9.7227                14.7056                 5.6804
 IR Inten    --     67.8488               342.5734                52.5497

                     82                     83                     84
                      A                      A                      A
 Frequencies --   3050.6779              3057.7369              3061.2867
 Red. masses --      1.0668                 1.0390                 1.0364
 Frc consts  --      5.8494                 5.7234                 5.7224
 IR Inten    --     46.0231                31.6808                18.3738

                     85                     86                     87
                      A                      A                      A
 Frequencies --   3086.9119              3108.8077              3112.5658
 Red. masses --      1.1012                 1.1014                 1.0991
 Frc consts  --      6.1824                 6.2717                 6.2735
 IR Inten    --     14.8855                16.1858                20.2059

                     88                     89                     90
                      A                      A                      A
 Frequencies --   3130.6153              3146.1981              3150.8603
 Red. masses --      1.1010                 1.1035                 1.0995
 Frc consts  --      6.3577                 6.4356                 6.4311
 IR Inten    --     33.7758                46.2277                22.0926

                     91                     92                     93
                      A                      A                      A
 Frequencies --   3182.3104              3211.8164              3219.2369
 Red. masses --      1.0932                 1.0905                 1.0871
 Frc consts  --      6.5226                 6.6279                 6.6378
 IR Inten    --     14.5539                11.9601                11.2862

                     94                     95                     96
                      A                      A                      A
 Frequencies --   3234.7620              3268.9108              3578.1281
 Red. masses --      1.0929                 1.0918                 1.0770
 Frc consts  --      6.7376                 6.8738                 8.1243
 IR Inten    --     11.5088                 9.7296                56.6749

 - Thermochemistry -
 -------------------
 Temperature   298.150 Kelvin.  Pressure   1.00000 Atm.
 Atom     1 has atomic number  6 and mass  12.00000

 Molecular mass:   244.12118 amu.
 Principal axes and moments of inertia in atomic units:
                           1         2         3
     Eigenvalues --  1659.071169901.49006**********
           X            0.99999  -0.00046  -0.00328
           Y            0.00047   1.00000   0.00225
           Z            0.00328  -0.00226   0.99999
 This molecule is an asymmetric top.
 Rotational symmetry number  1.
 Warning -- assumption of classical behavior for rotation
           may cause significant error
 Rotational temperatures (Kelvin)      0.05221     0.00875     0.00764
 Rotational constants (GHZ):           1.08780     0.18227     0.15911
 Zero-point vibrational energy     735601.2 (Joules/Mol)
                                  175.81290 (Kcal/Mol)
 Warning -- explicit consideration of  26 degrees of freedom as
           vibrations may cause significant error
 Vibrational temperatures:     34.92    50.87    57.78    80.64    96.32
          (Kelvin)            123.76   149.35   192.01   227.91   286.24
                              310.57   358.01   383.48   438.37   473.74
                              506.58   520.88   564.22   593.13   611.07
                              674.99   712.98   747.98   784.44   809.73
                              879.32   907.35   929.46   943.60  1033.82
                             1035.82  1064.42  1137.65  1146.04  1187.75
                             1197.49  1206.29  1238.90  1325.50  1413.88
                             1423.20  1427.52  1475.37  1488.81  1526.05
                             1534.31  1548.75  1555.41  1627.08  1659.00
                             1710.16  1734.01  1744.31  1758.10  1856.96
                             1860.96  1905.67  1916.46  1941.14  1946.72
                             1979.77  2045.01  2065.45  2077.06  2092.95
                             2114.89  2138.99  2165.93  2178.17  2181.78
                             2183.71  2197.86  2204.18  2226.09  2245.24
                             2251.65  2328.46  2392.13  2403.30  2533.29
                             4374.83  4389.25  4399.40  4404.51  4441.38
                             4472.88  4478.29  4504.26  4526.68  4533.39
                             4578.63  4621.09  4631.76  4654.10  4703.23
                             5148.13

 Zero-point correction=                           0.280176 (Hartree/Particle)
 Thermal correction to Energy=                    0.297460
 Thermal correction to Enthalpy=                  0.298404
 Thermal correction to Gibbs Free Energy=         0.232959
 Sum of electronic and zero-point Energies=           -802.877562
 Sum of electronic and thermal Energies=              -802.860277
 Sum of electronic and thermal Enthalpies=            -802.859333
 Sum of electronic and thermal Free Energies=         -802.924778

                     E (Thermal)             CV                S
                      KCal/Mol        Cal/Mol-Kelvin    Cal/Mol-Kelvin
 Total                  186.659             64.461            137.740
 Electronic               0.000              0.000              0.000
 Translational            0.889              2.981             42.378
 Rotational               0.889              2.981             33.588
 Vibrational            184.881             58.499             61.774
 Vibration     1          0.593              1.985              6.250
 Vibration     2          0.594              1.982              5.504
 Vibration     3          0.594              1.981              5.251
 Vibration     4          0.596              1.975              4.592
 Vibration     5          0.598              1.970              4.241
 Vibration     6          0.601              1.959              3.749
 Vibration     7          0.605              1.946              3.382
 Vibration     8          0.613              1.920              2.896
 Vibration     9          0.621              1.893              2.569
 Vibration    10          0.637              1.841              2.143
 Vibration    11          0.645              1.817              1.994
 Vibration    12          0.662              1.765              1.739
 Vibration    13          0.672              1.734              1.619
 Vibration    14          0.696              1.665              1.391
 Vibration    15          0.712              1.617              1.264
 Vibration    16          0.729              1.571              1.157
 Vibration    17          0.736              1.550              1.113
 Vibration    18          0.760              1.487              0.992
 Vibration    19          0.776              1.444              0.919
 Vibration    20          0.787              1.416              0.876
 Vibration    21          0.826              1.319              0.740
 Vibration    22          0.851              1.260              0.669
 Vibration    23          0.875              1.206              0.610
 Vibration    24          0.900              1.150              0.554
 Vibration    25          0.919              1.112              0.518
 Vibration    26          0.970              1.008              0.431

 Optimization completed on the basis of negligible forces.
    -- Stationary point found.
 Normal termination of Gaussian 16 at Fri Dec 11 23:15:28 2020.

 ----------------------------------------------------------------------
 # B3LYP/6-311++G(d,p) empiricaldispersion=gd3bj scf=xqc pop=npa geom=c
 heck
 ----------------------------------------------------------------------

 ---------------------------------------
 CID_113843894_JID_8879_Energie_neutraal
 ---------------------------------------
 Structure from the checkpoint file:  "JID_8879.chk"
 Charge =  0 Multiplicity = 1

 SCF Done:  E(RB3LYP) =  -803.374137479     A.U. after   16 cycles
 Normal termination of Gaussian 16 at Fri Dec 11 23:20:40 2020.

 ----------------------------------------------------------------------
 # B3LYP/6-311++G(d,p) empiricaldispersion=gd3bj scf=xqc pop=npa geom=c
 heck
 ----------------------------------------------------------------------

 -------------------------------------
 CID_113843894_JID_8879_Energie_kation
 -------------------------------------
 Structure from the checkpoint file:  "JID_8879.chk"
 Charge =  1 Multiplicity = 2

 SCF Done:  E(UB3LYP) =  -803.114267122     A.U. after   22 cycles
 Normal termination of Gaussian 16 at Fri Dec 11 23:30:22 2020.
 Gaussian 16:  ES64L-G16RevA.03 25-Dec-2016

 ----------------------------------------------------------------------
 # B3LYP/6-311++G(d,p) empiricaldispersion=gd3bj scf=xqc pop=npa geom=c
 heck
 ----------------------------------------------------------------------

 ------------------------------------
 CID_113843894_JID_8879_Energie_anion
 ------------------------------------
 Structure from the checkpoint file:  "JID_8879.chk"
 Charge = -1 Multiplicity = 2

                         Standard orientation:
 ---------------------------------------------------------------------
 Center     Atomic      Atomic             Coordinates (Angstroms)
 Number     Number       Type             X           Y           Z
 ---------------------------------------------------------------------
      1          6           0       -5.474844    1.251197    1.016774
      2          6           0       -5.300047    0.604322   -0.352071
      3          8           0       -4.460224   -0.550605   -0.303089
      4          6           0       -3.108560   -0.396051   -0.229463
      5          6           0       -2.431313    0.831916   -0.287584
      6          6           0       -1.044425    0.856183   -0.222519
      7          6           0       -0.286547   -0.321514   -0.096269
      8          6           0       -0.983253   -1.546205   -0.038058
      9          6           0       -2.368521   -1.578399   -0.103033
     10          6           0        1.182984   -0.215790   -0.030704
     11          7           0        1.719149    0.981815   -0.090121
     12          6           0        3.066296    1.207523   -0.040867
     13          6           0        3.943423    0.158819    0.076402
     14          7           0        3.389846   -1.098675    0.139807
     15          6           0        2.036891   -1.419618    0.097662
     16          8           0        1.692671   -2.598964    0.166382
     17          6           0        5.441071    0.208084    0.144490
     18          6           0        3.462117    2.658175   -0.125659
     19          1           0       -5.878573    0.523424    1.727440
     20          1           0       -6.171422    2.094579    0.949042
     21          1           0       -4.523841    1.620864    1.410881
     22          1           0       -6.257409    0.226269   -0.720875
     23          1           0       -4.919446    1.318407   -1.093263
     24          1           0       -2.970881    1.766709   -0.381670
     25          1           0       -0.518886    1.802976   -0.266987
     26          1           0       -0.425454   -2.466937    0.058209
     27          1           0       -2.906138   -2.520155   -0.060115
     28          1           0        3.992785   -1.909820    0.227255
     29          1           0        5.815515    1.229683    0.090426
     30          1           0        5.804324   -0.234528    1.081153
     31          1           0        5.888446   -0.358535   -0.682551
     32          1           0        3.094931    3.094143   -1.061653
     33          1           0        3.000052    3.221898    0.692602
     34          1           0        4.541826    2.813753   -0.078646
 ---------------------------------------------------------------------

 SCF Done:  E(UB3LYP) =  -803.391521125     A.U. after   27 cycles

 The electronic state is 2-A.
 Alpha  occ. eigenvalues --  -19.03385 -18.93324 -14.20523 -14.12851 -10.13266
 Alpha  occ. eigenvalues --  -10.11549 -10.09239 -10.07912 -10.06583 -10.06523
 Alpha  occ. eigenvalues --  -10.05535 -10.04454 -10.03797 -10.03469 -10.03001
 Alpha  occ. eigenvalues --  -10.02547 -10.02234 -10.02198  -0.95125  -0.88988
 Alpha  occ. eigenvalues --   -0.81464  -0.75675  -0.71398  -0.67451  -0.65881
 Alpha  occ. eigenvalues --   -0.61877  -0.60890  -0.59625  -0.55318  -0.53458
 Alpha  occ. eigenvalues --   -0.51353  -0.47783  -0.47244  -0.44547  -0.41343
 Alpha  occ. eigenvalues --   -0.39587  -0.38493  -0.37046  -0.35077  -0.33608
 Alpha  occ. eigenvalues --   -0.32935  -0.32434  -0.31141  -0.30598  -0.29531
 Alpha  occ. eigenvalues --   -0.29491  -0.29138  -0.28312  -0.27958  -0.27822
 Alpha  occ. eigenvalues --   -0.27229  -0.26510  -0.25952  -0.25524  -0.23154
 Alpha  occ. eigenvalues --   -0.22159  -0.21113  -0.19495  -0.19270  -0.17182
 Alpha  occ. eigenvalues --   -0.13399  -0.11922  -0.10274  -0.08252  -0.06085
 Alpha  occ. eigenvalues --    0.03756
 Alpha virt. eigenvalues --    0.06491   0.07473   0.08819   0.09081   0.09382
 Alpha virt. eigenvalues --    0.10387   0.11100   0.11236   0.11663   0.12296
 Alpha virt. eigenvalues --    0.12463   0.12885   0.13486   0.13791   0.13941

  Beta  occ. eigenvalues --  -19.03343 -18.93287 -14.20265 -14.12273 -10.13266
  Beta  occ. eigenvalues --  -10.11541 -10.09059 -10.07909 -10.06558 -10.06218
  Beta  occ. eigenvalues --  -10.05691 -10.04446 -10.03862 -10.03164 -10.03048
  Beta  occ. eigenvalues --  -10.02574 -10.02120 -10.02079  -0.95016  -0.88809
  Beta  occ. eigenvalues --   -0.80986  -0.74841  -0.71230  -0.67388  -0.65585
  Beta  occ. eigenvalues --   -0.61681  -0.60786  -0.59499  -0.55115  -0.53300
  Beta  occ. eigenvalues --   -0.50716  -0.47567  -0.47104  -0.44448  -0.41264
  Beta  occ. eigenvalues --   -0.39386  -0.38325  -0.36914  -0.34964  -0.33456
  Beta  occ. eigenvalues --   -0.32355  -0.32307  -0.30989  -0.30542  -0.29459
  Beta  occ. eigenvalues --   -0.29362  -0.28985  -0.28253  -0.27800  -0.27250
  Beta  occ. eigenvalues --   -0.27157  -0.26451  -0.25797  -0.25209  -0.23108
  Beta  occ. eigenvalues --   -0.21945  -0.20205  -0.19432  -0.18323  -0.15511
  Beta  occ. eigenvalues --   -0.13065  -0.11592  -0.09492  -0.07761  -0.04683
  Beta virt. eigenvalues --    0.06428   0.07424   0.08757   0.09032   0.09331
  Beta virt. eigenvalues --    0.09743   0.10338   0.11147   0.11355   0.11634
  Beta virt. eigenvalues --    0.12448   0.12489   0.12914   0.13526   0.13864

 Mulliken charges and spin densities:
               1          2
     1  C   -0.356790  -0.021946
     2  C   -0.232824   0.000392
     3  O   -0.117489   0.007748
     4  C   -0.573902   0.121638
     5  C   -0.026013  -0.048603
     6  C   -0.115555   0.174610
     7  C    1.048870  -0.068580
     8  C   -0.297125   0.039112
     9  C   -0.840857  -0.036358
    10  C   -0.216127   0.199559
    11  N    0.080162   0.299236
    12  C    0.089538  -0.120830
    13  C    0.241285   0.251048
    14  N   -0.321204   0.106597
    15  C   -0.025741   0.001787
    16  O   -0.406980   0.019165
    17  C   -0.565799  -0.024661
    18  C   -0.682811   0.018092
    19  H    0.137933   0.004001
    20  H    0.082340   0.015376
    21  H    0.138504   0.005101
    22  H    0.157630   0.004195
    23  H    0.099431   0.011159
    24  H    0.158250   0.001115
    25  H    0.203465  -0.011300
    26  H    0.207835  -0.002753
    27  H    0.142221   0.001084
    28  H    0.298128  -0.007778
    29  H    0.118073  -0.000359
    30  H    0.106441   0.033474
    31  H    0.107325   0.032746
    32  H    0.140028  -0.002100
    33  H    0.139263  -0.000724
    34  H    0.082494  -0.001243
 Sum of Mulliken charges =  -1.00000   1.00000

 Dipole moment (field-independent basis, Debye):
    X=             -2.2147    Y=              3.4850    Z=              0.1862  Tot=              4.1333
 Quadrupole moment (field-independent basis, Debye-Ang):
   XX=           -135.2773   YY=           -129.4439   ZZ=           -116.9662
   XY=             -4.3001   XZ=             -0.3254   YZ=             -0.0575

 Summary of Natural Population Analysis:

                                       Natural Population
                Natural  -----------------------------------------------
    Atom  No    Charge         Core      Valence    Rydberg      Total
 -----------------------------------------------------------------------
      C    1   -0.30084      0.99967     2.29740    0.00377     3.30084
      C    2   -0.00933      0.99960     1.99970    0.01004     3.00933
      O    3   -0.28030      0.99986     3.27000    0.01044     4.28030
      C    4    0.17917      0.99939     1.80939    0.01205     2.82083
      C    5   -0.17153      0.99952     2.16428    0.00773     3.17153
      C    6   -0.05034      0.99955     2.04187    0.00891     3.05034
      C    7   -0.06239      0.99954     2.04970    0.01316     3.06239
      C    8   -0.03776      0.99954     2.03357    0.00465     3.03776
      C    9   -0.15692      0.99957     2.14417    0.01318     3.15692
      C   10    0.11296      0.99950     1.87462    0.01291     2.88704
      N   11   -0.15192      0.99964     2.63891    0.01338     3.65192
      C   12    0.01977      0.99948     1.96802    0.01272     2.98023
      C   13    0.14288      0.99948     1.84694    0.01070     2.85712
      N   14   -0.24975      0.99964     2.74148    0.00864     3.74975
      C   15    0.31100      0.99963     1.66557    0.02380     2.68900
      O   16   -0.35199      0.99988     3.34530    0.00681     4.35199
      C   17   -0.30019      0.99965     2.29650    0.00404     3.30019
      C   18   -0.28574      0.99964     2.28139    0.00470     3.28574
      H   19    0.09901      0.00000     0.40006    0.00092     0.40099
      H   20    0.09313      0.00000     0.40528    0.00159     0.40687
      H   21    0.10580      0.00000     0.39256    0.00164     0.39420
      H   22    0.08430      0.00000     0.41459    0.00111     0.41570
      H   23    0.08110      0.00000     0.41729    0.00161     0.41890
      H   24    0.09242      0.00000     0.40610    0.00148     0.40758
      H   25    0.10970      0.00000     0.38781    0.00249     0.39030
      H   26    0.11410      0.00000     0.38432    0.00158     0.38590
      H   27    0.09541      0.00000     0.40224    0.00234     0.40459
      H   28    0.18432      0.00000     0.31225    0.00343     0.31568
      H   29    0.10174      0.00000     0.39753    0.00073     0.39826
      H   30    0.09955      0.00000     0.39899    0.00146     0.40045
      H   31    0.09959      0.00000     0.39896    0.00145     0.40041
      H   32    0.09746      0.00000     0.40124    0.00130     0.40254
      H   33    0.09763      0.00000     0.40107    0.00130     0.40237
      H   34    0.08799      0.00000     0.41123    0.00078     0.41201
 =======================================================================
   * Total *    0.00005     17.99277    46.80033    0.20684    64.99995

 Normal termination of Gaussian 16 at Fri Dec 11 23:42:04 2020.
