 Gaussian 16, Revision A.03,

 -----------------------------------------------------------
 # opt freq B3LYP/6-31G(d) empiricaldispersion=gd3bj scf=xqc
 -----------------------------------------------------------

 -----------------------------
 CID_59497732_JID_792_neutraal
 -----------------------------
 Symbolic Z-matrix:
 Charge =  0 Multiplicity = 1

 SCF Done:  E(RB3LYP) =  -459.867690688     A.U. after   14 cycles
 SCF Done:  E(RB3LYP) =  -459.871472079     A.U. after   12 cycles
 SCF Done:  E(RB3LYP) =  -459.871836744     A.U. after   10 cycles
 SCF Done:  E(RB3LYP) =  -459.871919415     A.U. after   10 cycles
 SCF Done:  E(RB3LYP) =  -459.871936886     A.U. after   10 cycles
 SCF Done:  E(RB3LYP) =  -459.871940781     A.U. after    8 cycles
 SCF Done:  E(RB3LYP) =  -459.871941310     A.U. after    8 cycles
 SCF Done:  E(RB3LYP) =  -459.871941539     A.U. after    7 cycles
 SCF Done:  E(RB3LYP) =  -459.871941611     A.U. after    7 cycles
 SCF Done:  E(RB3LYP) =  -459.871941625     A.U. after    7 cycles
 Optimization completed.
    -- Stationary point found.
 Normal termination of Gaussian 16 at Tue Dec  8 12:30:57 2020.

 --------------------------------------------------------------------
 #N Geom=AllCheck Guess=TCheck SCRF=Check GenChk RB3LYP/6-31G(d) Freq
 --------------------------------------------------------------------

 Structure from the checkpoint file:  "JID_792.chk"
 -----------------------------
 CID_59497732_JID_792_neutraal
 -----------------------------
 Charge =  0 Multiplicity = 1

 SCF Done:  E(RB3LYP) =  -459.871941625     A.U. after    1 cycles

  Exact polarizability: 124.353  -4.345  80.893   0.386  -1.057  72.972
 Approx polarizability: 152.357  -5.955 118.140   2.819  -2.143 101.666

                      1                      2                      3
                      A                      A                      A
 Frequencies --     34.1018                76.4075               115.3007
 Red. masses --      3.6959                 2.5130                 2.7471
 Frc consts  --      0.0025                 0.0086                 0.0215
 IR Inten    --      1.3727                 0.4463                 2.5587

                      4                      5                      6
                      A                      A                      A
 Frequencies --    125.6837               212.8226               221.9895
 Red. masses --      3.4903                 1.0973                 2.5473
 Frc consts  --      0.0325                 0.0293                 0.0740
 IR Inten    --      0.8066                 0.2707                 2.0071

                      7                      8                      9
                      A                      A                      A
 Frequencies --    244.4856               252.7838               310.5684
 Red. masses --      1.8821                 1.2938                 2.4651
 Frc consts  --      0.0663                 0.0487                 0.1401
 IR Inten    --      2.3836                 0.7080                 3.0807

                     10                     11                     12
                      A                      A                      A
 Frequencies --    371.9938               431.7798               458.5602
 Red. masses --      2.3341                 3.2035                 3.9495
 Frc consts  --      0.1903                 0.3519                 0.4893
 IR Inten    --      1.5932                 4.9659                 2.6376

                     13                     14                     15
                      A                      A                      A
 Frequencies --    482.6620               555.2083               584.9390
 Red. masses --      3.4509                 2.8793                 2.1516
 Frc consts  --      0.4737                 0.5229                 0.4337
 IR Inten    --      2.0413                 2.7203                57.0603

                     16                     17                     18
                      A                      A                      A
 Frequencies --    671.6920               797.8803               834.3906
 Red. masses --      2.7185                 2.0768                 3.0442
 Frc consts  --      0.7226                 0.7790                 1.2487
 IR Inten    --      1.7235                47.3667                16.2347

                     19                     20                     21
                      A                      A                      A
 Frequencies --    869.6273               895.0306               925.8374
 Red. masses --      3.3410                 2.0408                 4.3055
 Frc consts  --      1.4887                 0.9632                 2.1744
 IR Inten    --     15.7661                 8.9154                81.0150

                     22                     23                     24
                      A                      A                      A
 Frequencies --    939.9487               941.4789               949.2832
 Red. masses --      1.3764                 1.9974                 1.3761
 Frc consts  --      0.7165                 1.0431                 0.7306
 IR Inten    --      0.3102                 2.1552                 0.4712

                     25                     26                     27
                      A                      A                      A
 Frequencies --    991.1286              1010.8536              1023.8604
 Red. masses --      1.9069                 2.6542                 1.6137
 Frc consts  --      1.1037                 1.5979                 0.9967
 IR Inten    --     64.1876                84.5892                 7.0790

                     28                     29                     30
                      A                      A                      A
 Frequencies --   1078.5041              1130.8644              1164.1486
 Red. masses --      1.6524                 3.0900                 2.0569
 Frc consts  --      1.1324                 2.3282                 1.6424
 IR Inten    --      2.9399                13.6863                11.6066

                     31                     32                     33
                      A                      A                      A
 Frequencies --   1167.3916              1201.3053              1207.4404
 Red. masses --      1.9753                 1.1380                 1.3254
 Frc consts  --      1.5861                 0.9676                 1.1385
 IR Inten    --    144.0749                 4.5307                 3.7006

                     34                     35                     36
                      A                      A                      A
 Frequencies --   1217.4233              1233.3452              1263.1307
 Red. masses --      2.0047                 1.2745                 3.2752
 Frc consts  --      1.7506                 1.1422                 3.0788
 IR Inten    --     10.4160                 1.7233                 5.0933

                     37                     38                     39
                      A                      A                      A
 Frequencies --   1298.4943              1330.6722              1378.2029
 Red. masses --      1.4681                 1.4295                 1.3297
 Frc consts  --      1.4585                 1.4913                 1.4881
 IR Inten    --     31.9204                 1.3615                 4.9347

                     40                     41                     42
                      A                      A                      A
 Frequencies --   1397.4092              1403.6826              1424.4577
 Red. masses --      1.2585                 1.4653                 1.3573
 Frc consts  --      1.4480                 1.7010                 1.6226
 IR Inten    --     20.7661                 1.0557                17.0879

                     43                     44                     45
                      A                      A                      A
 Frequencies --   1437.4751              1458.4849              1497.8425
 Red. masses --      1.2526                 1.3843                 1.0984
 Frc consts  --      1.5250                 1.7350                 1.4519
 IR Inten    --     18.4143                 4.2420                 4.5846

                     46                     47                     48
                      A                      A                      A
 Frequencies --   1508.1322              1521.7483              1522.0018
 Red. masses --      1.0462                 1.0537                 1.0768
 Frc consts  --      1.4020                 1.4377                 1.4696
 IR Inten    --      0.1645                 5.2218                 4.8164

                     49                     50                     51
                      A                      A                      A
 Frequencies --   1522.1087              1542.6214              1551.7665
 Red. masses --      1.0489                 1.0540                 1.0997
 Frc consts  --      1.4318                 1.4778                 1.5602
 IR Inten    --      0.0265                 2.2476                 2.1064

                     52                     53                     54
                      A                      A                      A
 Frequencies --   1764.4973              2948.7730              2961.9331
 Red. masses --     11.7409                 1.0740                 1.0740
 Frc consts  --     21.5374                 5.5024                 5.5516
 IR Inten    --      4.4847                82.4641                53.3391

                     55                     56                     57
                      A                      A                      A
 Frequencies --   3056.1103              3057.5605              3060.0746
 Red. masses --      1.0358                 1.0676                 1.0423
 Frc consts  --      5.6997                 5.8806                 5.7505
 IR Inten    --     21.5245                13.1773                14.5466

                     58                     59                     60
                      A                      A                      A
 Frequencies --   3067.6103              3079.0896              3099.2756
 Red. masses --      1.0791                 1.0868                 1.0896
 Frc consts  --      5.9828                 6.0709                 6.1666
 IR Inten    --     28.0913                20.6694                50.2103

                     61                     62                     63
                      A                      A                      A
 Frequencies --   3123.8589              3127.6252              3134.6469
 Red. masses --      1.1019                 1.1023                 1.0972
 Frc consts  --      6.3356                 6.3531                 6.3519
 IR Inten    --     13.9192                48.9527                14.4419

                     64                     65                     66
                      A                      A                      A
 Frequencies --   3142.8119              3147.7698              3530.3618
 Red. masses --      1.1027                 1.1016                 1.0753
 Frc consts  --      6.4169                 6.4313                 7.8962
 IR Inten    --      6.8262                42.5149                 0.9574

 - Thermochemistry -
 -------------------
 Temperature   298.150 Kelvin.  Pressure   1.00000 Atm.
 Atom     1 has atomic number  6 and mass  12.00000

 Molecular mass:   142.11061 amu.
 Principal axes and moments of inertia in atomic units:
                           1         2         3
     Eigenvalues --   537.841262904.776122992.10751
           X            0.99999   0.00066  -0.00432
           Y           -0.00071   0.99995  -0.01010
           Z            0.00431   0.01010   0.99994
 This molecule is an asymmetric top.
 Rotational symmetry number  1.
 Warning -- assumption of classical behavior for rotation
           may cause significant error
 Rotational temperatures (Kelvin)      0.16104     0.02982     0.02895
 Rotational constants (GHZ):           3.35553     0.62130     0.60317
 Zero-point vibrational energy     556807.5 (Joules/Mol)
                                  133.08020 (Kcal/Mol)
 Warning -- explicit consideration of  15 degrees of freedom as
           vibrations may cause significant error
 Vibrational temperatures:     49.06   109.93   165.89   180.83   306.20
          (Kelvin)            319.39   351.76   363.70   446.84   535.22
                              621.23   659.77   694.44   798.82   841.60
                              966.41  1147.97  1200.50  1251.20  1287.75
                             1332.07  1352.38  1354.58  1365.81  1426.01
                             1454.39  1473.11  1551.73  1627.06  1674.95
                             1679.62  1728.41  1737.24  1751.60  1774.51
                             1817.36  1868.24  1914.54  1982.93  2010.56
                             2019.59  2049.48  2068.21  2098.43  2155.06
                             2169.87  2189.46  2189.82  2189.97  2219.49
                             2232.65  2538.72  4242.63  4261.56  4397.06
                             4399.15  4402.76  4413.61  4430.12  4459.17
                             4494.54  4499.96  4510.06  4521.81  4528.94
                             5079.40

 Zero-point correction=                           0.212077 (Hartree/Particle)
 Thermal correction to Energy=                    0.222810
 Thermal correction to Enthalpy=                  0.223754
 Thermal correction to Gibbs Free Energy=         0.175260
 Sum of electronic and zero-point Energies=           -459.659865
 Sum of electronic and thermal Energies=              -459.649131
 Sum of electronic and thermal Enthalpies=            -459.648187
 Sum of electronic and thermal Free Energies=         -459.696681

                     E (Thermal)             CV                S
                      KCal/Mol        Cal/Mol-Kelvin    Cal/Mol-Kelvin
 Total                  139.816             39.781            102.064
 Electronic               0.000              0.000              0.000
 Translational            0.889              2.981             40.766
 Rotational               0.889              2.981             29.926
 Vibrational            138.038             33.819             31.373
 Vibration     1          0.594              1.983              5.575
 Vibration     2          0.599              1.965              3.981
 Vibration     3          0.608              1.937              3.178
 Vibration     4          0.611              1.927              3.011
 Vibration     5          0.644              1.821              2.019
 Vibration     6          0.648              1.808              1.943
 Vibration     7          0.660              1.772              1.770
 Vibration     8          0.664              1.758              1.711
 Vibration     9          0.699              1.654              1.359
 Vibration    10          0.744              1.530              1.072
 Vibration    11          0.793              1.401              0.853
 Vibration    12          0.817              1.342              0.770
 Vibration    13          0.839              1.289              0.703
 Vibration    14          0.911              1.128              0.533
 Vibration    15          0.942              1.064              0.476

 Optimization completed.
    -- Stationary point found.
 Normal termination of Gaussian 16 at Tue Dec  8 12:41:38 2020.

 ----------------------------------------------------------------------
 # B3LYP/6-311++G(d,p) empiricaldispersion=gd3bj scf=xqc pop=npa geom=c
 heck
 ----------------------------------------------------------------------

 -------------------------------------
 CID_59497732_JID_792_Energie_neutraal
 -------------------------------------
 Structure from the checkpoint file:  "JID_792.chk"
 Charge =  0 Multiplicity = 1

 SCF Done:  E(RB3LYP) =  -460.006114541     A.U. after   13 cycles
 Normal termination of Gaussian 16 at Tue Dec  8 12:43:25 2020.

 ----------------------------------------------------------------------
 # B3LYP/6-311++G(d,p) empiricaldispersion=gd3bj scf=xqc pop=npa geom=c
 heck
 ----------------------------------------------------------------------

 -----------------------------------
 CID_59497732_JID_792_Energie_kation
 -----------------------------------
 Structure from the checkpoint file:  "JID_792.chk"
 Charge =  1 Multiplicity = 2

 SCF Done:  E(UB3LYP) =  -459.698782605     A.U. after   21 cycles
 Normal termination of Gaussian 16 at Tue Dec  8 12:49:40 2020.
 Gaussian 16:  ES64L-G16RevA.03 25-Dec-2016

 ----------------------------------------------------------------------
 # B3LYP/6-311++G(d,p) empiricaldispersion=gd3bj scf=xqc pop=npa geom=c
 heck
 ----------------------------------------------------------------------

 ----------------------------------
 CID_59497732_JID_792_Energie_anion
 ----------------------------------
 Structure from the checkpoint file:  "JID_792.chk"
 Charge = -1 Multiplicity = 2

                         Standard orientation:
 ---------------------------------------------------------------------
 Center     Atomic      Atomic             Coordinates (Angstroms)
 Number     Number       Type             X           Y           Z
 ---------------------------------------------------------------------
      1          6           0        3.003314    0.113870   -1.238858
      2          6           0        2.522596   -0.428632    0.103912
      3          6           0        2.872901    0.476231    1.281725
      4          8           0        1.110854   -0.723127    0.073104
      5          7           0        0.371681    0.459369   -0.133617
      6          6           0       -0.875829    0.201672   -0.145534
      7          6           0       -1.934358    1.264690   -0.326766
      8          6           0       -3.166719    0.573726    0.277781
      9          7           0       -2.971745   -0.822894   -0.133883
     10          6           0       -1.550858   -1.133490    0.074450
     11          1           0        2.554336    1.091106   -1.437309
     12          1           0        2.722315   -0.567770   -2.048115
     13          1           0        4.093698    0.222906   -1.238213
     14          1           0        2.952010   -1.423631    0.269212
     15          1           0        2.420845    1.463400    1.150658
     16          1           0        2.501450    0.045643    2.217329
     17          1           0        3.959189    0.596405    1.361191
     18          1           0       -1.671172    2.210454    0.152459
     19          1           0       -2.098262    1.449954   -1.395822
     20          1           0       -4.112115    0.961886   -0.113810
     21          1           0       -3.166223    0.714303    1.374864
     22          1           0       -3.578416   -1.459828    0.374455
     23          1           0       -1.191832   -1.893142   -0.629233
     24          1           0       -1.298490   -1.490401    1.089741
 ---------------------------------------------------------------------

 SCF Done:  E(UB3LYP) =  -459.989104798     A.U. after   29 cycles

 The electronic state is 2-A.
 Alpha  occ. eigenvalues --  -19.05042 -14.24681 -14.19398 -10.12174 -10.10627
 Alpha  occ. eigenvalues --  -10.09287 -10.09066 -10.07518 -10.05776 -10.05563
 Alpha  occ. eigenvalues --   -0.97507  -0.82328  -0.76695  -0.66997  -0.64138
 Alpha  occ. eigenvalues --   -0.59796  -0.58967  -0.51006  -0.48644  -0.43180
 Alpha  occ. eigenvalues --   -0.40791  -0.38947  -0.37495  -0.34902  -0.34251
 Alpha  occ. eigenvalues --   -0.32488  -0.31441  -0.29551  -0.29117  -0.28192
 Alpha  occ. eigenvalues --   -0.27912  -0.26815  -0.26276  -0.24947  -0.24433
 Alpha  occ. eigenvalues --   -0.23430  -0.16660  -0.13989  -0.12569   0.04687
 Alpha virt. eigenvalues --    0.06308   0.07852   0.08336   0.08989   0.09184
 Alpha virt. eigenvalues --    0.09435   0.10362   0.11037   0.11343   0.11886
 Alpha virt. eigenvalues --    0.12083   0.13059   0.13874   0.14108   0.15602

  Beta  occ. eigenvalues --  -19.05041 -14.24675 -14.19367 -10.12162 -10.10628
  Beta  occ. eigenvalues --  -10.09262 -10.09030 -10.07505 -10.05755 -10.05538
  Beta  occ. eigenvalues --   -0.97502  -0.82292  -0.76676  -0.66964  -0.64094
  Beta  occ. eigenvalues --   -0.59741  -0.58921  -0.50939  -0.48579  -0.43115
  Beta  occ. eigenvalues --   -0.40744  -0.38916  -0.37472  -0.34849  -0.34221
  Beta  occ. eigenvalues --   -0.32446  -0.31399  -0.29519  -0.29089  -0.28151
  Beta  occ. eigenvalues --   -0.27873  -0.26774  -0.26243  -0.24914  -0.24396
  Beta  occ. eigenvalues --   -0.23406  -0.16633  -0.13978  -0.12512
  Beta virt. eigenvalues --    0.06933   0.07625   0.08466   0.08828   0.09338
  Beta virt. eigenvalues --    0.09817   0.09994   0.10850   0.11436   0.11721
  Beta virt. eigenvalues --    0.12245   0.12617   0.13360   0.14038   0.14332

 Mulliken charges and spin densities:
               1          2
     1  C    0.736289  -1.220353
     2  C   -1.186195   1.135655
     3  C    0.894619  -1.374209
     4  O    0.045342   0.003741
     5  N   -0.158524   0.094749
     6  C   -0.127353   0.175678
     7  C    0.000446  -0.290932
     8  C    1.093275  -1.449593
     9  N   -0.399306   0.268975
    10  C    0.573042  -1.129857
    11  H    0.026959   0.130875
    12  H   -0.001239   0.140636
    13  H   -0.290124   0.423086
    14  H   -0.429802   0.599829
    15  H    0.001712   0.159347
    16  H   -0.063757   0.208408
    17  H   -0.253213   0.385157
    18  H   -0.044963   0.197494
    19  H    0.055280   0.116597
    20  H   -0.448938   0.622684
    21  H   -0.404441   0.540789
    22  H   -0.294622   0.532802
    23  H   -0.022186   0.227922
    24  H   -0.302302   0.500520
 Sum of Mulliken charges =  -1.00000   1.00000

 Dipole moment (field-independent basis, Debye):
    X=              1.8031    Y=              1.4184    Z=             -2.2678  Tot=              3.2258
 Quadrupole moment (field-independent basis, Debye-Ang):
   XX=           -145.8594   YY=            -93.5342   ZZ=            -94.3516
   XY=             -1.4572   XZ=              3.6826   YZ=              0.2994

 Summary of Natural Population Analysis:

                                       Natural Population
                Natural  -----------------------------------------------
    Atom  No    Charge         Core      Valence    Rydberg      Total
 -----------------------------------------------------------------------
      C    1   -0.29994      0.99964     2.29429    0.00601     3.29994
      C    2    0.06671      0.99958     1.91865    0.01507     2.93329
      C    3   -0.30001      0.99964     2.29458    0.00579     3.30001
      O    4   -0.22911      0.99989     3.21844    0.01079     4.22911
      N    5   -0.09256      0.99957     2.57899    0.01399     3.59256
      C    6    0.12784      0.99962     1.85575    0.01679     2.87216
      C    7   -0.21056      0.99959     2.20194    0.00903     3.21056
      C    8   -0.08483      0.99964     2.07360    0.01158     3.08483
      N    9   -0.34395      0.99976     2.83173    0.01246     3.84395
      C   10   -0.11769      0.99958     2.10659    0.01152     3.11769
      H   11    0.10478      0.00000     0.39394    0.00128     0.39522
      H   12    0.10140      0.00000     0.39755    0.00104     0.39860
      H   13    0.10026      0.00000     0.39863    0.00112     0.39974
      H   14    0.08970      0.00000     0.40862    0.00168     0.41030
      H   15    0.10490      0.00000     0.39372    0.00138     0.39510
      H   16    0.10312      0.00000     0.39567    0.00121     0.39688
      H   17    0.09995      0.00000     0.39885    0.00120     0.40005
      H   18    0.11013      0.00000     0.38874    0.00114     0.38987
      H   19    0.10628      0.00000     0.39247    0.00125     0.39372
      H   20    0.09580      0.00000     0.40239    0.00181     0.40420
      H   21    0.08162      0.00000     0.41514    0.00323     0.41838
      H   22    0.18132      0.00000     0.31368    0.00499     0.31868
      H   23    0.10555      0.00000     0.39268    0.00177     0.39445
      H   24    0.09928      0.00000     0.39830    0.00242     0.40072
 =======================================================================
   * Total *   -0.00000      9.99651    28.86493    0.13856    39.00000

 Normal termination of Gaussian 16 at Tue Dec  8 13:04:43 2020.
