 Gaussian 16, Revision A.03,

 -----------------------------------------------------------
 # opt freq B3LYP/6-31G(d) empiricaldispersion=gd3bj scf=xqc
 -----------------------------------------------------------

 --------------------------------
 CID_116065205_JID_10789_neutraal
 --------------------------------
 Symbolic Z-matrix:
 Charge =  0 Multiplicity = 1

 SCF Done:  E(RB3LYP) =  -844.645801147     A.U. after   14 cycles
 SCF Done:  E(RB3LYP) =  -844.652320843     A.U. after   12 cycles
 SCF Done:  E(RB3LYP) =  -844.653104352     A.U. after   12 cycles
 SCF Done:  E(RB3LYP) =  -844.653427723     A.U. after   12 cycles
 SCF Done:  E(RB3LYP) =  -844.653538956     A.U. after   11 cycles
 SCF Done:  E(RB3LYP) =  -844.653592648     A.U. after   10 cycles
 SCF Done:  E(RB3LYP) =  -844.653733133     A.U. after   11 cycles
 SCF Done:  E(RB3LYP) =  -844.653757931     A.U. after   10 cycles
 SCF Done:  E(RB3LYP) =  -844.653751423     A.U. after   10 cycles
 SCF Done:  E(RB3LYP) =  -844.653811956     A.U. after   10 cycles
 SCF Done:  E(RB3LYP) =  -844.654052360     A.U. after   11 cycles
 SCF Done:  E(RB3LYP) =  -844.654053412     A.U. after    8 cycles
 SCF Done:  E(RB3LYP) =  -844.654054136     A.U. after    8 cycles
 SCF Done:  E(RB3LYP) =  -844.654054332     A.U. after    9 cycles
 SCF Done:  E(RB3LYP) =  -844.654054359     A.U. after    7 cycles
 Optimization completed.
    -- Stationary point found.
 Normal termination of Gaussian 16 at Sat Dec 12 16:38:16 2020.

 --------------------------------------------------------------------
 #N Geom=AllCheck Guess=TCheck SCRF=Check GenChk RB3LYP/6-31G(d) Freq
 --------------------------------------------------------------------

 Structure from the checkpoint file:  "JID_10789.chk"
 --------------------------------
 CID_116065205_JID_10789_neutraal
 --------------------------------
 Charge =  0 Multiplicity = 1

 SCF Done:  E(RB3LYP) =  -844.654054359     A.U. after    1 cycles

  Exact polarizability: 291.861 -12.313 185.049  -8.793 -10.949 118.454
 Approx polarizability: 388.913 -31.404 314.251 -14.998 -34.859 189.149

                      1                      2                      3
                      A                      A                      A
 Frequencies --     19.6376                30.3615                38.5804
 Red. masses --      4.0077                 3.7956                 2.8720
 Frc consts  --      0.0009                 0.0021                 0.0025
 IR Inten    --      0.0400                 0.4072                 0.2369

                      4                      5                      6
                      A                      A                      A
 Frequencies --     64.7487                69.3039                90.6804
 Red. masses --      3.7459                 4.3028                 4.4061
 Frc consts  --      0.0093                 0.0122                 0.0213
 IR Inten    --      0.2266                 1.2590                 0.0085

                      7                      8                      9
                      A                      A                      A
 Frequencies --    114.0358               153.8004               194.4501
 Red. masses --      2.3406                 3.5343                 3.8845
 Frc consts  --      0.0179                 0.0493                 0.0865
 IR Inten    --      2.3226                 0.9820                 3.0959

                     10                     11                     12
                      A                      A                      A
 Frequencies --    207.4388               222.8629               228.4214
 Red. masses --      2.9000                 1.0318                 3.3309
 Frc consts  --      0.0735                 0.0302                 0.1024
 IR Inten    --      1.9121                 0.0472                 2.4178

                     13                     14                     15
                      A                      A                      A
 Frequencies --    246.8950               260.5942               294.9432
 Red. masses --      3.5488                 1.3917                 5.4276
 Frc consts  --      0.1275                 0.0557                 0.2782
 IR Inten    --      1.4252                 0.2547                 1.3545

                     16                     17                     18
                      A                      A                      A
 Frequencies --    322.0359               346.1664               375.0216
 Red. masses --      2.6740                 2.8254                 2.1744
 Frc consts  --      0.1634                 0.1995                 0.1802
 IR Inten    --      2.2581                 0.0426                 0.1148

                     19                     20                     21
                      A                      A                      A
 Frequencies --    395.7929               425.8141               431.3146
 Red. masses --      3.5135                 2.5178                 2.7984
 Frc consts  --      0.3243                 0.2690                 0.3067
 IR Inten    --      1.3342                 5.9245                 4.0739

                     22                     23                     24
                      A                      A                      A
 Frequencies --    454.4053               479.1568               526.3695
 Red. masses --      4.1383                 2.9813                 4.1335
 Frc consts  --      0.5035                 0.4033                 0.6748
 IR Inten    --      5.0704                 0.6793                 1.7409

                     25                     26                     27
                      A                      A                      A
 Frequencies --    535.5118               578.2870               597.7850
 Red. masses --      4.6842                 6.2604                 3.1557
 Frc consts  --      0.7915                 1.2335                 0.6644
 IR Inten    --      1.5258                 3.2404                 1.9968

                     28                     29                     30
                      A                      A                      A
 Frequencies --    630.7167               665.3239               693.3252
 Red. masses --      5.8732                 2.8754                 3.7698
 Frc consts  --      1.3765                 0.7499                 1.0677
 IR Inten    --     10.7703                 4.7591                 0.3605

                     31                     32                     33
                      A                      A                      A
 Frequencies --    699.5123               725.5579               737.5286
 Red. masses --      3.9705                 3.5314                 3.3712
 Frc consts  --      1.1447                 1.0953                 1.0804
 IR Inten    --     69.3535                41.7857                 3.4716

                     34                     35                     36
                      A                      A                      A
 Frequencies --    755.6833               812.1829               831.2324
 Red. masses --      2.9581                 3.0104                 1.7924
 Frc consts  --      0.9953                 1.1700                 0.7297
 IR Inten    --     45.6939                 5.1559                22.5941

                     37                     38                     39
                      A                      A                      A
 Frequencies --    836.9462               853.1797               869.9103
 Red. masses --      1.4666                 3.9658                 2.1880
 Frc consts  --      0.6053                 1.7008                 0.9756
 IR Inten    --     25.3544                12.8782                16.5586

                     40                     41                     42
                      A                      A                      A
 Frequencies --    903.6521               915.2221               933.0506
 Red. masses --      1.4982                 1.6126                 1.6311
 Frc consts  --      0.7208                 0.7958                 0.8366
 IR Inten    --     19.5546                 2.7837                 0.3740

                     43                     44                     45
                      A                      A                      A
 Frequencies --    936.9524               945.7297               945.9928
 Red. masses --      1.3893                 1.3220                 2.6682
 Frc consts  --      0.7186                 0.6966                 1.4068
 IR Inten    --      1.0312                 0.5498                 2.7117

                     46                     47                     48
                      A                      A                      A
 Frequencies --    951.2481               956.2643               965.3261
 Red. masses --      1.4605                 1.5588                 1.6295
 Frc consts  --      0.7786                 0.8398                 0.8946
 IR Inten    --      0.8561                 2.1840                 4.0822

                     49                     50                     51
                      A                      A                      A
 Frequencies --    968.9362              1000.1587              1015.4833
 Red. masses --      2.2898                 1.6479                 6.1198
 Frc consts  --      1.2666                 0.9712                 3.7182
 IR Inten    --     26.6659                 3.4590                71.3826

                     52                     53                     54
                      A                      A                      A
 Frequencies --   1049.1927              1081.9319              1089.2917
 Red. masses --      5.1770                 2.3117                 1.6378
 Frc consts  --      3.3577                 1.5944                 1.1450
 IR Inten    --     10.0740                 1.3686                 4.9454

                     55                     56                     57
                      A                      A                      A
 Frequencies --   1128.8242              1139.5906              1152.7041
 Red. masses --      3.9990                 2.4594                 2.0684
 Frc consts  --      3.0023                 1.8818                 1.6193
 IR Inten    --     29.8059                50.7598                15.5072

                     58                     59                     60
                      A                      A                      A
 Frequencies --   1165.1016              1178.6691              1204.0008
 Red. masses --      1.6138                 1.4911                 2.1679
 Frc consts  --      1.2907                 1.2205                 1.8516
 IR Inten    --     23.6678                 0.9000                14.1693

                     61                     62                     63
                      A                      A                      A
 Frequencies --   1209.2284              1219.4667              1228.2417
 Red. masses --      1.9317                 1.2425                 1.5645
 Frc consts  --      1.6642                 1.0886                 1.3905
 IR Inten    --     29.9368                 1.4312                 3.7426

                     64                     65                     66
                      A                      A                      A
 Frequencies --   1247.0016              1278.8085              1283.2404
 Red. masses --      1.3602                 2.7650                 2.2739
 Frc consts  --      1.2462                 2.6642                 2.2062
 IR Inten    --     11.4068               169.1433                 1.4028

                     67                     68                     69
                      A                      A                      A
 Frequencies --   1295.0126              1313.3571              1330.3831
 Red. masses --      1.3143                 2.0288                 1.6322
 Frc consts  --      1.2986                 2.0618                 1.7021
 IR Inten    --      9.4100                10.0096                15.8139

                     70                     71                     72
                      A                      A                      A
 Frequencies --   1345.8750              1346.0106              1357.6684
 Red. masses --      2.6935                 2.9700                 1.4087
 Frc consts  --      2.8746                 3.1703                 1.5298
 IR Inten    --     26.5306                 3.5107                 5.5493

                     73                     74                     75
                      A                      A                      A
 Frequencies --   1376.6744              1386.4528              1404.7123
 Red. masses --      1.5650                 1.2678                 1.2600
 Frc consts  --      1.7475                 1.4359                 1.4649
 IR Inten    --     15.9652                17.6755                 4.0755

                     76                     77                     78
                      A                      A                      A
 Frequencies --   1410.1979              1426.3648              1445.2918
 Red. masses --      1.5165                 1.2682                 1.2437
 Frc consts  --      1.7769                 1.5202                 1.5307
 IR Inten    --      4.8588                 2.8496                12.5480

                     79                     80                     81
                      A                      A                      A
 Frequencies --   1460.3722              1481.8713              1497.3011
 Red. masses --      3.3582                 2.5909                 1.1480
 Frc consts  --      4.2197                 3.3521                 1.5164
 IR Inten    --      4.9240                53.1533                 7.1865

                     82                     83                     84
                      A                      A                      A
 Frequencies --   1506.5478              1511.4839              1515.1867
 Red. masses --      2.7856                 1.1188                 1.0610
 Frc consts  --      3.7251                 1.5059                 1.4351
 IR Inten    --     35.9701                23.4278                 1.4799

                     85                     86                     87
                      A                      A                      A
 Frequencies --   1515.6666              1518.3713              1537.9883
 Red. masses --      1.1500                 1.0735                 1.0785
 Frc consts  --      1.5565                 1.4582                 1.5031
 IR Inten    --      2.9677                 3.0846                 5.4092

                     88                     89                     90
                      A                      A                      A
 Frequencies --   1540.2701              1541.9615              1553.8258
 Red. masses --      1.0896                 1.5407                 1.6751
 Frc consts  --      1.5230                 2.1583                 2.3828
 IR Inten    --      5.1180                54.9857                54.7235

                     91                     92                     93
                      A                      A                      A
 Frequencies --   1619.9891              1647.1679              1651.0188
 Red. masses --      4.9606                 6.1110                 6.5007
 Frc consts  --      7.6702                 9.7687                10.4403
 IR Inten    --      4.8059                12.7107                 4.3691

                     94                     95                     96
                      A                      A                      A
 Frequencies --   1674.1401              3033.0861              3039.4468
 Red. masses --      6.7143                 1.0791                 1.0417
 Frc consts  --     11.0876                 5.8489                 5.6701
 IR Inten    --     53.3785                 8.0731                10.8070

                     97                     98                     99
                      A                      A                      A
 Frequencies --   3046.1229              3046.4562              3049.3113
 Red. masses --      1.0480                 1.0526                 1.0677
 Frc consts  --      5.7296                 5.7557                 5.8495
 IR Inten    --     28.0956                75.4177                29.2096

                    100                    101                    102
                      A                      A                      A
 Frequencies --   3060.0534              3088.1064              3097.0890
 Red. masses --      1.0684                 1.1057                 1.1005
 Frc consts  --      5.8946                 6.2125                 6.2194
 IR Inten    --     67.8422                16.6510                 5.0343

                    103                    104                    105
                      A                      A                      A
 Frequencies --   3103.3975              3108.9807              3134.6577
 Red. masses --      1.0959                 1.1008                 1.1016
 Frc consts  --      6.2186                 6.2687                 6.3774
 IR Inten    --     24.5739                60.5020                27.7145

                    106                    107                    108
                      A                      A                      A
 Frequencies --   3140.3582              3148.4065              3152.9087
 Red. masses --      1.1019                 1.0892                 1.0973
 Frc consts  --      6.4025                 6.3614                 6.4267
 IR Inten    --     38.8612                36.5491                24.6961

                    109                    110                    111
                      A                      A                      A
 Frequencies --   3173.0141              3180.5510              3197.3059
 Red. masses --      1.0902                 1.0900                 1.0891
 Frc consts  --      6.4667                 6.4967                 6.5596
 IR Inten    --     18.5699                 7.2540                11.2291

                    112                    113                    114
                      A                      A                      A
 Frequencies --   3197.9321              3223.9622              3491.5275
 Red. masses --      1.0896                 1.0938                 1.0738
 Frc consts  --      6.5652                 6.6984                 7.7126
 IR Inten    --      6.2881                 8.1663                 0.1530

 - Thermochemistry -
 -------------------
 Temperature   298.150 Kelvin.  Pressure   1.00000 Atm.
 Atom     1 has atomic number  6 and mass  12.00000

 Molecular mass:   268.15756 amu.
 Principal axes and moments of inertia in atomic units:
                           1         2         3
     Eigenvalues --  2397.76116********************
           X            0.99984   0.01769   0.00130
           Y           -0.01771   0.99978   0.01117
           Z           -0.00110  -0.01119   0.99994
 This molecule is an asymmetric top.
 Rotational symmetry number  1.
 Warning -- assumption of classical behavior for rotation
           may cause significant error
 Rotational temperatures (Kelvin)      0.03612     0.00709     0.00628
 Rotational constants (GHZ):           0.75268     0.14782     0.13076
 Zero-point vibrational energy     896198.3 (Joules/Mol)
                                  214.19654 (Kcal/Mol)
 Warning -- explicit consideration of  27 degrees of freedom as
           vibrations may cause significant error
 Vibrational temperatures:     28.25    43.68    55.51    93.16    99.71
          (Kelvin)            130.47   164.07   221.28   279.77   298.46
                              320.65   328.65   355.23   374.94   424.36
                              463.34   498.06   539.57   569.46   612.65
                              620.57   653.79   689.40   757.33   770.48
                              832.03   860.08   907.46   957.25   997.54
                             1006.44  1043.92  1061.14  1087.26  1168.55
                             1195.96  1204.18  1227.54  1251.61  1300.15
                             1316.80  1342.45  1348.07  1360.69  1361.07
                             1368.63  1375.85  1388.89  1394.08  1439.01
                             1461.05  1509.55  1556.66  1567.25  1624.13
                             1639.62  1658.48  1676.32  1695.84  1732.29
                             1739.81  1754.54  1767.17  1794.16  1839.92
                             1846.30  1863.23  1889.63  1914.12  1936.41
                             1936.61  1953.38  1980.73  1994.80  2021.07
                             2028.96  2052.22  2079.45  2101.15  2132.08
                             2154.28  2167.59  2174.69  2180.02  2180.71
                             2184.60  2212.82  2216.11  2218.54  2235.61
                             2330.80  2369.91  2375.45  2408.71  4363.93
                             4373.09  4382.69  4383.17  4387.28  4402.73
                             4443.10  4456.02  4465.10  4473.13  4510.07
                             4518.28  4529.85  4536.33  4565.26  4576.10
                             4600.21  4601.11  4638.56  5023.53

 Zero-point correction=                           0.341344 (Hartree/Particle)
 Thermal correction to Energy=                    0.359389
 Thermal correction to Enthalpy=                  0.360333
 Thermal correction to Gibbs Free Energy=         0.293299
 Sum of electronic and zero-point Energies=           -844.312710
 Sum of electronic and thermal Energies=              -844.294666
 Sum of electronic and thermal Enthalpies=            -844.293722
 Sum of electronic and thermal Free Energies=         -844.360756

                     E (Thermal)             CV                S
                      KCal/Mol        Cal/Mol-Kelvin    Cal/Mol-Kelvin
 Total                  225.520             70.037            141.085
 Electronic               0.000              0.000              0.000
 Translational            0.889              2.981             42.658
 Rotational               0.889              2.981             34.357
 Vibrational            223.742             64.076             64.070
 Vibration     1          0.593              1.986              6.671
 Vibration     2          0.594              1.984              5.806
 Vibration     3          0.594              1.981              5.331
 Vibration     4          0.597              1.971              4.307
 Vibration     5          0.598              1.969              4.173
 Vibration     6          0.602              1.956              3.645
 Vibration     7          0.607              1.938              3.199
 Vibration     8          0.619              1.898              2.625
 Vibration     9          0.635              1.848              2.185
 Vibration    10          0.641              1.829              2.066
 Vibration    11          0.649              1.806              1.936
 Vibration    12          0.651              1.798              1.891
 Vibration    13          0.661              1.768              1.753
 Vibration    14          0.669              1.745              1.658
 Vibration    15          0.689              1.683              1.445
 Vibration    16          0.707              1.631              1.300
 Vibration    17          0.724              1.583              1.184
 Vibration    18          0.746              1.523              1.059
 Vibration    19          0.763              1.479              0.978
 Vibration    20          0.788              1.414              0.872
 Vibration    21          0.792              1.402              0.854
 Vibration    22          0.813              1.351              0.783
 Vibration    23          0.836              1.296              0.712
 Vibration    24          0.881              1.192              0.595
 Vibration    25          0.891              1.171              0.575
 Vibration    26          0.935              1.078              0.489
 Vibration    27          0.956              1.036              0.453

 Optimization completed.
    -- Stationary point found.
 Normal termination of Gaussian 16 at Sat Dec 12 16:56:22 2020.

 ----------------------------------------------------------------------
 # B3LYP/6-311++G(d,p) empiricaldispersion=gd3bj scf=xqc pop=npa geom=c
 heck
 ----------------------------------------------------------------------

 ----------------------------------------
 CID_116065205_JID_10789_Energie_neutraal
 ----------------------------------------
 Structure from the checkpoint file:  "JID_10789.chk"
 Charge =  0 Multiplicity = 1

 SCF Done:  E(RB3LYP) =  -844.875128863     A.U. after   15 cycles
 Normal termination of Gaussian 16 at Sat Dec 12 17:03:45 2020.

 ----------------------------------------------------------------------
 # B3LYP/6-311++G(d,p) empiricaldispersion=gd3bj scf=xqc pop=npa geom=c
 heck
 ----------------------------------------------------------------------

 --------------------------------------
 CID_116065205_JID_10789_Energie_kation
 --------------------------------------
 Structure from the checkpoint file:  "JID_10789.chk"
 Charge =  1 Multiplicity = 2

 SCF Done:  E(UB3LYP) =  -844.605392052     A.U. after   24 cycles
 Normal termination of Gaussian 16 at Sat Dec 12 17:20:12 2020.
 Gaussian 16:  ES64L-G16RevA.03 25-Dec-2016

 ----------------------------------------------------------------------
 # B3LYP/6-311++G(d,p) empiricaldispersion=gd3bj scf=xqc pop=npa geom=c
 heck
 ----------------------------------------------------------------------

 -------------------------------------
 CID_116065205_JID_10789_Energie_anion
 -------------------------------------
 Structure from the checkpoint file:  "JID_10789.chk"
 Charge = -1 Multiplicity = 2

                         Standard orientation:
 ---------------------------------------------------------------------
 Center     Atomic      Atomic             Coordinates (Angstroms)
 Number     Number       Type             X           Y           Z
 ---------------------------------------------------------------------
      1          6           0       -5.221788   -2.402098   -0.195819
      2          6           0       -4.077661   -1.385466   -0.112945
      3          6           0       -3.467913   -1.139518   -1.502771
      4          7           0       -4.575133   -0.168761    0.551557
      5          6           0       -3.621961    0.572213    1.379866
      6          6           0       -2.386031    1.104807    0.678806
      7          6           0       -1.158351    0.448862    0.748204
      8          6           0       -0.058747    0.920717    0.018152
      9          6           0       -0.267547    2.073329   -0.757394
     10          7           0       -1.424231    2.739691   -0.819451
     11          6           0       -2.450743    2.257782   -0.112624
     12          6           0        1.252622    0.240823    0.049402
     13          6           0        2.449331    0.985580    0.022270
     14          6           0        3.667767    0.328167    0.038825
     15          6           0        3.709468   -1.068023    0.090367
     16          6           0        2.551749   -1.836108    0.125339
     17          6           0        1.329700   -1.161554    0.103165
     18          8           0        4.976273   -1.571966    0.114037
     19          6           0        5.884495   -0.471588   -0.155691
     20          6           0        5.091059    0.835546    0.082582
     21          1           0       -6.035051   -2.010715   -0.819931
     22          1           0       -5.629418   -2.600624    0.799551
     23          1           0       -4.883704   -3.346558   -0.638459
     24          1           0       -3.298898   -1.799612    0.542148
     25          1           0       -4.223248   -0.710051   -2.174475
     26          1           0       -2.620311   -0.451902   -1.463315
     27          1           0       -3.126616   -2.079488   -1.952539
     28          1           0       -4.990793    0.452681   -0.140046
     29          1           0       -4.172561    1.405174    1.833321
     30          1           0       -3.313701   -0.086464    2.200970
     31          1           0       -1.049743   -0.427325    1.383173
     32          1           0        0.542053    2.464776   -1.370460
     33          1           0       -3.383162    2.819356   -0.178996
     34          1           0        2.408886    2.071032    0.014198
     35          1           0        2.603250   -2.919078    0.153502
     36          1           0        0.410627   -1.740070    0.095317
     37          1           0        6.749093   -0.592596    0.499627
     38          1           0        6.211641   -0.557057   -1.198630
     39          1           0        5.310857    1.589015   -0.680210
     40          1           0        5.323452    1.277883    1.059796
 ---------------------------------------------------------------------

 SCF Done:  E(UB3LYP) =  -844.869920572     A.U. after   33 cycles
 SCF Done:  E(UB3LYP) =  -844.869920572     a.u. after    1 cycles

 The electronic state is 2-A.
 Alpha  occ. eigenvalues --  -19.04358 -14.20350 -14.17489 -10.12747 -10.11184
 Alpha  occ. eigenvalues --  -10.11001 -10.09980 -10.08293 -10.07718 -10.07519
 Alpha  occ. eigenvalues --  -10.06805 -10.06583 -10.06531 -10.06381 -10.06261
 Alpha  occ. eigenvalues --  -10.06046 -10.06033 -10.05941 -10.05213 -10.04843
 Alpha  occ. eigenvalues --   -0.96524  -0.81867  -0.80927  -0.74771  -0.69599
 Alpha  occ. eigenvalues --   -0.68974  -0.67898  -0.65475  -0.62419  -0.61267
 Alpha  occ. eigenvalues --   -0.59823  -0.56633  -0.53533  -0.51513  -0.50088
 Alpha  occ. eigenvalues --   -0.49499  -0.48507  -0.45963  -0.40796  -0.39737
 Alpha  occ. eigenvalues --   -0.39573  -0.38458  -0.38318  -0.37761  -0.36667
 Alpha  occ. eigenvalues --   -0.35289  -0.33609  -0.33417  -0.32740  -0.31014
 Alpha  occ. eigenvalues --   -0.30455  -0.30009  -0.29942  -0.29520  -0.29266
 Alpha  occ. eigenvalues --   -0.27737  -0.27308  -0.27183  -0.27000  -0.26443
 Alpha  occ. eigenvalues --   -0.25602  -0.25351  -0.24706  -0.23810  -0.22554
 Alpha  occ. eigenvalues --   -0.21379  -0.16641  -0.15061  -0.14451  -0.13556
 Alpha  occ. eigenvalues --   -0.12568  -0.09770   0.04541
 Alpha virt. eigenvalues --    0.06078   0.06228   0.07851   0.07947   0.08103
 Alpha virt. eigenvalues --    0.08551   0.08655   0.09198   0.09716   0.09925
 Alpha virt. eigenvalues --    0.10421   0.10830   0.10959   0.11320   0.11610

  Beta  occ. eigenvalues --  -19.04330 -14.20349 -14.17305 -10.12718 -10.11183
  Beta  occ. eigenvalues --  -10.10863 -10.09974 -10.08270 -10.07765 -10.07515
  Beta  occ. eigenvalues --  -10.06849 -10.06582 -10.06406 -10.06296 -10.06217
  Beta  occ. eigenvalues --  -10.06124 -10.05981 -10.05834 -10.05038 -10.04611
  Beta  occ. eigenvalues --   -0.96438  -0.81751  -0.80695  -0.74621  -0.69441
  Beta  occ. eigenvalues --   -0.68936  -0.67650  -0.65309  -0.62300  -0.61035
  Beta  occ. eigenvalues --   -0.59816  -0.56534  -0.53379  -0.51166  -0.50020
  Beta  occ. eigenvalues --   -0.49377  -0.48396  -0.45823  -0.40708  -0.39646
  Beta  occ. eigenvalues --   -0.39497  -0.38387  -0.38242  -0.37713  -0.36546
  Beta  occ. eigenvalues --   -0.35163  -0.33574  -0.33391  -0.32664  -0.30958
  Beta  occ. eigenvalues --   -0.30396  -0.29973  -0.29888  -0.29383  -0.29172
  Beta  occ. eigenvalues --   -0.27484  -0.27115  -0.26927  -0.26714  -0.26384
  Beta  occ. eigenvalues --   -0.25542  -0.25225  -0.24608  -0.23661  -0.22442
  Beta  occ. eigenvalues --   -0.20993  -0.15532  -0.14684  -0.14108  -0.13183
  Beta  occ. eigenvalues --   -0.12390  -0.09177
  Beta virt. eigenvalues --    0.06118   0.06894   0.07798   0.08013   0.08257
  Beta virt. eigenvalues --    0.08462   0.08764   0.08858   0.09571   0.09848
  Beta virt. eigenvalues --    0.10033   0.10362   0.10800   0.10940   0.11273

 Mulliken charges and spin densities:
               1          2
     1  C   -0.388711  -0.123822
     2  C   -0.176704   0.052498
     3  C   -0.509885   0.000393
     4  N    0.045995   0.037272
     5  C   -0.631554  -0.093273
     6  C    1.044319  -0.062071
     7  C   -0.852989   0.178310
     8  C    0.573241   0.108100
     9  C   -0.571515   0.144388
    10  N   -0.031519   0.072816
    11  C   -0.632450   0.183936
    12  C    0.821711   0.148699
    13  C   -0.567192   0.674796
    14  C    0.833150   0.164162
    15  C   -0.294544  -0.946545
    16  C   -0.946752   0.159811
    17  C   -0.850470   0.186751
    18  O   -0.174190   0.062712
    19  C    0.775661  -0.948145
    20  C    0.090638  -0.428039
    21  H    0.096835   0.029437
    22  H    0.116803   0.027879
    23  H    0.087137   0.022458
    24  H    0.142783  -0.016945
    25  H    0.098362   0.021649
    26  H    0.199454  -0.010255
    27  H    0.112436   0.001786
    28  H    0.188699   0.016303
    29  H    0.179405  -0.009532
    30  H    0.136383   0.018712
    31  H    0.050245   0.056367
    32  H    0.128112   0.018170
    33  H    0.118800  -0.008152
    34  H    0.131739   0.007532
    35  H    0.142490   0.022984
    36  H    0.097658   0.002874
    37  H   -0.316993   0.491066
    38  H   -0.131056   0.286582
    39  H    0.002092   0.154702
    40  H   -0.137625   0.293636
 Sum of Mulliken charges =  -1.00000   1.00000

 Dipole moment (field-independent basis, Debye):
    X=             -5.8582    Y=             -2.7000    Z=             -0.3340  Tot=              6.4591
 Quadrupole moment (field-independent basis, Debye-Ang):
   XX=           -224.8304   YY=           -150.1906   ZZ=           -140.5678
   XY=              7.9085   XZ=             -3.2923   YZ=              3.2483

 Summary of Natural Population Analysis:

                                       Natural Population
                Natural  -----------------------------------------------
    Atom  No    Charge         Core      Valence    Rydberg      Total
 -----------------------------------------------------------------------
      C    1   -0.28328      0.99965     2.27824    0.00538     3.28328
      C    2   -0.01544      0.99963     2.00640    0.00941     3.01544
      C    3   -0.29383      0.99965     2.28927    0.00491     3.29383
      N    4   -0.34431      0.99974     2.83097    0.01359     3.84431
      C    5   -0.08911      0.99959     2.07715    0.01236     3.08911
      C    6   -0.06488      0.99949     2.05692    0.00847     3.06488
      C    7   -0.04269      0.99948     2.03486    0.00834     3.04269
      C    8   -0.01816      0.99949     2.00730    0.01137     3.01816
      C    9    0.01702      0.99955     1.96850    0.01492     2.98298
      N   10   -0.21448      0.99971     2.70319    0.01158     3.71448
      C   11    0.05854      0.99953     1.92825    0.01368     2.94146
      C   12   -0.02793      0.99951     2.01851    0.00991     3.02793
      C   13   -0.06610      0.99949     2.05838    0.00822     3.06610
      C   14   -0.05423      0.99947     2.04573    0.00903     3.05423
      C   15    0.17652      0.99933     1.80941    0.01473     2.82348
      C   16   -0.13632      0.99952     2.12859    0.00821     3.13632
      C   17   -0.07843      0.99954     2.07182    0.00707     3.07843
      O   18   -0.27584      0.99987     3.26785    0.00812     4.27584
      C   19   -0.00560      0.99960     1.99437    0.01163     3.00560
      C   20   -0.20818      0.99962     2.20049    0.00807     3.20818
      H   21    0.09357      0.00000     0.40516    0.00127     0.40643
      H   22    0.10033      0.00000     0.39827    0.00140     0.39967
      H   23    0.09325      0.00000     0.40579    0.00096     0.40675
      H   24    0.09005      0.00000     0.40819    0.00176     0.40995
      H   25    0.09125      0.00000     0.40760    0.00115     0.40875
      H   26    0.11437      0.00000     0.38459    0.00104     0.38563
      H   27    0.09489      0.00000     0.40422    0.00088     0.40511
      H   28    0.17012      0.00000     0.32739    0.00248     0.32988
      H   29    0.09490      0.00000     0.40406    0.00104     0.40510
      H   30    0.09193      0.00000     0.40690    0.00117     0.40807
      H   31    0.09236      0.00000     0.40571    0.00193     0.40764
      H   32    0.08490      0.00000     0.41305    0.00205     0.41510
      H   33    0.07694      0.00000     0.42161    0.00145     0.42306
      H   34    0.09860      0.00000     0.39987    0.00153     0.40140
      H   35    0.10102      0.00000     0.39776    0.00122     0.39898
      H   36    0.09722      0.00000     0.40146    0.00132     0.40278
      H   37    0.09038      0.00000     0.40771    0.00191     0.40962
      H   38    0.08272      0.00000     0.41577    0.00151     0.41728
      H   39    0.10489      0.00000     0.39407    0.00105     0.39511
      H   40    0.10304      0.00000     0.39562    0.00134     0.39696
 =======================================================================
   * Total *    0.00000     19.99147    51.78105    0.22748    72.00000

 Normal termination of Gaussian 16 at Sat Dec 12 17:43:31 2020.
