 Gaussian 16, Revision A.03,

 -----------------------------------------------------------
 # opt freq B3LYP/6-31G(d) empiricaldispersion=gd3bj scf=xqc
 -----------------------------------------------------------

 -------------------------------
 CID_129846787_JID_1829_neutraal
 -------------------------------
 Symbolic Z-matrix:
 Charge =  0 Multiplicity = 1

 SCF Done:  E(RB3LYP) =  -574.860546828     A.U. after   14 cycles
 SCF Done:  E(RB3LYP) =  -574.863985872     A.U. after   12 cycles
 SCF Done:  E(RB3LYP) =  -574.863369144     A.U. after   13 cycles
 SCF Done:  E(RB3LYP) =  -574.864633808     A.U. after   11 cycles
 SCF Done:  E(RB3LYP) =  -574.864666329     A.U. after   10 cycles
 SCF Done:  E(RB3LYP) =  -574.864672784     A.U. after   10 cycles
 SCF Done:  E(RB3LYP) =  -574.864674989     A.U. after    9 cycles
 SCF Done:  E(RB3LYP) =  -574.864675884     A.U. after    8 cycles
 SCF Done:  E(RB3LYP) =  -574.864676223     A.U. after    8 cycles
 SCF Done:  E(RB3LYP) =  -574.864676263     A.U. after    7 cycles
 SCF Done:  E(RB3LYP) =  -574.864676395     A.U. after    8 cycles
 SCF Done:  E(RB3LYP) =  -574.864676435     A.U. after    8 cycles
 SCF Done:  E(RB3LYP) =  -574.864676458     A.U. after    7 cycles
 SCF Done:  E(RB3LYP) =  -574.864676449     A.U. after    7 cycles
 Optimization completed.
    -- Stationary point found.

 1\1\GINC-NODE101\FOpt\RB3LYP\6-31G(d)\C7H12O4\VSC10255\08-Dec-2020\0\\
 # opt freq B3LYP/6-31G(d) empiricaldispersion=gd3bj scf=xqc\\CID_12984
 6787_JID_1829_neutraal\\0,1\C,0.9794369918,-0.0196438605,0.0899479763\
 C,0.5288521072,1.370580133,0.5468299165\C,0.9979733051,2.5261637317,-0
 .3125137774\O,0.4248728386,3.5842964791,-0.4323740478\O,2.1850633951,2
 .2735026561,-0.9290934757\C,0.3814755018,-0.42672914,-1.2690474699\C,0
 .8920874528,-1.7792049569,-1.6994310637\C,0.1311164772,-2.7707958959,-
 2.1675359267\C,0.6551429408,-4.1224172804,-2.55720705\O,0.0431592706,-

 Normal termination of Gaussian 16 at Tue Dec  8 21:16:42 2020.

 --------------------------------------------------------------------
 #N Geom=AllCheck Guess=TCheck SCRF=Check GenChk RB3LYP/6-31G(d) Freq
 --------------------------------------------------------------------

 Structure from the checkpoint file:  "JID_1829.chk"
 -------------------------------
 CID_129846787_JID_1829_neutraal
 -------------------------------
 Charge =  0 Multiplicity = 1

 SCF Done:  E(RB3LYP) =  -574.864676449     A.U. after    1 cycles

  Exact polarizability: 115.082  -1.293  77.304   0.426  -0.312  68.394
 Approx polarizability: 143.204  -4.667 119.431   2.699   4.933 100.875

                      1                      2                      3
                      A                      A                      A
 Frequencies --     29.2370                35.6603                42.1280
 Red. masses --      9.7872                 5.7813                 4.7717
 Frc consts  --      0.0049                 0.0043                 0.0050
 IR Inten    --      1.5812                 0.1274                 1.2103

                      4                      5                      6
                      A                      A                      A
 Frequencies --     84.3408               114.7909               141.2743
 Red. masses --      4.8536                 4.2852                 2.6481
 Frc consts  --      0.0203                 0.0333                 0.0311
 IR Inten    --      0.5626                 2.0650                 0.8400

                      7                      8                      9
                      A                      A                      A
 Frequencies --    170.9193               237.8877               309.7320
 Red. masses --      2.7739                 2.8921                 2.8686
 Frc consts  --      0.0477                 0.0964                 0.1621
 IR Inten    --      3.0676                 2.6909                 3.9612

                     10                     11                     12
                      A                      A                      A
 Frequencies --    327.3075               353.8192               366.0267
 Red. masses --      4.1353                 1.1424                 1.7552
 Frc consts  --      0.2610                 0.0843                 0.1385
 IR Inten    --      2.2463               172.8088                19.7957

                     13                     14                     15
                      A                      A                      A
 Frequencies --    407.7840               441.9485               472.5457
 Red. masses --      1.5773                 2.7009                 2.3526
 Frc consts  --      0.1545                 0.3108                 0.3095
 IR Inten    --     37.1010                30.1258                16.5122

                     16                     17                     18
                      A                      A                      A
 Frequencies --    520.5452               553.0631               602.2493
 Red. masses --      2.5971                 3.6777                 2.3900
 Frc consts  --      0.4146                 0.6628                 0.5107
 IR Inten    --     40.7282                29.2157                22.4762

                     19                     20                     21
                      A                      A                      A
 Frequencies --    674.9028               706.5119               801.1354
 Red. masses --      2.1206                 1.7871                 2.4688
 Frc consts  --      0.5691                 0.5256                 0.9336
 IR Inten    --     33.8184                63.0396                13.4365

                     22                     23                     24
                      A                      A                      A
 Frequencies --    820.8495               857.2804               933.5172
 Red. masses --      2.7990                 2.3077                 1.8907
 Frc consts  --      1.1112                 0.9992                 0.9708
 IR Inten    --      5.8632                 8.8280                28.7142

                     25                     26                     27
                      A                      A                      A
 Frequencies --    964.8913               992.3487              1011.5901
 Red. masses --      2.0321                 2.2009                 1.8933
 Frc consts  --      1.1147                 1.2770                 1.1415
 IR Inten    --     18.3084                41.3683                41.3434

                     28                     29                     30
                      A                      A                      A
 Frequencies --   1031.2156              1052.9679              1093.1147
 Red. masses --      1.2609                 5.1760                 2.4761
 Frc consts  --      0.7900                 3.3812                 1.7432
 IR Inten    --     11.7872                84.9993                16.3983

                     31                     32                     33
                      A                      A                      A
 Frequencies --   1118.4696              1144.3171              1158.0043
 Red. masses --      2.6014                 2.5070                 1.5400
 Frc consts  --      1.9174                 1.9342                 1.2167
 IR Inten    --     64.9009                74.9376                38.4973

                     34                     35                     36
                      A                      A                      A
 Frequencies --   1204.5432              1232.9241              1250.4161
 Red. masses --      1.1960                 1.5236                 1.2796
 Frc consts  --      1.0224                 1.3646                 1.1788
 IR Inten    --     10.0189               131.0157                 3.0473

                     37                     38                     39
                      A                      A                      A
 Frequencies --   1304.2278              1309.2429              1328.4469
 Red. masses --      1.4277                 1.2501                 1.3481
 Frc consts  --      1.4309                 1.2625                 1.4017
 IR Inten    --     14.1511                 1.4225                 1.4272

                     40                     41                     42
                      A                      A                      A
 Frequencies --   1347.8220              1370.8722              1387.5888
 Red. masses --      1.4403                 1.5538                 1.3296
 Frc consts  --      1.5416                 1.7205                 1.5083
 IR Inten    --     10.6128                17.2703                 6.1986

                     43                     44                     45
                      A                      A                      A
 Frequencies --   1397.4410              1408.3776              1429.8168
 Red. masses --      1.5194                 1.5172                 1.2822
 Frc consts  --      1.7482                 1.7731                 1.5444
 IR Inten    --      5.2411                12.2780                84.7975

                     46                     47                     48
                      A                      A                      A
 Frequencies --   1438.7023              1486.8199              1509.7313
 Red. masses --      1.2496                 1.0807                 1.0927
 Frc consts  --      1.5240                 1.4075                 1.4675
 IR Inten    --     45.7293                 8.2847                 5.1630

                     49                     50                     51
                      A                      A                      A
 Frequencies --   1530.7837              1749.9375              1855.2790
 Red. masses --      1.0928                 6.2348                 9.7256
 Frc consts  --      1.5088                11.2492                19.7236
 IR Inten    --      1.4887                 1.6642               308.1141

                     52                     53                     54
                      A                      A                      A
 Frequencies --   3001.9236              3035.6546              3055.7815
 Red. masses --      1.0702                 1.0695                 1.0800
 Frc consts  --      5.6821                 5.8069                 5.9419
 IR Inten    --     58.5861                14.4847                24.5723

                     55                     56                     57
                      A                      A                      A
 Frequencies --   3059.3707              3087.3253              3103.0610
 Red. masses --      1.0717                 1.0933                 1.0956
 Frc consts  --      5.9099                 6.1396                 6.2154
 IR Inten    --     21.8587                32.3510                12.8875

                     58                     59                     60
                      A                      A                      A
 Frequencies --   3141.8094              3144.4956              3177.5535
 Red. masses --      1.0920                 1.0895                 1.0884
 Frc consts  --      6.3508                 6.3473                 6.4747
 IR Inten    --      0.0930                22.6038                 9.4394

                     61                     62                     63
                      A                      A                      A
 Frequencies --   3683.9435              3711.2350              3733.9996
 Red. masses --      1.0640                 1.0655                 1.0661
 Frc consts  --      8.5079                 8.6466                 8.7582
 IR Inten    --     50.8341                 7.8503                 6.8961

 - Thermochemistry -
 -------------------
 Temperature   298.150 Kelvin.  Pressure   1.00000 Atm.
 Atom     1 has atomic number  6 and mass  12.00000

 Molecular mass:   160.07356 amu.
 Principal axes and moments of inertia in atomic units:
                           1         2         3
     Eigenvalues --   583.455214869.478475012.53653
           X            0.99998   0.00286  -0.00531
           Y           -0.00325   0.99719  -0.07490
           Z            0.00508   0.07492   0.99718
 This molecule is an asymmetric top.
 Rotational symmetry number  1.
 Warning -- assumption of classical behavior for rotation
           may cause significant error
 Rotational temperatures (Kelvin)      0.14845     0.01779     0.01728
 Rotational constants (GHZ):           3.09320     0.37062     0.36005
 Zero-point vibrational energy     502739.6 (Joules/Mol)
                                  120.15766 (Kcal/Mol)
 Warning -- explicit consideration of  18 degrees of freedom as
           vibrations may cause significant error
 Vibrational temperatures:     42.07    51.31    60.61   121.35   165.16
          (Kelvin)            203.26   245.91   342.27   445.64   470.92
                              509.07   526.63   586.71   635.87   679.89
                              748.95   795.73   866.50   971.03  1016.51
                             1152.66  1181.02  1233.44  1343.12  1388.26
                             1427.77  1455.45  1483.69  1514.99  1572.75
                             1609.23  1646.42  1666.11  1733.07  1773.90
                             1799.07  1876.49  1883.71  1911.34  1939.22
                             1972.38  1996.43  2010.61  2026.34  2057.19
                             2069.97  2139.20  2172.17  2202.46  2517.77
                             2669.33  4319.10  4367.63  4396.59  4401.75
                             4441.97  4464.61  4520.36  4524.23  4571.79
                             5300.37  5339.64  5372.39

 Zero-point correction=                           0.191483 (Hartree/Particle)
 Thermal correction to Energy=                    0.203933
 Thermal correction to Enthalpy=                  0.204877
 Thermal correction to Gibbs Free Energy=         0.150715
 Sum of electronic and zero-point Energies=           -574.673193
 Sum of electronic and thermal Energies=              -574.660744
 Sum of electronic and thermal Enthalpies=            -574.659800
 Sum of electronic and thermal Free Energies=         -574.713961

                     E (Thermal)             CV                S
                      KCal/Mol        Cal/Mol-Kelvin    Cal/Mol-Kelvin
 Total                  127.970             44.119            113.993
 Electronic               0.000              0.000              0.000
 Translational            0.889              2.981             41.120
 Rotational               0.889              2.981             31.033
 Vibrational            126.192             38.157             41.840
 Vibration     1          0.593              1.984              5.881
 Vibration     2          0.594              1.982              5.487
 Vibration     3          0.595              1.980              5.156
 Vibration     4          0.601              1.960              3.787
 Vibration     5          0.608              1.937              3.186
 Vibration     6          0.615              1.912              2.787
 Vibration     7          0.626              1.878              2.425
 Vibration     8          0.656              1.783              1.819
 Vibration     9          0.699              1.655              1.364
 Vibration    10          0.711              1.621              1.273
 Vibration    11          0.730              1.567              1.149
 Vibration    12          0.739              1.542              1.096
 Vibration    13          0.772              1.453              0.934
 Vibration    14          0.802              1.379              0.821
 Vibration    15          0.829              1.311              0.730
 Vibration    16          0.876              1.204              0.609
 Vibration    17          0.908              1.133              0.538
 Vibration    18          0.961              1.027              0.446

 Optimization completed.
    -- Stationary point found.

 1\1\GINC-NODE101\Freq\RB3LYP\6-31G(d)\C7H12O4\VSC10255\08-Dec-2020\0\\
 #N Geom=AllCheck Guess=TCheck SCRF=Check GenChk RB3LYP/6-31G(d) Freq\\
 CID_129846787_JID_1829_neutraal\\0,1\C,0.9794369918,-0.0196438605,0.08
 99479763\C,0.5288521072,1.370580133,0.5468299165\C,0.9979733051,2.5261
 637317,-0.3125137774\O,0.4248728386,3.5842964791,-0.4323740478\O,2.185
 0633951,2.2735026561,-0.9290934757\C,0.3814755018,-0.42672914,-1.26904
 74699\C,0.8920874528,-1.7792049569,-1.6994310637\C,0.1311164772,-2.770
 7958959,-2.1675359267\C,0.6551429408,-4.1224172804,-2.55720705\O,0.043

 Normal termination of Gaussian 16 at Tue Dec  8 21:21:12 2020.

 ----------------------------------------------------------------------
 # B3LYP/6-311++G(d,p) empiricaldispersion=gd3bj scf=xqc pop=npa geom=c
 heck
 ----------------------------------------------------------------------

 ---------------------------------------
 CID_129846787_JID_1829_Energie_neutraal
 ---------------------------------------
 Structure from the checkpoint file:  "JID_1829.chk"
 Charge =  0 Multiplicity = 1

 SCF Done:  E(RB3LYP) =  -575.066382954     A.U. after   14 cycles
 Normal termination of Gaussian 16 at Tue Dec  8 21:24:16 2020.

 ----------------------------------------------------------------------
 # B3LYP/6-311++G(d,p) empiricaldispersion=gd3bj scf=xqc pop=npa geom=c
 heck
 ----------------------------------------------------------------------

 -------------------------------------
 CID_129846787_JID_1829_Energie_kation
 -------------------------------------
 Structure from the checkpoint file:  "JID_1829.chk"
 Charge =  1 Multiplicity = 2

 SCF Done:  E(UB3LYP) =  -574.723678843     A.U. after   27 cycles
 Normal termination of Gaussian 16 at Tue Dec  8 21:30:52 2020.
 Gaussian 16:  ES64L-G16RevA.03 25-Dec-2016

 ------------------------------------
 CID_129846787_JID_1829_Energie_anion
 ------------------------------------
 Structure from the checkpoint file:  "JID_1829.chk"
 Charge = -1 Multiplicity = 2

                         Standard orientation:
 ---------------------------------------------------------------------
 Center     Atomic      Atomic             Coordinates (Angstroms)
 Number     Number       Type             X           Y           Z
 ---------------------------------------------------------------------
      1          6           0       -0.791723    0.018840    1.047354
      2          6           0       -2.198237   -0.577363    0.943667
      3          6           0       -3.135987    0.120840   -0.019172
      4          8           0       -4.062345   -0.402409   -0.594085
      5          8           0       -2.857646    1.446522   -0.154387
      6          6           0        0.011044   -0.108853   -0.260088
      7          6           0        1.368251    0.535179   -0.124597
      8          6           0        2.520254   -0.020345   -0.506350
      9          6           0        3.864774    0.623440   -0.329906
     10          8           0        4.742165   -0.178008    0.462741
     11          8           0        0.082076   -1.463342   -0.694121
     12          1           0       -0.243083   -0.499898    1.845895
     13          1           0       -0.849029    1.073772    1.335161
     14          1           0       -2.153908   -1.623384    0.632703
     15          1           0       -2.686654   -0.552147    1.926963
     16          1           0       -3.530354    1.794755   -0.769544
     17          1           0       -0.545724    0.405055   -1.054668
     18          1           0        1.372697    1.529094    0.325811
     19          1           0        2.517945   -1.004972   -0.970879
     20          1           0        4.372605    0.725814   -1.295485
     21          1           0        3.750570    1.634729    0.092153
     22          1           0        4.298403   -0.316960    1.314269
     23          1           0        0.632277   -1.938399   -0.049011
 ---------------------------------------------------------------------

 SCF Done:  E(UB3LYP) =  -575.057152806     A.U. after   31 cycles

 The electronic state is 2-A.
 Alpha  occ. eigenvalues --  -19.06978 -19.02797 -19.02681 -19.01508 -10.20592
 Alpha  occ. eigenvalues --  -10.12933 -10.12700 -10.08252 -10.08120 -10.07642
 Alpha  occ. eigenvalues --  -10.07283  -1.00980  -0.93167  -0.92765  -0.92088
 Alpha  occ. eigenvalues --   -0.71168  -0.69058  -0.62647  -0.57355  -0.53077
 Alpha  occ. eigenvalues --   -0.49713  -0.46959  -0.42621  -0.39797  -0.39459
 Alpha  occ. eigenvalues --   -0.38146  -0.37115  -0.36516  -0.35500  -0.34289
 Alpha  occ. eigenvalues --   -0.32852  -0.30590  -0.29388  -0.27950  -0.27434
 Alpha  occ. eigenvalues --   -0.26201  -0.24884  -0.23316  -0.22669  -0.19310
 Alpha  occ. eigenvalues --   -0.18852  -0.18208  -0.16396   0.04305
 Alpha virt. eigenvalues --    0.06284   0.07320   0.08164   0.08551   0.09004
 Alpha virt. eigenvalues --    0.09616   0.10712   0.10988   0.11343   0.11663
 Alpha virt. eigenvalues --    0.13241   0.13846   0.14193   0.14591   0.16354

  Beta  occ. eigenvalues --  -19.06931 -19.02764 -19.02655 -19.01487 -10.20575
  Beta  occ. eigenvalues --  -10.12924 -10.12687 -10.08226 -10.08101 -10.07635
  Beta  occ. eigenvalues --  -10.07247  -1.00910  -0.93108  -0.92696  -0.92029
  Beta  occ. eigenvalues --   -0.71117  -0.69008  -0.62590  -0.57282  -0.52988
  Beta  occ. eigenvalues --   -0.49612  -0.46905  -0.42565  -0.39745  -0.39419
  Beta  occ. eigenvalues --   -0.38074  -0.37062  -0.36465  -0.35446  -0.34258
  Beta  occ. eigenvalues --   -0.32791  -0.30537  -0.29338  -0.27891  -0.27376
  Beta  occ. eigenvalues --   -0.26152  -0.24848  -0.23271  -0.22611  -0.19267
  Beta  occ. eigenvalues --   -0.18810  -0.18143  -0.16346
  Beta virt. eigenvalues --    0.06986   0.07450   0.08130   0.08562   0.08773
  Beta virt. eigenvalues --    0.09411   0.10067   0.11012   0.11267   0.11793
  Beta virt. eigenvalues --    0.12034   0.13412   0.14052   0.14416   0.14766

 Mulliken charges and spin densities:
               1          2
     1  C    0.315757  -0.745531
     2  C    0.526309  -0.899775
     3  C   -0.011999  -0.073270
     4  O   -0.290371   0.029431
     5  O   -0.192251   0.045532
     6  C    0.699878  -0.763889
     7  C   -1.347989   1.382210
     8  C    0.748815  -0.710759
     9  C    0.596849  -1.189139
    10  O   -0.279480   0.041080
    11  O   -0.222038   0.001003
    12  H   -0.710312   0.908583
    13  H   -0.017485   0.189265
    14  H    0.128774   0.089860
    15  H   -0.300659   0.491249
    16  H   -0.304729   0.599946
    17  H    0.137974   0.055168
    18  H   -0.316568   0.458741
    19  H   -0.048040   0.215513
    20  H    0.129196   0.007257
    21  H   -0.159579   0.314908
    22  H   -0.105466   0.353124
    23  H    0.023415   0.199493
 Sum of Mulliken charges =  -1.00000   1.00000

 Dipole moment (field-independent basis, Debye):
    X=              0.9971    Y=              0.1999    Z=             -3.0292  Tot=              3.1953
 Quadrupole moment (field-independent basis, Debye-Ang):
   XX=           -148.0048   YY=            -96.9749   ZZ=            -98.3822
   XY=              5.4655   XZ=            -10.1431   YZ=              0.8057

 Summary of Natural Population Analysis:

                                       Natural Population
                Natural  -----------------------------------------------
    Atom  No    Charge         Core      Valence    Rydberg      Total
 -----------------------------------------------------------------------
      C    1   -0.19863      0.99961     2.18896    0.01007     3.19863
      C    2   -0.24136      0.99957     2.23202    0.00977     3.24136
      C    3    0.41077      0.99972     1.56416    0.02535     2.58923
      O    4   -0.30737      0.99987     3.30134    0.00616     4.30737
      O    5   -0.34900      0.99988     3.34183    0.00729     4.34900
      C    6    0.04539      0.99954     1.93999    0.01508     2.95461
      C    7   -0.08985      0.99950     2.07970    0.01066     3.08985
      C    8   -0.11486      0.99951     2.10519    0.01016     3.11486
      C    9   -0.02443      0.99958     2.01081    0.01403     3.02443
      O   10   -0.36766      0.99990     3.36114    0.00662     4.36766
      O   11   -0.36958      0.99990     3.36329    0.00639     4.36958
      H   12    0.10376      0.00000     0.39192    0.00432     0.39624
      H   13    0.10789      0.00000     0.38948    0.00263     0.39211
      H   14    0.11743      0.00000     0.38130    0.00127     0.38257
      H   15    0.11831      0.00000     0.38007    0.00163     0.38169
      H   16    0.24286      0.00000     0.24726    0.00988     0.25714
      H   17    0.09605      0.00000     0.40201    0.00194     0.40395
      H   18    0.09825      0.00000     0.40023    0.00152     0.40175
      H   19    0.09922      0.00000     0.39942    0.00136     0.40078
      H   20    0.08580      0.00000     0.41296    0.00125     0.41420
      H   21    0.07804      0.00000     0.42052    0.00144     0.42196
      H   22    0.23100      0.00000     0.26320    0.00580     0.26900
      H   23    0.22798      0.00000     0.26865    0.00337     0.27202
 =======================================================================
   * Total *   -0.00000     10.99657    31.84543    0.15800    43.00000

 Normal termination of Gaussian 16 at Tue Dec  8 21:39:38 2020.
