 Gaussian 16, Revision A.03,

 -----------------------------------------------------------
 # opt freq B3LYP/6-31G(d) empiricaldispersion=gd3bj scf=xqc
 -----------------------------------------------------------

 -------------------------------
 CID_131291126_JID_5724_neutraal
 -------------------------------
 Symbolic Z-matrix:
 Charge =  0 Multiplicity = 1

 SCF Done:  E(RB3LYP) =  -1373.25517275     A.U. after   15 cycles
 SCF Done:  E(RB3LYP) =  -1373.26227695     A.U. after   12 cycles
 SCF Done:  E(RB3LYP) =  -1373.26285486     A.U. after   12 cycles
 SCF Done:  E(RB3LYP) =  -1373.26296435     A.U. after   11 cycles
 SCF Done:  E(RB3LYP) =  -1373.26301225     A.U. after   11 cycles
 SCF Done:  E(RB3LYP) =  -1373.26308460     A.U. after   11 cycles
 SCF Done:  E(RB3LYP) =  -1373.26307606     A.U. after   11 cycles
 SCF Done:  E(RB3LYP) =  -1373.26403900     A.U. after   14 cycles
 SCF Done:  E(RB3LYP) =  -1373.26074053     A.U. after   15 cycles
 SCF Done:  E(RB3LYP) =  -1373.26432970     A.U. after   12 cycles
 SCF Done:  E(RB3LYP) =  -1373.26638266     A.U. after   10 cycles
 SCF Done:  E(RB3LYP) =  -1373.26639135     A.U. after   10 cycles
 SCF Done:  E(RB3LYP) =  -1373.26639655     A.U. after   10 cycles
 SCF Done:  E(RB3LYP) =  -1373.26639702     A.U. after    8 cycles
 SCF Done:  E(RB3LYP) =  -1373.26639713     A.U. after    6 cycles
 Optimization completed.
    -- Stationary point found.
 Normal termination of Gaussian 16 at Thu Dec 10 16:43:59 2020.

 --------------------------------------------------------------------
 #N Geom=AllCheck Guess=TCheck SCRF=Check GenChk RB3LYP/6-31G(d) Freq
 --------------------------------------------------------------------

 Structure from the checkpoint file:  "JID_5724.chk"
 -------------------------------
 CID_131291126_JID_5724_neutraal
 -------------------------------
 Charge =  0 Multiplicity = 1

 SCF Done:  E(RB3LYP) =  -1373.26639713     A.U. after    1 cycles

  Exact polarizability: 216.987   4.255 173.888   3.722   1.457  86.312
 Approx polarizability: 320.990  23.156 302.896   7.653  11.018 132.881

                      1                      2                      3
                      A                      A                      A
 Frequencies --     38.7099                53.7149                80.5179
 Red. masses --      3.8913                 3.2501                 3.4519
 Frc consts  --      0.0034                 0.0055                 0.0132
 IR Inten    --      1.2325                 1.9538                 0.2200

                      4                      5                      6
                      A                      A                      A
 Frequencies --     93.7419               123.5912               137.3692
 Red. masses --      4.9217                 5.0787                 2.8338
 Frc consts  --      0.0255                 0.0457                 0.0315
 IR Inten    --      0.5581                 0.4476                 0.7732

                      7                      8                      9
                      A                      A                      A
 Frequencies --    151.6017               165.6236               192.5156
 Red. masses --      2.7674                 1.5081                 1.8217
 Frc consts  --      0.0375                 0.0244                 0.0398
 IR Inten    --      0.3746                 0.7571                 2.4267

                     10                     11                     12
                      A                      A                      A
 Frequencies --    239.7170               254.6636               289.6668
 Red. masses --      1.8138                 4.6647                 4.1958
 Frc consts  --      0.0614                 0.1782                 0.2074
 IR Inten    --      1.2260                 0.3678                 1.6200

                     13                     14                     15
                      A                      A                      A
 Frequencies --    311.4078               332.0757               335.6208
 Red. masses --      4.2010                 2.4052                 1.5610
 Frc consts  --      0.2400                 0.1563                 0.1036
 IR Inten    --      3.0686                50.0109                63.5797

                     16                     17                     18
                      A                      A                      A
 Frequencies --    357.1447               392.7899               440.6065
 Red. masses --      6.3001                 8.5444                 6.7328
 Frc consts  --      0.4735                 0.7767                 0.7701
 IR Inten    --      2.2133                 2.0654                 1.3261

                     19                     20                     21
                      A                      A                      A
 Frequencies --    456.7435               484.6073               545.7241
 Red. masses --      5.7748                 4.1339                 5.5644
 Frc consts  --      0.7098                 0.5720                 0.9764
 IR Inten    --      6.8030                 8.1255                 1.8425

                     22                     23                     24
                      A                      A                      A
 Frequencies --    563.8457               584.8464               623.3813
 Red. masses --      5.5927                 4.4153                 3.2079
 Frc consts  --      1.0476                 0.8898                 0.7345
 IR Inten    --      0.9064                 0.8377                 0.3714

                     25                     26                     27
                      A                      A                      A
 Frequencies --    653.4847               695.6252               702.8321
 Red. masses --      7.2141                 6.2448                 7.0489
 Frc consts  --      1.8151                 1.7804                 2.0515
 IR Inten    --      0.7215                 9.8379                17.2899

                     28                     29                     30
                      A                      A                      A
 Frequencies --    711.9530               758.0105               785.9064
 Red. masses --      3.9321                 3.2255                 1.5071
 Frc consts  --      1.1743                 1.0919                 0.5484
 IR Inten    --      4.3490                19.0683                20.5385

                     31                     32                     33
                      A                      A                      A
 Frequencies --    821.2461               833.7044               870.8743
 Red. masses --      1.4445                 1.2378                 1.4912
 Frc consts  --      0.5740                 0.5069                 0.6663
 IR Inten    --     18.3086                 1.3144                25.5302

                     34                     35                     36
                      A                      A                      A
 Frequencies --    893.3898               918.0616               994.3088
 Red. masses --      2.6702                 7.5078                 1.1790
 Frc consts  --      1.2557                 3.7283                 0.6868
 IR Inten    --     12.7646                11.9759                 5.1545

                     37                     38                     39
                      A                      A                      A
 Frequencies --   1009.5184              1022.7072              1048.9861
 Red. masses --      1.4101                 2.8146                 4.0432
 Frc consts  --      0.8467                 1.7345                 2.6213
 IR Inten    --     30.5264                14.9871                44.0955

                     40                     41                     42
                      A                      A                      A
 Frequencies --   1093.3159              1125.5760              1178.5157
 Red. masses --      5.6504                 1.9270                 1.3784
 Frc consts  --      3.9794                 1.4384                 1.1280
 IR Inten    --     24.9799                30.4912               166.6089

                     43                     44                     45
                      A                      A                      A
 Frequencies --   1203.7681              1217.0424              1225.4378
 Red. masses --      1.8025                 1.3220                 2.4011
 Frc consts  --      1.5389                 1.1537                 2.1245
 IR Inten    --     55.3935                21.7360               119.2418

                     46                     47                     48
                      A                      A                      A
 Frequencies --   1258.2133              1287.8220              1335.0810
 Red. masses --      2.7429                 2.2961                 1.1867
 Frc consts  --      2.5584                 2.2437                 1.2462
 IR Inten    --    293.2831                12.8177                12.9099

                     49                     50                     51
                      A                      A                      A
 Frequencies --   1356.0559              1384.4008              1393.4623
 Red. masses --      4.2939                 1.2407                 2.9423
 Frc consts  --      4.6521                 1.4010                 3.3661
 IR Inten    --     14.2266                19.9812               120.4032

                     52                     53                     54
                      A                      A                      A
 Frequencies --   1413.0491              1441.5917              1448.6065
 Red. masses --      1.3754                 1.4848                 2.6497
 Frc consts  --      1.6180                 1.8180                 3.2761
 IR Inten    --     22.4350                75.1198                86.3420

                     55                     56                     57
                      A                      A                      A
 Frequencies --   1496.5410              1513.4627              1515.1200
 Red. masses --      1.0540                 1.4951                 1.0547
 Frc consts  --      1.3908                 2.0178                 1.4265
 IR Inten    --     11.0557                17.2127                10.5984

                     58                     59                     60
                      A                      A                      A
 Frequencies --   1517.8951              1530.9176              1542.5372
 Red. masses --      1.5819                 1.1327                 1.1375
 Frc consts  --      2.1475                 1.5641                 1.5947
 IR Inten    --      4.4836                 1.3202                 4.2505

                     61                     62                     63
                      A                      A                      A
 Frequencies --   1596.4004              1628.1837              1660.9806
 Red. masses --      5.7963                 6.5312                 6.2773
 Frc consts  --      8.7032                10.2012                10.2036
 IR Inten    --    127.9668               318.7081                33.5198

                     64                     65                     66
                      A                      A                      A
 Frequencies --   3060.2394              3064.8262              3070.0461
 Red. masses --      1.0661                 1.0365                 1.0289
 Frc consts  --      5.8826                 5.7360                 5.7134
 IR Inten    --     38.6501                15.2612                26.1679

                     67                     68                     69
                      A                      A                      A
 Frequencies --   3126.3844              3134.1153              3153.0154
 Red. masses --      1.1004                 1.1012                 1.1037
 Frc consts  --      6.3368                 6.3731                 6.4647
 IR Inten    --      8.7747                25.7759                37.9697

                     70                     71                     72
                      A                      A                      A
 Frequencies --   3160.4107              3162.8238              3188.0150
 Red. masses --      1.1063                 1.1074                 1.0905
 Frc consts  --      6.5105                 6.5269                 6.5300
 IR Inten    --      8.3386                 5.8888                 7.5330

                     73                     74                     75
                      A                      A                      A
 Frequencies --   3215.4137              3242.6858              3756.0597
 Red. masses --      1.0910                 1.0926                 1.0660
 Frc consts  --      6.6457                 6.7687                 8.8605
 IR Inten    --      5.2165                12.1177                48.9357

 - Thermochemistry -
 -------------------
 Temperature   298.150 Kelvin.  Pressure   1.00000 Atm.
 Atom     1 has atomic number  6 and mass  12.00000

 Molecular mass:   240.02787 amu.
 Principal axes and moments of inertia in atomic units:
                           1         2         3
     Eigenvalues --  2566.661385648.320657705.26652
           X            0.99980  -0.02005  -0.00086
           Y            0.02003   0.99964  -0.01771
           Z            0.00121   0.01769   0.99984
 This molecule is an asymmetric top.
 Rotational symmetry number  1.
 Warning -- assumption of classical behavior for rotation
           may cause significant error
 Rotational temperatures (Kelvin)      0.03375     0.01533     0.01124
 Rotational constants (GHZ):           0.70315     0.31952     0.23422
 Zero-point vibrational energy     548301.5 (Joules/Mol)
                                  131.04720 (Kcal/Mol)
 Warning -- explicit consideration of  23 degrees of freedom as
           vibrations may cause significant error
 Vibrational temperatures:     55.69    77.28   115.85   134.87   177.82
          (Kelvin)            197.64   218.12   238.30   276.99   344.90
                              366.40   416.77   448.05   477.78   482.88
                              513.85   565.14   633.93   657.15   697.24
                              785.18   811.25   841.46   896.91   940.22
                             1000.85  1011.22  1024.34  1090.61  1130.74
                             1181.59  1199.51  1252.99  1285.39  1320.89
                             1430.59  1452.47  1471.45  1509.26  1573.04
                             1619.45  1695.62  1731.95  1751.05  1763.13
                             1810.29  1852.89  1920.88  1951.06  1991.84
                             2004.88  2033.06  2074.13  2084.22  2153.19
                             2177.54  2179.92  2183.91  2202.65  2219.37
                             2296.86  2342.59  2389.78  4403.00  4409.60
                             4417.11  4498.17  4509.29  4536.49  4547.13
                             4550.60  4586.84  4626.26  4665.50  5404.13

 Zero-point correction=                           0.208837 (Hartree/Particle)
 Thermal correction to Energy=                    0.224079
 Thermal correction to Enthalpy=                  0.225023
 Thermal correction to Gibbs Free Energy=         0.165760
 Sum of electronic and zero-point Energies=          -1373.057560
 Sum of electronic and thermal Energies=             -1373.042318
 Sum of electronic and thermal Enthalpies=           -1373.041374
 Sum of electronic and thermal Free Energies=        -1373.100637

                     E (Thermal)             CV                S
                      KCal/Mol        Cal/Mol-Kelvin    Cal/Mol-Kelvin
 Total                  140.612             56.724            124.729
 Electronic               0.000              0.000              0.000
 Translational            0.889              2.981             42.328
 Rotational               0.889              2.981             33.079
 Vibrational            138.834             50.762             49.322
 Vibration     1          0.594              1.981              5.324
 Vibration     2          0.596              1.976              4.676
 Vibration     3          0.600              1.962              3.878
 Vibration     4          0.603              1.954              3.580
 Vibration     5          0.610              1.929              3.043
 Vibration     6          0.614              1.916              2.840
 Vibration     7          0.619              1.901              2.652
 Vibration     8          0.624              1.885              2.485
 Vibration     9          0.634              1.850              2.203
 Vibration    10          0.657              1.780              1.805
 Vibration    11          0.665              1.755              1.698
 Vibration    12          0.686              1.693              1.476
 Vibration    13          0.700              1.652              1.355
 Vibration    14          0.714              1.611              1.250
 Vibration    15          0.717              1.604              1.233
 Vibration    16          0.732              1.561              1.135
 Vibration    17          0.760              1.486              0.990
 Vibration    18          0.801              1.382              0.825
 Vibration    19          0.815              1.346              0.776
 Vibration    20          0.841              1.284              0.698
 Vibration    21          0.901              1.149              0.553
 Vibration    22          0.920              1.109              0.516
 Vibration    23          0.942              1.064              0.476

 Optimization completed.
    -- Stationary point found.
 Normal termination of Gaussian 16 at Thu Dec 10 16:51:58 2020.

 ----------------------------------------------------------------------
 # B3LYP/6-311++G(d,p) empiricaldispersion=gd3bj scf=xqc pop=npa geom=c
 heck
 ----------------------------------------------------------------------

 ---------------------------------------
 CID_131291126_JID_5724_Energie_neutraal
 ---------------------------------------
 Structure from the checkpoint file:  "JID_5724.chk"
 Charge =  0 Multiplicity = 1

 SCF Done:  E(RB3LYP) =  -1373.48177728     A.U. after   16 cycles
 Normal termination of Gaussian 16 at Thu Dec 10 16:56:17 2020.

 ----------------------------------------------------------------------
 # B3LYP/6-311++G(d,p) empiricaldispersion=gd3bj scf=xqc pop=npa geom=c
 heck
 ----------------------------------------------------------------------

 -------------------------------------
 CID_131291126_JID_5724_Energie_kation
 -------------------------------------
 Structure from the checkpoint file:  "JID_5724.chk"
 Charge =  1 Multiplicity = 2

 SCF Done:  E(UB3LYP) =  -1373.20369016     A.U. after   31 cycles
 Normal termination of Gaussian 16 at Thu Dec 10 17:09:16 2020.
 Gaussian 16:  ES64L-G16RevA.03 25-Dec-2016

 ----------------------------------------------------------------------
 # B3LYP/6-311++G(d,p) empiricaldispersion=gd3bj scf=xqc pop=npa geom=c
 heck
 ----------------------------------------------------------------------

 ------------------------------------
 CID_131291126_JID_5724_Energie_anion
 ------------------------------------
 Structure from the checkpoint file:  "JID_5724.chk"
 Charge = -1 Multiplicity = 2

                         Standard orientation:
 ---------------------------------------------------------------------
 Center     Atomic      Atomic             Coordinates (Angstroms)
 Number     Number       Type             X           Y           Z
 ---------------------------------------------------------------------
      1          6           0       -4.645887    0.453985    1.148768
      2          6           0       -4.355534    0.108202   -0.304648
      3          8           0       -3.238757   -0.789155   -0.432032
      4          6           0       -2.008881   -0.258524   -0.320607
      5          6           0       -1.588212    1.028952   -0.159644
      6          6           0       -0.151426    1.129346   -0.114239
      7          6           0        0.638716    2.277579    0.024807
      8          6           0        2.025801    2.154684    0.038222
      9          6           0        2.641221    0.897224   -0.071138
     10          6           0        1.870082   -0.259474   -0.208520
     11          6           0        0.480177   -0.134388   -0.241982
     12         16           0       -0.693056   -1.434649   -0.432033
     13         16           0        2.661256   -1.857633   -0.358369
     14          6           0        2.359979   -2.513355    1.329399
     15          8           0        2.756991    3.305271    0.172378
     16          1           0       -4.848819   -0.455979    1.721512
     17          1           0       -5.525068    1.105165    1.208146
     18          1           0       -3.801424    0.971295    1.612280
     19          1           0       -5.189476   -0.437549   -0.751964
     20          1           0       -4.168767    1.003193   -0.910390
     21          1           0       -2.245815    1.884157   -0.074195
     22          1           0        0.191559    3.261868    0.116514
     23          1           0        3.724267    0.810888   -0.044016
     24          1           0        2.856403   -1.890592    2.077085
     25          1           0        1.289672   -2.569443    1.539480
     26          1           0        2.784678   -3.520367    1.354485
     27          1           0        3.699502    3.079560    0.152225
 ---------------------------------------------------------------------

 SCF Done:  E(UB3LYP) =  -1373.47163510     A.U. after   33 cycles
 SCF Done:  E(UB3LYP) =  -1373.47163510     a.u. after    1 cycles

 The electronic state is 2-A.
 Alpha  occ. eigenvalues --  -88.76256 -88.73962 -19.06149 -19.05748 -10.14849
 Alpha  occ. eigenvalues --  -10.13064 -10.12663 -10.09097 -10.09001 -10.08962
 Alpha  occ. eigenvalues --  -10.07510 -10.06672 -10.06054 -10.06038 -10.05217
 Alpha  occ. eigenvalues --   -7.84874  -7.82509  -5.81199  -5.80856  -5.80362
 Alpha  occ. eigenvalues --   -5.78907  -5.78550  -5.77884  -0.97915  -0.96595
 Alpha  occ. eigenvalues --   -0.78026  -0.72240  -0.69102  -0.67013  -0.64483
 Alpha  occ. eigenvalues --   -0.61014  -0.60734  -0.55518  -0.54311  -0.50459
 Alpha  occ. eigenvalues --   -0.47792  -0.44867  -0.43087  -0.41522  -0.38961
 Alpha  occ. eigenvalues --   -0.36749  -0.35901  -0.34323  -0.33646  -0.32599
 Alpha  occ. eigenvalues --   -0.32499  -0.31680  -0.30363  -0.29830  -0.29581
 Alpha  occ. eigenvalues --   -0.28679  -0.28104  -0.26438  -0.25978  -0.24599
 Alpha  occ. eigenvalues --   -0.23697  -0.23332  -0.21546  -0.18241  -0.17403
 Alpha  occ. eigenvalues --   -0.12886  -0.10840  -0.10472   0.04529
 Alpha virt. eigenvalues --    0.05901   0.06700   0.07263   0.08432   0.08698
 Alpha virt. eigenvalues --    0.09561   0.09821   0.10390   0.10618   0.11100
 Alpha virt. eigenvalues --    0.11639   0.12415   0.12765   0.13070   0.13524

  Beta  occ. eigenvalues --  -88.76258 -88.73961 -19.06138 -19.05755 -10.14716
  Beta  occ. eigenvalues --  -10.13037 -10.12709 -10.09120 -10.08872 -10.08844
  Beta  occ. eigenvalues --  -10.07453 -10.06631 -10.06069 -10.05900 -10.05034
  Beta  occ. eigenvalues --   -7.84875  -7.82507  -5.81203  -5.80859  -5.80363
  Beta  occ. eigenvalues --   -5.78898  -5.78554  -5.77882  -0.97851  -0.96607
  Beta  occ. eigenvalues --   -0.77887  -0.72032  -0.68907  -0.66935  -0.64339
  Beta  occ. eigenvalues --   -0.60826  -0.60617  -0.55340  -0.54205  -0.50381
  Beta  occ. eigenvalues --   -0.47620  -0.44767  -0.43024  -0.41450  -0.38883
  Beta  occ. eigenvalues --   -0.36644  -0.35742  -0.34221  -0.33545  -0.32530
  Beta  occ. eigenvalues --   -0.32416  -0.31450  -0.30300  -0.29704  -0.29498
  Beta  occ. eigenvalues --   -0.28614  -0.27944  -0.26332  -0.25806  -0.24509
  Beta  occ. eigenvalues --   -0.23545  -0.23248  -0.21387  -0.17907  -0.16942
  Beta  occ. eigenvalues --   -0.12839  -0.10384  -0.09892
  Beta virt. eigenvalues --    0.06532   0.07015   0.07306   0.08585   0.08887
  Beta virt. eigenvalues --    0.09062   0.09792   0.10079   0.10518   0.10860
  Beta virt. eigenvalues --    0.11370   0.11699   0.12564   0.12948   0.13066

 Mulliken charges and spin densities:
               1          2
     1  C    0.860723  -1.221593
     2  C   -0.082583  -0.109955
     3  O   -0.081901   0.020979
     4  C   -0.631154   0.228623
     5  C    1.839608  -0.228264
     6  C    1.385253  -0.112754
     7  C   -0.532040   0.018287
     8  C   -0.419756  -0.078773
     9  C   -0.105253   0.102498
    10  C   -0.039839   0.193673
    11  C   -0.941682  -0.175241
    12  S   -0.703151   0.029051
    13  S   -0.253093   0.104057
    14  C   -0.259769  -0.424055
    15  O   -0.243103   0.000254
    16  H    0.047454   0.094227
    17  H   -0.655421   0.801728
    18  H   -0.010302   0.140190
    19  H   -0.563378   0.755703
    20  H   -0.059626   0.193745
    21  H   -0.063242   0.231269
    22  H    0.102360   0.020606
    23  H    0.114622  -0.003194
    24  H    0.081772   0.081754
    25  H    0.133316   0.017923
    26  H   -0.170125   0.318105
    27  H    0.250311   0.001157
 Sum of Mulliken charges =  -1.00000   1.00000

 Dipole moment (field-independent basis, Debye):
    X=              7.4334    Y=              0.1282    Z=              0.1722  Tot=              7.4365
 Quadrupole moment (field-independent basis, Debye-Ang):
   XX=           -193.3110   YY=           -143.6368   ZZ=           -124.3541
   XY=             17.1553   XZ=              2.8513   YZ=             -0.5885

 Summary of Natural Population Analysis:

                                       Natural Population
                Natural  -----------------------------------------------
    Atom  No    Charge         Core      Valence    Rydberg      Total
 -----------------------------------------------------------------------
      C    1   -0.30075      0.99966     2.29586    0.00524     3.30075
      C    2   -0.01131      0.99958     1.99857    0.01316     3.01131
      O    3   -0.27594      0.99984     3.26553    0.01057     4.27594
      C    4    0.12419      0.99939     1.85729    0.01913     2.87581
      C    5   -0.18813      0.99942     2.17931    0.00940     3.18813
      C    6   -0.01826      0.99948     2.00904    0.00973     3.01826
      C    7   -0.09174      0.99948     2.08441    0.00785     3.09174
      C    8    0.14817      0.99939     1.84053    0.01192     2.85183
      C    9   -0.12386      0.99946     2.11451    0.00989     3.12386
      C   10   -0.06429      0.99932     2.05291    0.01206     3.06429
      C   11   -0.10868      0.99931     2.09773    0.01164     3.10868
      S   12    0.17697      4.99943     2.80410    0.01949     7.82303
      S   13    0.09222      4.99958     2.88524    0.02296     7.90778
      C   14   -0.34016      0.99961     2.33369    0.00686     3.34016
      O   15   -0.34618      0.99988     3.34002    0.00629     4.34618
      H   16    0.10024      0.00000     0.39883    0.00093     0.39976
      H   17    0.10703      0.00000     0.38958    0.00339     0.39297
      H   18    0.10205      0.00000     0.39674    0.00121     0.39795
      H   19    0.09338      0.00000     0.40487    0.00175     0.40662
      H   20    0.08662      0.00000     0.41154    0.00184     0.41338
      H   21    0.10878      0.00000     0.38981    0.00140     0.39122
      H   22    0.09991      0.00000     0.39818    0.00191     0.40009
      H   23    0.09559      0.00000     0.40318    0.00123     0.40441
      H   24    0.09877      0.00000     0.39976    0.00146     0.40123
      H   25    0.10379      0.00000     0.39480    0.00140     0.39621
      H   26    0.10263      0.00000     0.39552    0.00185     0.39737
      H   27    0.22896      0.00000     0.26872    0.00232     0.27104
 =======================================================================
   * Total *    0.00000     22.99285    39.81028    0.19687    63.00000

 Normal termination of Gaussian 16 at Thu Dec 10 17:28:15 2020.
