 Gaussian 16, Revision A.03,

 -----------------------------------------------------------
 # opt freq B3LYP/6-31G(d) empiricaldispersion=gd3bj scf=xqc
 -----------------------------------------------------------

 ----------------------------
 CID_21129191_JID_99_neutraal
 ----------------------------
 Symbolic Z-matrix:
 Charge =  0 Multiplicity = 1

 SCF Done:  E(RB3LYP) =  -516.922445717     A.U. after   14 cycles
 SCF Done:  E(RB3LYP) =  -516.925889323     A.U. after   12 cycles
 SCF Done:  E(RB3LYP) =  -516.926260924     A.U. after   12 cycles
 SCF Done:  E(RB3LYP) =  -516.926441468     A.U. after   12 cycles
 SCF Done:  E(RB3LYP) =  -516.926700475     A.U. after   10 cycles
 SCF Done:  E(RB3LYP) =  -516.926763315     A.U. after   11 cycles
 SCF Done:  E(RB3LYP) =  -516.926801923     A.U. after   10 cycles
 SCF Done:  E(RB3LYP) =  -516.926839906     A.U. after   11 cycles
 SCF Done:  E(RB3LYP) =  -516.926851992     A.U. after   10 cycles
 SCF Done:  E(RB3LYP) =  -516.926858034     A.U. after    9 cycles
 SCF Done:  E(RB3LYP) =  -516.926858401     A.U. after    7 cycles
 SCF Done:  E(RB3LYP) =  -516.926858517     A.U. after    7 cycles
 SCF Done:  E(RB3LYP) =  -516.926858559     A.U. after    7 cycles
 SCF Done:  E(RB3LYP) =  -516.926858593     A.U. after    7 cycles
 SCF Done:  E(RB3LYP) =  -516.926858611     A.U. after    7 cycles
 Optimization completed.
    -- Stationary point found.
 Normal termination of Gaussian 16 at Tue Dec  8 10:17:40 2020.

 --------------------------------------------------------------------
 #N Geom=AllCheck Guess=TCheck SCRF=Check GenChk RB3LYP/6-31G(d) Freq
 --------------------------------------------------------------------

 Structure from the checkpoint file:  "JID_99.chk"
 ----------------------------
 CID_21129191_JID_99_neutraal
 ----------------------------
 Charge =  0 Multiplicity = 1

 SCF Done:  E(RB3LYP) =  -516.926858611     A.U. after    1 cycles

  Exact polarizability:  82.106   0.909  81.802   2.176  -0.597  70.609
 Approx polarizability:  97.432   1.808 111.735   3.827   1.539 117.246

                      1                      2                      3
                      A                      A                      A
 Frequencies --     40.3989                45.6081                69.8438
 Red. masses --      4.2019                 6.4250                 4.2616
 Frc consts  --      0.0040                 0.0079                 0.0122
 IR Inten    --      2.3514                 1.3907                 0.7621

                      4                      5                      6
                      A                      A                      A
 Frequencies --     88.2744               134.6908               165.1705
 Red. masses --      4.2329                 2.1145                 4.0321
 Frc consts  --      0.0194                 0.0226                 0.0648
 IR Inten    --      0.2036                 2.8842                 1.8302

                      7                      8                      9
                      A                      A                      A
 Frequencies --    233.7443               269.3229               286.5844
 Red. masses --      1.2966                 2.8476                 1.9507
 Frc consts  --      0.0417                 0.1217                 0.0944
 IR Inten    --     23.5881                 6.4458                 6.4356

                     10                     11                     12
                      A                      A                      A
 Frequencies --    371.1865               405.2283               429.2568
 Red. masses --      1.5709                 2.2207                 3.0460
 Frc consts  --      0.1275                 0.2148                 0.3307
 IR Inten    --     36.0251                24.8426                23.4403

                     13                     14                     15
                      A                      A                      A
 Frequencies --    475.6260               515.8979               540.3896
 Red. masses --      2.5543                 2.1607                 2.3111
 Frc consts  --      0.3405                 0.3388                 0.3976
 IR Inten    --     29.2293                37.5506                32.6782

                     16                     17                     18
                      A                      A                      A
 Frequencies --    562.2639               627.1322               714.1179
 Red. masses --      2.4153                 2.1969                 1.6626
 Frc consts  --      0.4499                 0.5091                 0.4995
 IR Inten    --     24.0746                25.7384               111.9109

                     19                     20                     21
                      A                      A                      A
 Frequencies --    766.7994               807.0797               874.5891
 Red. masses --      1.3320                 2.2918                 1.3471
 Frc consts  --      0.4614                 0.8795                 0.6071
 IR Inten    --      2.6028                13.4067               148.2657

                     22                     23                     24
                      A                      A                      A
 Frequencies --    888.8320               916.6211               947.7351
 Red. masses --      2.3168                 2.6487                 2.1829
 Frc consts  --      1.0784                 1.3112                 1.1552
 IR Inten    --      5.0854                 9.4789                 0.0889

                     25                     26                     27
                      A                      A                      A
 Frequencies --    973.3354              1037.6317              1048.9696
 Red. masses --      2.1050                 2.2338                 2.4480
 Frc consts  --      1.1750                 1.4170                 1.5870
 IR Inten    --      9.3579                59.2049                 2.9374

                     28                     29                     30
                      A                      A                      A
 Frequencies --   1092.1672              1103.8000              1134.1325
 Red. masses --      1.9834                 2.4242                 2.6202
 Frc consts  --      1.3939                 1.7402                 1.9857
 IR Inten    --     53.7893                 7.1809                51.1724

                     31                     32                     33
                      A                      A                      A
 Frequencies --   1149.9244              1202.0033              1243.1874
 Red. masses --      1.4419                 1.8764                 1.2145
 Frc consts  --      1.1234                 1.5973                 1.1059
 IR Inten    --    118.9798               142.4274                 4.1197

                     34                     35                     36
                      A                      A                      A
 Frequencies --   1263.5708              1295.3114              1303.5392
 Red. masses --      1.3402                 1.2784                 1.3688
 Frc consts  --      1.2607                 1.2637                 1.3703
 IR Inten    --     20.7377                20.1863                 4.8315

                     37                     38                     39
                      A                      A                      A
 Frequencies --   1335.5142              1346.5124              1358.2239
 Red. masses --      1.4572                 1.1849                 1.2646
 Frc consts  --      1.5313                 1.2658                 1.3745
 IR Inten    --      4.4612                 3.2440                 5.2741

                     40                     41                     42
                      A                      A                      A
 Frequencies --   1405.0011              1420.4078              1431.1731
 Red. masses --      1.4557                 1.4263                 1.8679
 Frc consts  --      1.6930                 1.6955                 2.2541
 IR Inten    --      3.4158                 2.5283                46.2340

                     43                     44                     45
                      A                      A                      A
 Frequencies --   1442.1948              1462.3616              1496.1776
 Red. masses --      1.4889                 1.3183                 1.1098
 Frc consts  --      1.8246                 1.6611                 1.4637
 IR Inten    --     38.2412                75.4099                 9.9054

                     46                     47                     48
                      A                      A                      A
 Frequencies --   1508.6162              1518.4484              1524.3835
 Red. masses --      1.0803                 1.0862                 1.0988
 Frc consts  --      1.4486                 1.4755                 1.5043
 IR Inten    --      5.8358                 7.2397                 2.7710

                     49                     50                     51
                      A                      A                      A
 Frequencies --   1683.8762              1844.8627              2986.6269
 Red. masses --      1.1051                 9.4221                 1.0838
 Frc consts  --      1.8461                18.8941                 5.6957
 IR Inten    --     51.3900               220.8543                64.9037

                     52                     53                     54
                      A                      A                      A
 Frequencies --   3018.5993              3047.6396              3050.8467
 Red. masses --      1.0606                 1.0821                 1.0786
 Frc consts  --      5.6938                 5.9216                 5.9149
 IR Inten    --     34.5825                 5.1122                33.4090

                     55                     56                     57
                      A                      A                      A
 Frequencies --   3055.9944              3064.5102              3100.4271
 Red. masses --      1.0610                 1.0674                 1.1020
 Frc consts  --      5.8383                 5.9061                 6.2413
 IR Inten    --     26.1558                35.7385                 9.9738

                     58                     59                     60
                      A                      A                      A
 Frequencies --   3106.7104              3113.8263              3484.1003
 Red. masses --      1.1025                 1.0979                 1.0496
 Frc consts  --      6.2696                 6.2720                 7.5069
 IR Inten    --     22.4542                36.3727                 0.6370

                     61                     62                     63
                      A                      A                      A
 Frequencies --   3573.0702              3679.0570              3700.2743
 Red. masses --      1.0926                 1.0638                 1.0646
 Frc consts  --      8.2183                 8.4839                 8.5881
 IR Inten    --      0.3123                44.2570                14.4232

 - Thermochemistry -
 -------------------
 Temperature   298.150 Kelvin.  Pressure   1.00000 Atm.
 Atom     1 has atomic number  6 and mass  12.00000

 Molecular mass:   147.08954 amu.
 Principal axes and moments of inertia in atomic units:
                           1         2         3
     Eigenvalues --   911.168632688.178453174.24892
           X            0.99997  -0.00181   0.00723
           Y            0.00191   0.99990  -0.01425
           Z           -0.00720   0.01426   0.99987
 This molecule is an asymmetric top.
 Rotational symmetry number  1.
 Warning -- assumption of classical behavior for rotation
           may cause significant error
 Rotational temperatures (Kelvin)      0.09506     0.03222     0.02729
 Rotational constants (GHZ):           1.98069     0.67136     0.56856
 Zero-point vibrational energy     525061.3 (Joules/Mol)
                                  125.49267 (Kcal/Mol)
 Warning -- explicit consideration of  16 degrees of freedom as
           vibrations may cause significant error
 Vibrational temperatures:     58.13    65.62   100.49   127.01   193.79
          (Kelvin)            237.64   336.31   387.50   412.33   534.05
                              583.03   617.60   684.32   742.26   777.50
                              808.97   902.30  1027.46  1103.25  1161.21
                             1258.34  1278.83  1318.81  1363.58  1400.41
                             1492.92  1509.23  1571.39  1588.12  1631.76
                             1654.48  1729.41  1788.67  1818.00  1863.66
                             1875.50  1921.51  1937.33  1954.18  2021.48
                             2043.65  2059.14  2075.00  2104.01  2152.67
                             2170.56  2184.71  2193.25  2422.72  2654.35
                             4297.09  4343.09  4384.87  4389.49  4396.89
                             4409.15  4460.82  4469.86  4480.10  5012.84
                             5140.85  5293.34  5323.87

 Zero-point correction=                           0.199985 (Hartree/Particle)
 Thermal correction to Energy=                    0.211494
 Thermal correction to Enthalpy=                  0.212439
 Thermal correction to Gibbs Free Energy=         0.161341
 Sum of electronic and zero-point Energies=           -516.726873
 Sum of electronic and thermal Energies=              -516.715364
 Sum of electronic and thermal Enthalpies=            -516.714420
 Sum of electronic and thermal Free Energies=         -516.765517

                     E (Thermal)             CV                S
                      KCal/Mol        Cal/Mol-Kelvin    Cal/Mol-Kelvin
 Total                  132.715             41.326            107.544
 Electronic               0.000              0.000              0.000
 Translational            0.889              2.981             40.868
 Rotational               0.889              2.981             30.431
 Vibrational            130.937             35.364             36.244
 Vibration     1          0.594              1.981              5.239
 Vibration     2          0.595              1.979              4.999
 Vibration     3          0.598              1.968              4.158
 Vibration     4          0.601              1.957              3.698
 Vibration     5          0.613              1.919              2.878
 Vibration     6          0.624              1.885              2.490
 Vibration     7          0.654              1.789              1.850
 Vibration     8          0.674              1.730              1.601
 Vibration     9          0.684              1.699              1.494
 Vibration    10          0.743              1.531              1.075
 Vibration    11          0.770              1.459              0.944
 Vibration    12          0.791              1.407              0.861
 Vibration    13          0.832              1.304              0.722
 Vibration    14          0.871              1.215              0.620
 Vibration    15          0.895              1.161              0.564
 Vibration    16          0.918              1.113              0.519

 Optimization completed.
    -- Stationary point found.
 Normal termination of Gaussian 16 at Tue Dec  8 10:21:16 2020.

 ----------------------------------------------------------------------
 # B3LYP/6-311++G(d,p) empiricaldispersion=gd3bj scf=xqc pop=npa geom=c
 heck
 ----------------------------------------------------------------------

 ------------------------------------
 CID_21129191_JID_99_Energie_neutraal
 ------------------------------------
 Structure from the checkpoint file:  "JID_99.chk"
 Charge =  0 Multiplicity = 1

 SCF Done:  E(RB3LYP) =  -517.108632725     A.U. after   14 cycles
 Normal termination of Gaussian 16 at Tue Dec  8 10:22:30 2020.

 ----------------------------------------------------------------------
 # B3LYP/6-311++G(d,p) empiricaldispersion=gd3bj scf=xqc pop=npa geom=c
 heck
 ----------------------------------------------------------------------

 ----------------------------------
 CID_21129191_JID_99_Energie_kation
 ----------------------------------
 Structure from the checkpoint file:  "JID_99.chk"
 Charge =  1 Multiplicity = 2

 SCF Done:  E(UB3LYP) =  -516.768032629     A.U. after   25 cycles
 Normal termination of Gaussian 16 at Tue Dec  8 10:25:28 2020.
 Gaussian 16:  ES64L-G16RevA.03 25-Dec-2016

 ----------------------------------------------------------------------
 # B3LYP/6-311++G(d,p) empiricaldispersion=gd3bj scf=xqc pop=npa geom=c
 heck
 ----------------------------------------------------------------------

 ---------------------------------
 CID_21129191_JID_99_Energie_anion
 ---------------------------------
 Structure from the checkpoint file:  "JID_99.chk"
 Charge = -1 Multiplicity = 2

                         Standard orientation:
 ---------------------------------------------------------------------
 Center     Atomic      Atomic             Coordinates (Angstroms)
 Number     Number       Type             X           Y           Z
 ---------------------------------------------------------------------
      1          6           0        0.393989    1.453164   -0.300586
      2          6           0       -1.054479    1.768144    0.103023
      3          6           0       -2.099532    0.848187   -0.543774
      4          6           0       -2.234486   -0.478697    0.172269
      5          8           0       -2.143387   -0.645411    1.368835
      6          8           0       -2.505836   -1.493979   -0.684859
      7          6           0        0.856993    0.029700    0.032196
      8          6           0        2.309180   -0.268987   -0.352252
      9          7           0        3.228355    0.448190    0.523114
     10          8           0        2.597886   -1.652980   -0.251146
     11          1           0        1.042308    2.187281    0.197363
     12          1           0        0.511747    1.624226   -1.380918
     13          1           0       -1.163988    1.698896    1.191008
     14          1           0       -1.277687    2.804161   -0.177088
     15          1           0       -3.090036    1.320116   -0.493119
     16          1           0       -1.889041    0.672222   -1.603513
     17          1           0       -2.598672   -2.294136   -0.133484
     18          1           0        0.729422   -0.170746    1.103694
     19          1           0        0.245099   -0.700737   -0.508287
     20          1           0        2.449120   -0.045920   -1.422959
     21          1           0        4.173630    0.388352    0.149203
     22          1           0        2.988193    1.435036    0.584058
     23          1           0        2.662133   -1.826175    0.704349
 ---------------------------------------------------------------------

 SCF Done:  E(UB3LYP) =  -517.095841215     A.U. after   30 cycles

 The electronic state is 2-A.
 Alpha  occ. eigenvalues --  -19.07158 -19.02118 -19.01418 -14.19654 -10.20442
 Alpha  occ. eigenvalues --  -10.14270 -10.08017 -10.06768 -10.06633 -10.05989
 Alpha  occ. eigenvalues --   -1.01058  -0.93275  -0.92082  -0.77617  -0.70867
 Alpha  occ. eigenvalues --   -0.65436  -0.59346  -0.53279  -0.49788  -0.46560
 Alpha  occ. eigenvalues --   -0.41939  -0.40184  -0.39343  -0.38679  -0.37370
 Alpha  occ. eigenvalues --   -0.36126  -0.34032  -0.32426  -0.30837  -0.29972
 Alpha  occ. eigenvalues --   -0.28196  -0.27069  -0.25301  -0.23997  -0.23489
 Alpha  occ. eigenvalues --   -0.22865  -0.22355  -0.18602  -0.18305  -0.15431
 Alpha  occ. eigenvalues --    0.04497
 Alpha virt. eigenvalues --    0.06399   0.07041   0.08794   0.09051   0.09518
 Alpha virt. eigenvalues --    0.10405   0.11236   0.11382   0.12303   0.12955
 Alpha virt. eigenvalues --    0.14228   0.14797   0.15717   0.16086   0.17139

  Beta  occ. eigenvalues --  -19.07123 -19.02112 -19.01405 -14.19606 -10.20416
  Beta  occ. eigenvalues --  -10.14254 -10.07982 -10.06747 -10.06604 -10.05981
  Beta  occ. eigenvalues --   -1.00998  -0.93255  -0.92038  -0.77539  -0.70813
  Beta  occ. eigenvalues --   -0.65374  -0.59273  -0.53206  -0.49723  -0.46471
  Beta  occ. eigenvalues --   -0.41866  -0.40132  -0.39285  -0.38648  -0.37286
  Beta  occ. eigenvalues --   -0.36084  -0.33996  -0.32350  -0.30799  -0.29927
  Beta  occ. eigenvalues --   -0.28150  -0.27034  -0.25253  -0.23953  -0.23434
  Beta  occ. eigenvalues --   -0.22827  -0.22302  -0.18578  -0.18276  -0.15384
  Beta virt. eigenvalues --    0.07056   0.07696   0.08065   0.09160   0.09732
  Beta virt. eigenvalues --    0.09988   0.10981   0.11493   0.12057   0.12858
  Beta virt. eigenvalues --    0.13065   0.14470   0.14935   0.16012   0.16402

 Mulliken charges and spin densities:
               1          2
     1  C    1.179134  -1.435950
     2  C   -1.335104   1.190819
     3  C    0.988723  -1.229410
     4  C    0.157212  -0.461416
     5  O   -0.264822   0.024555
     6  O   -0.155052   0.062139
     7  C   -1.212225   1.004171
     8  C    1.792091  -2.317499
     9  N   -0.559339   0.234444
    10  O   -0.268387   0.022245
    11  H   -0.162239   0.271296
    12  H   -0.148385   0.283743
    13  H    0.251168  -0.082741
    14  H   -0.679802   0.855545
    15  H   -0.700678   0.908988
    16  H    0.014896   0.191424
    17  H   -0.177039   0.465611
    18  H    0.148690   0.043021
    19  H    0.429881  -0.252884
    20  H   -0.200061   0.401463
    21  H   -0.165812   0.409605
    22  H   -0.067420   0.292512
    23  H    0.134570   0.118321
 Sum of Mulliken charges =  -1.00000   1.00000

 Dipole moment (field-independent basis, Debye):
    X=              0.0901    Y=             -2.8532    Z=              1.1311  Tot=              3.0706
 Quadrupole moment (field-independent basis, Debye-Ang):
   XX=           -130.9789   YY=           -103.9958   ZZ=            -88.6675
   XY=             -0.9488   XZ=             -0.0457   YZ=              1.3017

 Summary of Natural Population Analysis:

                                       Natural Population
                Natural  -----------------------------------------------
    Atom  No    Charge         Core      Valence    Rydberg      Total
 -----------------------------------------------------------------------
      C    1   -0.18801      0.99962     2.17988    0.00851     3.18801
      C    2   -0.18795      0.99963     2.17835    0.00997     3.18795
      C    3   -0.24167      0.99957     2.23250    0.00960     3.24167
      C    4    0.40995      0.99972     1.56421    0.02612     2.59005
      O    5   -0.31146      0.99987     3.30541    0.00618     4.31146
      O    6   -0.34491      0.99988     3.33848    0.00656     4.34491
      C    7   -0.20846      0.99960     2.20043    0.00843     3.20846
      C    8    0.14997      0.99962     1.83302    0.01739     2.85003
      N    9   -0.43558      0.99975     2.92514    0.01069     3.93558
      O   10   -0.37303      0.99990     3.36644    0.00669     4.37303
      H   11    0.09617      0.00000     0.40209    0.00174     0.40383
      H   12    0.09476      0.00000     0.40349    0.00175     0.40524
      H   13    0.10317      0.00000     0.39541    0.00142     0.39683
      H   14    0.10225      0.00000     0.39582    0.00193     0.39775
      H   15    0.12119      0.00000     0.37558    0.00323     0.37881
      H   16    0.10898      0.00000     0.38953    0.00149     0.39102
      H   17    0.24013      0.00000     0.25387    0.00600     0.25987
      H   18    0.10105      0.00000     0.39751    0.00144     0.39895
      H   19    0.10229      0.00000     0.39559    0.00212     0.39771
      H   20    0.07137      0.00000     0.42677    0.00186     0.42863
      H   21    0.18056      0.00000     0.31662    0.00282     0.31944
      H   22    0.18226      0.00000     0.31502    0.00271     0.31774
      H   23    0.22696      0.00000     0.26994    0.00310     0.27304
 =======================================================================
   * Total *    0.00000      9.99715    29.86109    0.14176    40.00000

 Normal termination of Gaussian 16 at Tue Dec  8 10:29:02 2020.
