 Gaussian 16, Revision A.03,

 -----------------------------------------------------------
 # opt freq B3LYP/6-31G(d) empiricaldispersion=gd3bj scf=xqc
 -----------------------------------------------------------

 ------------------------------
 CID_79493650_JID_6903_neutraal
 ------------------------------
 Symbolic Z-matrix:
 Charge =  0 Multiplicity = 1

 SCF Done:  E(RB3LYP) =  -713.265387509     A.U. after   14 cycles
 SCF Done:  E(RB3LYP) =  -713.268843542     A.U. after   12 cycles
 SCF Done:  E(RB3LYP) =  -713.269410650     A.U. after   11 cycles
 SCF Done:  E(RB3LYP) =  -713.269602866     A.U. after   11 cycles
 SCF Done:  E(RB3LYP) =  -713.269643288     A.U. after   11 cycles
 SCF Done:  E(RB3LYP) =  -713.269705553     A.U. after   11 cycles
 SCF Done:  E(RB3LYP) =  -713.269753201     A.U. after   11 cycles
 SCF Done:  E(RB3LYP) =  -713.269774804     A.U. after   11 cycles
 SCF Done:  E(RB3LYP) =  -713.269783219     A.U. after    9 cycles
 SCF Done:  E(RB3LYP) =  -713.269785456     A.U. after    8 cycles
 SCF Done:  E(RB3LYP) =  -713.269786366     A.U. after    8 cycles
 SCF Done:  E(RB3LYP) =  -713.269786812     A.U. after    7 cycles
 SCF Done:  E(RB3LYP) =  -713.269786860     A.U. after    6 cycles
 Optimization completed.
    -- Stationary point found.
 Normal termination of Gaussian 16 at Fri Dec 11 01:06:09 2020.

 --------------------------------------------------------------------
 #N Geom=AllCheck Guess=TCheck SCRF=Check GenChk RB3LYP/6-31G(d) Freq
 --------------------------------------------------------------------

 Structure from the checkpoint file:  "JID_6903.chk"
 ------------------------------
 CID_79493650_JID_6903_neutraal
 ------------------------------
 Charge =  0 Multiplicity = 1

 SCF Done:  E(RB3LYP) =  -713.269786860     A.U. after    1 cycles

  Exact polarizability: 199.862   5.527 135.962  -1.041 -15.861 111.589
 Approx polarizability: 251.977   5.049 212.520  -3.144 -36.430 171.495

                      1                      2                      3
                      A                      A                      A
 Frequencies --     18.5933                42.2294                45.5795
 Red. masses --      3.4297                 3.8912                 3.3124
 Frc consts  --      0.0007                 0.0041                 0.0041
 IR Inten    --      0.2224                 0.3255                 0.0420

                      4                      5                      6
                      A                      A                      A
 Frequencies --     58.3590                86.5497               100.4507
 Red. masses --      3.4285                 2.7164                 2.3366
 Frc consts  --      0.0069                 0.0120                 0.0139
 IR Inten    --      0.2146                 0.8501                 1.6760

                      7                      8                      9
                      A                      A                      A
 Frequencies --    127.9929               144.0608               150.3612
 Red. masses --      1.9949                 1.5496                 1.9195
 Frc consts  --      0.0193                 0.0189                 0.0256
 IR Inten    --      0.9458                 2.4669                 4.5849

                     10                     11                     12
                      A                      A                      A
 Frequencies --    188.2291               194.0693               218.1565
 Red. masses --      2.1428                 1.6855                 2.8025
 Frc consts  --      0.0447                 0.0374                 0.0786
 IR Inten    --      1.4587                24.9816                 2.9613

                     13                     14                     15
                      A                      A                      A
 Frequencies --    245.1124               258.5260               262.9482
 Red. masses --      1.9005                 1.2401                 2.3183
 Frc consts  --      0.0673                 0.0488                 0.0944
 IR Inten    --      0.5050                14.2262                 2.3055

                     16                     17                     18
                      A                      A                      A
 Frequencies --    277.9899               285.4295               343.3899
 Red. masses --      2.9631                 2.2530                 3.5208
 Frc consts  --      0.1349                 0.1081                 0.2446
 IR Inten    --      7.2921                13.7891                11.7862

                     19                     20                     21
                      A                      A                      A
 Frequencies --    362.7364               384.1164               399.8222
 Red. masses --      3.7582                 2.1545                 3.6940
 Frc consts  --      0.2913                 0.1873                 0.3479
 IR Inten    --      5.3309                 0.0629                 3.9064

                     22                     23                     24
                      A                      A                      A
 Frequencies --    419.9190               445.6040               569.0709
 Red. masses --      3.0417                 3.6736                 3.8646
 Frc consts  --      0.3160                 0.4298                 0.7374
 IR Inten    --      0.0620                 2.2332                 9.9889

                     25                     26                     27
                      A                      A                      A
 Frequencies --    584.7875               633.5807               654.9412
 Red. masses --      2.5743                 4.0012                 6.0984
 Frc consts  --      0.5187                 0.9463                 1.5412
 IR Inten    --     10.2275                 2.3749                 1.5521

                     28                     29                     30
                      A                      A                      A
 Frequencies --    709.9413               748.7208               760.2819
 Red. masses --      3.4950                 2.1243                 3.6890
 Frc consts  --      1.0379                 0.7016                 1.2563
 IR Inten    --     15.9287                 0.2616                 2.9148

                     31                     32                     33
                      A                      A                      A
 Frequencies --    809.0914               849.2710               860.0499
 Red. masses --      1.6142                 2.5300                 1.5316
 Frc consts  --      0.6226                 1.0751                 0.6675
 IR Inten    --     12.2682                37.6276                 3.6571

                     34                     35                     36
                      A                      A                      A
 Frequencies --    868.7722               884.6376               895.8856
 Red. masses --      1.5743                 2.2384                 3.1525
 Frc consts  --      0.7001                 1.0321                 1.4908
 IR Inten    --     11.8799                 9.4026                77.6940

                     37                     38                     39
                      A                      A                      A
 Frequencies --    909.5246               951.8868               963.5858
 Red. masses --      1.4367                 2.2739                 1.4366
 Frc consts  --      0.7003                 1.2139                 0.7859
 IR Inten    --      6.2583                88.5580                10.1783

                     40                     41                     42
                      A                      A                      A
 Frequencies --    965.4903               984.7849              1042.9195
 Red. masses --      2.5891                 1.3292                 3.2458
 Frc consts  --      1.4220                 0.7595                 2.0800
 IR Inten    --     40.9133                 0.7388                28.2223

                     43                     44                     45
                      A                      A                      A
 Frequencies --   1050.2388              1055.3679              1090.5415
 Red. masses --      2.9931                 2.1351                 1.5492
 Frc consts  --      1.9451                 1.4011                 1.0855
 IR Inten    --     35.3818                 4.9160                 5.0274

                     46                     47                     48
                      A                      A                      A
 Frequencies --   1094.1588              1107.8017              1114.7090
 Red. masses --      3.5895                 2.6806                 1.8567
 Frc consts  --      2.5319                 1.9382                 1.3593
 IR Inten    --    120.7442                92.8085                14.4548

                     49                     50                     51
                      A                      A                      A
 Frequencies --   1153.9228              1162.1085              1185.9882
 Red. masses --      1.3588                 3.1872                 1.2803
 Frc consts  --      1.0660                 2.5360                 1.0610
 IR Inten    --     11.8117               160.2340                 3.4742

                     52                     53                     54
                      A                      A                      A
 Frequencies --   1191.1565              1206.1724              1222.0117
 Red. masses --      1.2855                 1.9052                 1.1371
 Frc consts  --      1.0746                 1.6330                 1.0005
 IR Inten    --      6.7370                32.4036                 3.3821

                     55                     56                     57
                      A                      A                      A
 Frequencies --   1229.5785              1232.1170              1239.6074
 Red. masses --      1.5835                 1.5283                 2.7346
 Frc consts  --      1.4105                 1.3670                 2.4758
 IR Inten    --     16.8378                 5.4988                 4.3318

                     58                     59                     60
                      A                      A                      A
 Frequencies --   1246.2899              1252.6644              1306.0925
 Red. masses --      1.9667                 1.4154                 1.2428
 Frc consts  --      1.7998                 1.3086                 1.2491
 IR Inten    --     15.5158                 1.9222                 1.4396

                     61                     62                     63
                      A                      A                      A
 Frequencies --   1327.7452              1360.0167              1371.1111
 Red. masses --      1.7660                 1.6777                 1.8042
 Frc consts  --      1.8343                 1.8283                 1.9984
 IR Inten    --      6.9358                 2.8775                 3.4235

                     64                     65                     66
                      A                      A                      A
 Frequencies --   1383.0452              1385.2393              1393.5839
 Red. masses --      1.3957                 1.4219                 1.3979
 Frc consts  --      1.5729                 1.6075                 1.5995
 IR Inten    --     20.9435                 1.1394                12.0333

                     67                     68                     69
                      A                      A                      A
 Frequencies --   1425.9922              1438.3077              1443.1983
 Red. masses --      1.1927                 1.4210                 1.2706
 Frc consts  --      1.4289                 1.7320                 1.5593
 IR Inten    --     17.4156                 6.7975                 5.3098

                     70                     71                     72
                      A                      A                      A
 Frequencies --   1473.7956              1488.4180              1502.3876
 Red. masses --      2.3068                 1.1472                 1.1796
 Frc consts  --      2.9521                 1.4974                 1.5688
 IR Inten    --      6.9009                 1.0661                 2.6146

                     73                     74                     75
                      A                      A                      A
 Frequencies --   1514.0594              1515.4126              1519.7368
 Red. masses --      1.0501                 1.0829                 1.0820
 Frc consts  --      1.4183                 1.4652                 1.4724
 IR Inten    --      3.0714                 2.6300                 0.9565

                     76                     77                     78
                      A                      A                      A
 Frequencies --   1527.4477              1531.0923              1538.3552
 Red. masses --      1.0582                 1.0515                 1.0635
 Frc consts  --      1.4546                 1.4523                 1.4828
 IR Inten    --      3.8711                 4.7610                 3.6837

                     79                     80                     81
                      A                      A                      A
 Frequencies --   1540.0020              1546.0999              1566.7298
 Red. masses --      1.0522                 1.0484                 2.4952
 Frc consts  --      1.4702                 1.4766                 3.6086
 IR Inten    --      7.1101                10.2747                12.9386

                     82                     83                     84
                      A                      A                      A
 Frequencies --   1633.3722              1678.0597              1701.1208
 Red. masses --      6.1117                 5.3717                 1.1064
 Frc consts  --      9.6068                 8.9121                 1.8863
 IR Inten    --      0.2169                 1.9684                22.8500

                     85                     86                     87
                      A                      A                      A
 Frequencies --   3016.1442              3022.5351              3034.2670
 Red. masses --      1.0403                 1.0414                 1.0602
 Frc consts  --      5.5761                 5.6057                 5.7513
 IR Inten    --     55.5370                43.0762                21.9395

                     88                     89                     90
                      A                      A                      A
 Frequencies --   3039.0536              3045.5935              3049.2563
 Red. masses --      1.0611                 1.0388                 1.0851
 Frc consts  --      5.7741                 5.6769                 5.9443
 IR Inten    --     41.1979                21.1969                49.6905

                     91                     92                     93
                      A                      A                      A
 Frequencies --   3065.7008              3068.4446              3080.3379
 Red. masses --      1.0849                 1.1003                 1.1034
 Frc consts  --      6.0073                 6.1037                 6.1685
 IR Inten    --     19.1628                36.9267                33.3451

                     94                     95                     96
                      A                      A                      A
 Frequencies --   3083.5924              3096.8334              3109.5727
 Red. masses --      1.0976                 1.0954                 1.1011
 Frc consts  --      6.1490                 6.1895                 6.2729
 IR Inten    --     37.4391                47.0449                44.2284

                     97                     98                     99
                      A                      A                      A
 Frequencies --   3125.1319              3137.2108              3149.4140
 Red. masses --      1.1020                 1.1011                 1.1033
 Frc consts  --      6.3413                 6.3851                 6.4477
 IR Inten    --     48.6530                37.7503                24.0902

                    100                    101                    102
                      A                      A                      A
 Frequencies --   3172.0859              3174.8399              3192.5495
 Red. masses --      1.0886                 1.0868                 1.0942
 Frc consts  --      6.4537                 6.4541                 6.5709
 IR Inten    --     19.8610                12.6797                23.1764

                    103                    104                    105
                      A                      A                      A
 Frequencies --   3210.1033              3481.3572              3566.9383
 Red. masses --      1.0918                 1.0496                 1.0910
 Frc consts  --      6.6289                 7.4948                 8.1783
 IR Inten    --      4.9384                 2.8431                 3.0495

 - Thermochemistry -
 -------------------
 Temperature   298.150 Kelvin.  Pressure   1.00000 Atm.
 Atom     1 has atomic number  6 and mass  12.00000

 Molecular mass:   223.15723 amu.
 Principal axes and moments of inertia in atomic units:
                           1         2         3
     Eigenvalues --  1636.445727832.399148211.94730
           X            0.99996   0.00426   0.00722
           Y           -0.00402   0.99948  -0.03200
           Z           -0.00735   0.03197   0.99946
 This molecule is an asymmetric top.
 Rotational symmetry number  1.
 Warning -- assumption of classical behavior for rotation
           may cause significant error
 Rotational temperatures (Kelvin)      0.05293     0.01106     0.01055
 Rotational constants (GHZ):           1.10284     0.23042     0.21977
 Zero-point vibrational energy     858758.9 (Joules/Mol)
                                  205.24829 (Kcal/Mol)
 Warning -- explicit consideration of  25 degrees of freedom as
           vibrations may cause significant error
 Vibrational temperatures:     26.75    60.76    65.58    83.97   124.53
          (Kelvin)            144.53   184.15   207.27   216.34   270.82
                              279.22   313.88   352.66   371.96   378.32
                              399.97   410.67   494.06   521.90   552.66
                              575.25   604.17   641.12   818.77   841.38
                              911.58   942.31  1021.45  1077.24  1093.88
                             1164.10  1221.91  1237.42  1249.97  1272.80
                             1288.98  1308.60  1369.55  1386.38  1389.13
                             1416.89  1500.53  1511.06  1518.44  1569.05
                             1574.25  1593.88  1603.82  1660.24  1672.01
                             1706.37  1713.81  1735.41  1758.20  1769.09
                             1772.74  1783.52  1793.13  1802.30  1879.18
                             1910.33  1956.76  1972.72  1989.89  1993.05
                             2005.06  2051.68  2069.40  2076.44  2120.46
                             2141.50  2161.60  2178.39  2180.34  2186.56
                             2197.66  2202.90  2213.35  2215.72  2224.49
                             2254.17  2350.06  2414.35  2447.53  4339.56
                             4348.75  4365.63  4372.52  4381.93  4387.20
                             4410.86  4414.81  4431.92  4436.60  4455.65
                             4473.98  4496.37  4513.75  4531.30  4563.92
                             4567.89  4593.37  4618.62  5008.90  5132.03

 Zero-point correction=                           0.327084 (Hartree/Particle)
 Thermal correction to Energy=                    0.344742
 Thermal correction to Enthalpy=                  0.345686
 Thermal correction to Gibbs Free Energy=         0.280111
 Sum of electronic and zero-point Energies=           -712.942703
 Sum of electronic and thermal Energies=              -712.925045
 Sum of electronic and thermal Enthalpies=            -712.924101
 Sum of electronic and thermal Free Energies=         -712.989676

                     E (Thermal)             CV                S
                      KCal/Mol        Cal/Mol-Kelvin    Cal/Mol-Kelvin
 Total                  216.329             64.792            138.014
 Electronic               0.000              0.000              0.000
 Translational            0.889              2.981             42.111
 Rotational               0.889              2.981             33.020
 Vibrational            214.551             58.831             62.883
 Vibration     1          0.593              1.986              6.779
 Vibration     2          0.595              1.980              5.152
 Vibration     3          0.595              1.979              5.001
 Vibration     4          0.596              1.974              4.512
 Vibration     5          0.601              1.959              3.737
 Vibration     6          0.604              1.949              3.446
 Vibration     7          0.611              1.925              2.976
 Vibration     8          0.616              1.909              2.749
 Vibration     9          0.618              1.902              2.668
 Vibration    10          0.633              1.856              2.245
 Vibration    11          0.635              1.848              2.189
 Vibration    12          0.646              1.813              1.974
 Vibration    13          0.660              1.771              1.765
 Vibration    14          0.667              1.748              1.672
 Vibration    15          0.670              1.741              1.642
 Vibration    16          0.679              1.714              1.546
 Vibration    17          0.683              1.701              1.501
 Vibration    18          0.722              1.589              1.196
 Vibration    19          0.737              1.549              1.110
 Vibration    20          0.753              1.504              1.023
 Vibration    21          0.766              1.470              0.963
 Vibration    22          0.783              1.427              0.892
 Vibration    23          0.805              1.371              0.809
 Vibration    24          0.925              1.098              0.506
 Vibration    25          0.942              1.064              0.477

 Optimization completed.
    -- Stationary point found.
 Normal termination of Gaussian 16 at Fri Dec 11 01:17:33 2020.

 ----------------------------------------------------------------------
 # B3LYP/6-311++G(d,p) empiricaldispersion=gd3bj scf=xqc pop=npa geom=c
 heck
 ----------------------------------------------------------------------

 --------------------------------------
 CID_79493650_JID_6903_Energie_neutraal
 --------------------------------------
 Structure from the checkpoint file:  "JID_6903.chk"
 Charge =  0 Multiplicity = 1

 SCF Done:  E(RB3LYP) =  -713.475637022     A.U. after   14 cycles
 Normal termination of Gaussian 16 at Fri Dec 11 01:23:21 2020.

 ----------------------------------------------------------------------
 # B3LYP/6-311++G(d,p) empiricaldispersion=gd3bj scf=xqc pop=npa geom=c
 heck
 ----------------------------------------------------------------------

 ------------------------------------
 CID_79493650_JID_6903_Energie_kation
 ------------------------------------
 Structure from the checkpoint file:  "JID_6903.chk"
 Charge =  1 Multiplicity = 2

 SCF Done:  E(UB3LYP) =  -713.174973121     A.U. after   25 cycles
 Normal termination of Gaussian 16 at Fri Dec 11 01:37:48 2020.
 Gaussian 16:  ES64L-G16RevA.03 25-Dec-2016

 ----------------------------------------------------------------------
 # B3LYP/6-311++G(d,p) empiricaldispersion=gd3bj scf=xqc pop=npa geom=c
 heck
 ----------------------------------------------------------------------

 -----------------------------------
 CID_79493650_JID_6903_Energie_anion
 -----------------------------------
 Structure from the checkpoint file:  "JID_6903.chk"
 Charge = -1 Multiplicity = 2

                         Standard orientation:
 ---------------------------------------------------------------------
 Center     Atomic      Atomic             Coordinates (Angstroms)
 Number     Number       Type             X           Y           Z
 ---------------------------------------------------------------------
      1          6           0        4.580400    0.550623    1.724918
      2          6           0        4.705389    0.983403    0.263009
      3          6           0        4.158235   -0.059626   -0.733135
      4          6           0        2.675985   -0.307943   -0.575672
      5          6           0        1.742894    0.614147   -1.066420
      6          6           0        0.375015    0.420962   -0.889485
      7          6           0       -0.105560   -0.708337   -0.213255
      8          6           0        0.822286   -1.631862    0.273946
      9          6           0        2.191073   -1.434882    0.096360
     10          6           0       -1.595130   -0.953438   -0.039012
     11          6           0       -2.302222    0.311859    0.521442
     12          8           0       -2.671173    1.115877   -0.576206
     13          6           0       -3.082438    2.425126   -0.204826
     14          8           0       -3.398578    0.045058    1.374524
     15          6           0       -4.474173   -0.689667    0.810381
     16          7           0       -2.136889   -1.489493   -1.295626
     17          1           0        3.533716    0.381671    1.998643
     18          1           0        4.988762    1.311393    2.399306
     19          1           0        5.125448   -0.384352    1.905695
     20          1           0        4.171585    1.931301    0.113159
     21          1           0        5.759046    1.177637    0.023147
     22          1           0        4.366128    0.284320   -1.754488
     23          1           0        4.705305   -1.001954   -0.600796
     24          1           0        2.094721    1.496679   -1.596706
     25          1           0       -0.329929    1.148621   -1.279472
     26          1           0        0.468609   -2.519386    0.792769
     27          1           0        2.894831   -2.166965    0.485171
     28          1           0       -1.720558   -1.725956    0.728607
     29          1           0       -1.611661    0.859863    1.175570
     30          1           0       -3.940824    2.394613    0.475145
     31          1           0       -2.261782    2.970375    0.283680
     32          1           0       -3.360423    2.941439   -1.126414
     33          1           0       -4.765496   -0.292214   -0.169396
     34          1           0       -4.235743   -1.758861    0.714184
     35          1           0       -5.314599   -0.587499    1.501502
     36          1           0       -3.130397   -1.683492   -1.191693
     37          1           0       -2.071027   -0.760450   -2.004283
 ---------------------------------------------------------------------

 SCF Done:  E(UB3LYP) =  -713.461660110     A.U. after   33 cycles
 SCF Done:  E(UB3LYP) =  -713.461660110     a.u. after    1 cycles

 The electronic state is 2-A.
 Alpha  occ. eigenvalues --  -19.04640 -19.04158 -14.20307 -10.17843 -10.12241
 Alpha  occ. eigenvalues --  -10.12233 -10.11804 -10.09075 -10.09030 -10.08496
 Alpha  occ. eigenvalues --  -10.08354 -10.08288 -10.08219 -10.08127 -10.07977
 Alpha  occ. eigenvalues --  -10.06904  -0.98736  -0.92511  -0.80431  -0.76827
 Alpha  occ. eigenvalues --   -0.71146  -0.67265  -0.65771  -0.64973  -0.60547
 Alpha  occ. eigenvalues --   -0.60318  -0.56776  -0.52462  -0.51719  -0.49340
 Alpha  occ. eigenvalues --   -0.47855  -0.43749  -0.42683  -0.41002  -0.40092
 Alpha  occ. eigenvalues --   -0.39061  -0.37748  -0.36468  -0.35768  -0.35532
 Alpha  occ. eigenvalues --   -0.34767  -0.34261  -0.33898  -0.32995  -0.31521
 Alpha  occ. eigenvalues --   -0.30711  -0.29741  -0.28510  -0.27949  -0.27435
 Alpha  occ. eigenvalues --   -0.26350  -0.25580  -0.25190  -0.24336  -0.23883
 Alpha  occ. eigenvalues --   -0.22487  -0.20081  -0.19201  -0.16639  -0.15315
 Alpha  occ. eigenvalues --   -0.15121   0.04034
 Alpha virt. eigenvalues --    0.05165   0.06395   0.06946   0.07222   0.07430
 Alpha virt. eigenvalues --    0.07607   0.07975   0.08354   0.09093   0.09825
 Alpha virt. eigenvalues --    0.10063   0.10088   0.10600   0.11005   0.11276

  Beta  occ. eigenvalues --  -19.04632 -19.04152 -14.20295 -10.17840 -10.12206
  Beta  occ. eigenvalues --  -10.12189 -10.11800 -10.09076 -10.09028 -10.08494
  Beta  occ. eigenvalues --  -10.08346 -10.08275 -10.08205 -10.08121 -10.07958
  Beta  occ. eigenvalues --  -10.06885  -0.98723  -0.92496  -0.80413  -0.76814
  Beta  occ. eigenvalues --   -0.71123  -0.67240  -0.65754  -0.64943  -0.60494
  Beta  occ. eigenvalues --   -0.60269  -0.56737  -0.52436  -0.51674  -0.49295
  Beta  occ. eigenvalues --   -0.47828  -0.43727  -0.42641  -0.40981  -0.40072
  Beta  occ. eigenvalues --   -0.39031  -0.37731  -0.36439  -0.35735  -0.35503
  Beta  occ. eigenvalues --   -0.34741  -0.34229  -0.33858  -0.32976  -0.31496
  Beta  occ. eigenvalues --   -0.30682  -0.29715  -0.28484  -0.27927  -0.27399
  Beta  occ. eigenvalues --   -0.26327  -0.25555  -0.25165  -0.24310  -0.23855
  Beta  occ. eigenvalues --   -0.22454  -0.20060  -0.19186  -0.16623  -0.15300
  Beta  occ. eigenvalues --   -0.15106
  Beta virt. eigenvalues --    0.05885   0.06184   0.06922   0.07234   0.07327
  Beta virt. eigenvalues --    0.07791   0.08008   0.08393   0.08647   0.09474
  Beta virt. eigenvalues --    0.10099   0.10319   0.10504   0.10809   0.11259

 Mulliken charges and spin densities:
               1          2
     1  C    0.231285  -0.847503
     2  C    0.094191  -0.328232
     3  C    0.129546  -0.436332
     4  C    0.559687   0.371348
     5  C   -1.176400   0.580688
     6  C   -0.448977  -0.259559
     7  C    1.697940  -0.739773
     8  C   -0.398945  -0.062251
     9  C   -0.379181  -0.298134
    10  C    0.977319  -0.644962
    11  C   -1.729411   0.541816
    12  O   -0.124413   0.052251
    13  C    0.837080  -1.035433
    14  O   -0.124983   0.040736
    15  C    0.902248  -1.216293
    16  N   -0.386446   0.089509
    17  H    0.078582   0.067276
    18  H   -0.127727   0.262548
    19  H   -0.008181   0.139874
    20  H   -0.042888   0.172600
    21  H   -0.384667   0.536121
    22  H    0.035471   0.123868
    23  H   -0.182214   0.339029
    24  H   -0.316899   0.485402
    25  H    0.116063   0.079721
    26  H   -0.079216   0.220102
    27  H    0.068710   0.085811
    28  H    0.304207  -0.045752
    29  H    0.166537   0.046066
    30  H   -0.137691   0.288455
    31  H   -0.193277   0.320886
    32  H   -0.338358   0.490483
    33  H   -0.240110   0.417253
    34  H   -0.280714   0.407011
    35  H   -0.390251   0.563852
    36  H    0.139231   0.094858
    37  H    0.152853   0.096660
 Sum of Mulliken charges =  -1.00000   1.00000

 Dipole moment (field-independent basis, Debye):
    X=              1.3417    Y=             -1.9780    Z=              0.2479  Tot=              2.4029
 Quadrupole moment (field-independent basis, Debye-Ang):
   XX=           -221.4754   YY=           -140.9906   ZZ=           -134.6369
   XY=             -4.4058   XZ=              0.2204   YZ=             -1.1789

 Summary of Natural Population Analysis:

                                       Natural Population
                Natural  -----------------------------------------------
    Atom  No    Charge         Core      Valence    Rydberg      Total
 -----------------------------------------------------------------------
      C    1   -0.28745      0.99967     2.28330    0.00448     3.28745
      C    2   -0.18486      0.99964     2.17763    0.00760     3.18486
      C    3   -0.19762      0.99960     2.18773    0.01029     3.19762
      C    4   -0.01713      0.99951     2.00641    0.01121     3.01713
      C    5   -0.09621      0.99951     2.08715    0.00955     3.09621
      C    6   -0.10181      0.99951     2.09304    0.00926     3.10181
      C    7   -0.01615      0.99950     2.00600    0.01065     3.01615
      C    8   -0.09273      0.99951     2.08495    0.00827     3.09273
      C    9   -0.09910      0.99951     2.09123    0.00836     3.09910
      C   10   -0.03774      0.99953     2.02448    0.01373     3.03774
      C   11    0.21973      0.99955     1.76145    0.01927     2.78027
      O   12   -0.30921      0.99987     3.29949    0.00984     4.30921
      C   13   -0.10132      0.99961     2.09222    0.00949     3.10132
      O   14   -0.30400      0.99988     3.29414    0.00998     4.30400
      C   15   -0.10840      0.99960     2.09878    0.01002     3.10840
      N   16   -0.41470      0.99977     2.90589    0.00904     3.91470
      H   17    0.10066      0.00000     0.39811    0.00123     0.39934
      H   18    0.09866      0.00000     0.40032    0.00102     0.40134
      H   19    0.09404      0.00000     0.40469    0.00127     0.40596
      H   20    0.09478      0.00000     0.40389    0.00133     0.40522
      H   21    0.09596      0.00000     0.40240    0.00164     0.40404
      H   22    0.10316      0.00000     0.39572    0.00112     0.39684
      H   23    0.09802      0.00000     0.40079    0.00120     0.40198
      H   24    0.10047      0.00000     0.39841    0.00113     0.39953
      H   25    0.10851      0.00000     0.38951    0.00198     0.39149
      H   26    0.09920      0.00000     0.39952    0.00129     0.40080
      H   27    0.09944      0.00000     0.39955    0.00102     0.40056
      H   28    0.09923      0.00000     0.39901    0.00176     0.40077
      H   29    0.08271      0.00000     0.41539    0.00189     0.41729
      H   30    0.08792      0.00000     0.41057    0.00151     0.41208
      H   31    0.08093      0.00000     0.41770    0.00137     0.41907
      H   32    0.09218      0.00000     0.40646    0.00136     0.40782
      H   33    0.08772      0.00000     0.41034    0.00194     0.41228
      H   34    0.07761      0.00000     0.42088    0.00152     0.42239
      H   35    0.09393      0.00000     0.40474    0.00132     0.40607
      H   36    0.17515      0.00000     0.32285    0.00200     0.32485
      H   37    0.17843      0.00000     0.31935    0.00223     0.32157
 =======================================================================
   * Total *    0.00000     15.99375    44.81410    0.19215    61.00000

 Normal termination of Gaussian 16 at Fri Dec 11 01:56:55 2020.
