 Gaussian 16, Revision A.03,

 -----------------------------------------------------------
 # opt freq B3LYP/6-31G(d) empiricaldispersion=gd3bj scf=xqc
 -----------------------------------------------------------

 ------------------------------
 CID_82479317_JID_8158_neutraal
 ------------------------------
 Symbolic Z-matrix:
 Charge =  0 Multiplicity = 1

 SCF Done:  E(RB3LYP) =  -838.985673314     A.U. after   15 cycles
 SCF Done:  E(RB3LYP) =  -838.991301254     A.U. after   13 cycles
 SCF Done:  E(RB3LYP) =  -838.993401671     A.U. after   13 cycles
 SCF Done:  E(RB3LYP) =  -838.994287223     A.U. after   12 cycles
 SCF Done:  E(RB3LYP) =  -838.994675773     A.U. after   12 cycles
 SCF Done:  E(RB3LYP) =  -838.994803432     A.U. after   11 cycles
 SCF Done:  E(RB3LYP) =  -838.994830869     A.U. after    9 cycles
 SCF Done:  E(RB3LYP) =  -838.994834374     A.U. after    9 cycles
 SCF Done:  E(RB3LYP) =  -838.994836095     A.U. after    8 cycles
 SCF Done:  E(RB3LYP) =  -838.994837282     A.U. after    8 cycles
 SCF Done:  E(RB3LYP) =  -838.994838067     A.U. after    8 cycles
 SCF Done:  E(RB3LYP) =  -838.994838291     A.U. after    7 cycles
 SCF Done:  E(RB3LYP) =  -838.994838344     A.U. after    7 cycles
 SCF Done:  E(RB3LYP) =  -838.994838368     A.U. after    7 cycles
 Optimization completed.
    -- Stationary point found.
 Normal termination of Gaussian 16 at Fri Dec 11 19:13:07 2020.

 --------------------------------------------------------------------
 #N Geom=AllCheck Guess=TCheck SCRF=Check GenChk RB3LYP/6-31G(d) Freq
 --------------------------------------------------------------------

 Structure from the checkpoint file:  "JID_8158.chk"
 ------------------------------
 CID_82479317_JID_8158_neutraal
 ------------------------------
 Charge =  0 Multiplicity = 1

 SCF Done:  E(RB3LYP) =  -838.994838368     A.U. after    1 cycles

  Exact polarizability: 253.256   2.583 158.819   0.599  -2.734  86.370
 Approx polarizability: 348.537   8.056 272.663   5.579 -10.433 135.442

                      1                      2                      3
                      A                      A                      A
 Frequencies --     42.1768                51.7965                80.5496
 Red. masses --      4.8478                 4.4005                 4.4267
 Frc consts  --      0.0051                 0.0070                 0.0169
 IR Inten    --      2.9953                 1.4229                 0.3580

                      4                      5                      6
                      A                      A                      A
 Frequencies --     97.5829               125.9681               143.5894
 Red. masses --      3.3178                 4.3570                 1.0537
 Frc consts  --      0.0186                 0.0407                 0.0128
 IR Inten    --      5.4603                 0.2996                 0.4096

                      7                      8                      9
                      A                      A                      A
 Frequencies --    169.5687               188.8750               228.2226
 Red. masses --      1.0899                 3.3392                 2.8799
 Frc consts  --      0.0185                 0.0702                 0.0884
 IR Inten    --      0.1250                 6.2371                 5.1923

                     10                     11                     12
                      A                      A                      A
 Frequencies --    235.7058               256.0832               261.4310
 Red. masses --      3.7334                 2.7392                 2.1604
 Frc consts  --      0.1222                 0.1058                 0.0870
 IR Inten    --      1.0580                 7.8029                13.0082

                     13                     14                     15
                      A                      A                      A
 Frequencies --    289.6014               304.3478               329.4094
 Red. masses --      2.0198                 3.9893                 3.3338
 Frc consts  --      0.0998                 0.2177                 0.2131
 IR Inten    --     19.8494                 2.6192                 7.2388

                     16                     17                     18
                      A                      A                      A
 Frequencies --    345.4398               357.7536               418.0510
 Red. masses --      4.1960                 3.2165                 5.5724
 Frc consts  --      0.2950                 0.2425                 0.5738
 IR Inten    --      7.9611                 5.3126                 2.3278

                     19                     20                     21
                      A                      A                      A
 Frequencies --    435.8422               475.9091               479.7670
 Red. masses --      5.8540                 3.6512                 3.7062
 Frc consts  --      0.6552                 0.4872                 0.5026
 IR Inten    --      3.6255                 1.7323                 1.1867

                     22                     23                     24
                      A                      A                      A
 Frequencies --    515.8095               544.2011               571.7500
 Red. masses --      5.8942                 3.2303                 4.7995
 Frc consts  --      0.9240                 0.5636                 0.9244
 IR Inten    --      3.0996                 5.2699                 1.9247

                     25                     26                     27
                      A                      A                      A
 Frequencies --    625.7562               653.4967               663.4024
 Red. masses --      7.6346                 4.6016                 5.8873
 Frc consts  --      1.7614                 1.1578                 1.5266
 IR Inten    --      0.4738                11.8318                 6.0040

                     28                     29                     30
                      A                      A                      A
 Frequencies --    700.5767               715.6455               718.9395
 Red. masses --      5.4737                 3.5435                 3.9657
 Frc consts  --      1.5829                 1.0692                 1.2077
 IR Inten    --      1.1803                45.3521                10.5190

                     31                     32                     33
                      A                      A                      A
 Frequencies --    746.1006               754.7702               791.6993
 Red. masses --      4.9577                 5.2953                 2.3586
 Frc consts  --      1.6260                 1.7774                 0.8710
 IR Inten    --      3.4777                 4.2901                80.3555

                     34                     35                     36
                      A                      A                      A
 Frequencies --    800.5638               882.7312               908.3047
 Red. masses --      2.5029                 1.3152                 2.6846
 Frc consts  --      0.9451                 0.6038                 1.3050
 IR Inten    --    100.7625                 6.3458                43.1507

                     37                     38                     39
                      A                      A                      A
 Frequencies --    911.3891               942.9094               957.6888
 Red. masses --      1.3537                 3.9692                 2.7906
 Frc consts  --      0.6625                 2.0792                 1.5080
 IR Inten    --     25.1705                 5.9413                16.4013

                     40                     41                     42
                      A                      A                      A
 Frequencies --    980.8501              1034.3968              1044.8471
 Red. masses --      4.3824                 2.9073                 2.0178
 Frc consts  --      2.4841                 1.8328                 1.2979
 IR Inten    --     11.8193                 1.8371                23.8599

                     43                     44                     45
                      A                      A                      A
 Frequencies --   1047.8609              1075.0049              1077.2383
 Red. masses --      1.5077                 1.4849                 1.4804
 Frc consts  --      0.9754                 1.0111                 1.0122
 IR Inten    --      5.9196                 4.3729                 1.3745

                     46                     47                     48
                      A                      A                      A
 Frequencies --   1099.6169              1106.4543              1137.9657
 Red. masses --      3.9416                 2.9449                 1.9909
 Frc consts  --      2.8081                 2.1242                 1.5190
 IR Inten    --     80.4244                32.2887                 3.8925

                     49                     50                     51
                      A                      A                      A
 Frequencies --   1187.3577              1200.8549              1225.3991
 Red. masses --      2.8945                 5.0112                 3.3681
 Frc consts  --      2.4043                 4.2577                 2.9799
 IR Inten    --     43.0018                57.3367                32.7645

                     52                     53                     54
                      A                      A                      A
 Frequencies --   1256.0978              1274.1078              1290.2784
 Red. masses --      1.7632                 1.2737                 1.5952
 Frc consts  --      1.6390                 1.2182                 1.5647
 IR Inten    --      2.1246                 3.3459                73.5614

                     55                     56                     57
                      A                      A                      A
 Frequencies --   1300.8723              1317.4970              1355.7887
 Red. masses --      1.5188                 2.0783                 4.1262
 Frc consts  --      1.5143                 2.1255                 4.4688
 IR Inten    --     52.1379               114.8661               121.4308

                     58                     59                     60
                      A                      A                      A
 Frequencies --   1369.9694              1406.8819              1428.7610
 Red. masses --      5.5866                 1.4761                 1.4381
 Frc consts  --      6.1775                 1.7215                 1.7297
 IR Inten    --    120.7237                 0.2398                22.0284

                     61                     62                     63
                      A                      A                      A
 Frequencies --   1438.8159              1448.6243              1457.6256
 Red. masses --      1.3675                 1.2351                 3.2058
 Frc consts  --      1.6680                 1.5271                 4.0131
 IR Inten    --      1.8837                 2.1247                35.3245

                     64                     65                     66
                      A                      A                      A
 Frequencies --   1497.8894              1510.7018              1513.1441
 Red. masses --      1.6638                 1.0437                 1.0532
 Frc consts  --      2.1994                 1.4034                 1.4208
 IR Inten    --     71.5149                 8.4464                 6.4772

                     67                     68                     69
                      A                      A                      A
 Frequencies --   1519.6965              1523.4703              1527.2617
 Red. masses --      1.1646                 1.1216                 1.2811
 Frc consts  --      1.5847                 1.5338                 1.7607
 IR Inten    --      9.3135                26.4664                37.0523

                     70                     71                     72
                      A                      A                      A
 Frequencies --   1534.5397              1543.4389              1566.2599
 Red. masses --      2.6090                 2.9045                 3.6747
 Frc consts  --      3.6198                 4.0766                 5.3112
 IR Inten    --     84.5854                71.9632                69.6032

                     73                     74                     75
                      A                      A                      A
 Frequencies --   1622.5889              1673.1579              1676.5830
 Red. masses --      7.9812                 2.1239                 3.8799
 Frc consts  --     12.3804                 3.5031                 6.4257
 IR Inten    --     92.7501                 9.1039                13.0170

                     76                     77                     78
                      A                      A                      A
 Frequencies --   1702.6873              3037.8248              3043.9157
 Red. masses --      2.3131                 1.0705                 1.0410
 Frc consts  --      3.9510                 5.8206                 5.6826
 IR Inten    --     59.4129                52.3634                26.3809

                     79                     80                     81
                      A                      A                      A
 Frequencies --   3048.6645              3060.3780              3097.4434
 Red. masses --      1.0649                 1.0357                 1.0985
 Frc consts  --      5.8315                 5.7152                 6.2094
 IR Inten    --     54.5223                23.6237                15.9778

                     82                     83                     84
                      A                      A                      A
 Frequencies --   3121.4616              3132.8575              3133.3576
 Red. masses --      1.1005                 1.0994                 1.1036
 Frc consts  --      6.3174                 6.3576                 6.3838
 IR Inten    --     11.4004                34.3432                23.0437

                     85                     86                     87
                      A                      A                      A
 Frequencies --   3133.8002              3152.8555              3203.9747
 Red. masses --      1.0989                 1.0995                 1.0903
 Frc consts  --      6.3585                 6.4392                 6.5945
 IR Inten    --     36.4473                 6.5098                 9.1398

                     88                     89                     90
                      A                      A                      A
 Frequencies --   3213.1571              3505.2472              3601.2678
 Red. masses --      1.0908                 1.0484                 1.0963
 Frc consts  --      6.6354                 7.5899                 8.3769
 IR Inten    --      0.3372                 2.3880                 8.0674

 - Thermochemistry -
 -------------------
 Temperature   298.150 Kelvin.  Pressure   1.00000 Atm.
 Atom     1 has atomic number  6 and mass  12.00000

 Molecular mass:   246.10044 amu.
 Principal axes and moments of inertia in atomic units:
                           1         2         3
     Eigenvalues --  1841.677277809.135469308.97060
           X            0.99997   0.00580  -0.00472
           Y           -0.00579   0.99998   0.00212
           Z            0.00473  -0.00210   0.99999
 This molecule is an asymmetric top.
 Rotational symmetry number  1.
 Warning -- assumption of classical behavior for rotation
           may cause significant error
 Rotational temperatures (Kelvin)      0.04703     0.01109     0.00930
 Rotational constants (GHZ):           0.97994     0.23111     0.19387
 Zero-point vibrational energy     676991.8 (Joules/Mol)
                                  161.80493 (Kcal/Mol)
 Warning -- explicit consideration of  24 degrees of freedom as
           vibrations may cause significant error
 Vibrational temperatures:     60.68    74.52   115.89   140.40   181.24
          (Kelvin)            206.59   243.97   271.75   328.36   339.13
                              368.45   376.14   416.67   437.89   473.95
                              497.01   514.73   601.48   627.08   684.73
                              690.28   742.13   782.98   822.62   900.32
                              940.24   954.49  1007.97  1029.65  1034.39
                             1073.47  1085.95  1139.08  1151.83  1270.05
                             1306.85  1311.29  1356.64  1377.90  1411.22
                             1488.27  1503.30  1507.64  1546.69  1549.91
                             1582.10  1591.94  1637.28  1708.34  1727.76
                             1763.08  1807.24  1833.16  1856.42  1871.67
                             1895.58  1950.68  1971.08  2024.19  2055.67
                             2070.14  2084.25  2097.20  2155.13  2173.56
                             2177.08  2186.50  2191.93  2197.39  2207.86
                             2220.66  2253.50  2334.54  2407.30  2412.23
                             2449.79  4370.75  4379.52  4386.35  4403.20
                             4456.53  4491.09  4507.48  4508.20  4508.84
                             4536.26  4609.80  4623.02  5043.27  5181.42

 Zero-point correction=                           0.257853 (Hartree/Particle)
 Thermal correction to Energy=                    0.273762
 Thermal correction to Enthalpy=                  0.274706
 Thermal correction to Gibbs Free Energy=         0.214611
 Sum of electronic and zero-point Energies=           -838.736986
 Sum of electronic and thermal Energies=              -838.721076
 Sum of electronic and thermal Enthalpies=            -838.720132
 Sum of electronic and thermal Free Energies=         -838.780227

                     E (Thermal)             CV                S
                      KCal/Mol        Cal/Mol-Kelvin    Cal/Mol-Kelvin
 Total                  171.788             61.532            126.481
 Electronic               0.000              0.000              0.000
 Translational            0.889              2.981             42.402
 Rotational               0.889              2.981             33.259
 Vibrational            170.011             55.570             50.819
 Vibration     1          0.595              1.980              5.154
 Vibration     2          0.596              1.977              4.748
 Vibration     3          0.600              1.962              3.877
 Vibration     4          0.603              1.951              3.502
 Vibration     5          0.611              1.927              3.007
 Vibration     6          0.616              1.910              2.755
 Vibration     7          0.625              1.880              2.440
 Vibration     8          0.633              1.855              2.239
 Vibration     9          0.651              1.798              1.893
 Vibration    10          0.655              1.786              1.835
 Vibration    11          0.666              1.753              1.688
 Vibration    12          0.669              1.743              1.652
 Vibration    13          0.686              1.693              1.476
 Vibration    14          0.695              1.665              1.393
 Vibration    15          0.712              1.617              1.263
 Vibration    16          0.724              1.585              1.187
 Vibration    17          0.733              1.559              1.132
 Vibration    18          0.781              1.431              0.899
 Vibration    19          0.796              1.392              0.840
 Vibration    20          0.833              1.303              0.721
 Vibration    21          0.836              1.295              0.711
 Vibration    22          0.871              1.215              0.620
 Vibration    23          0.899              1.152              0.556
 Vibration    24          0.928              1.092              0.501

                           ! Non-Optimized Parameters !
 Normal termination of Gaussian 16 at Fri Dec 11 19:24:13 2020.

 ----------------------------------------------------------------------
 # B3LYP/6-311++G(d,p) empiricaldispersion=gd3bj scf=xqc pop=npa geom=c
 heck
 ----------------------------------------------------------------------

 --------------------------------------
 CID_82479317_JID_8158_Energie_neutraal
 --------------------------------------
 Structure from the checkpoint file:  "JID_8158.chk"
 Charge =  0 Multiplicity = 1

 SCF Done:  E(RB3LYP) =  -839.222882866     A.U. after   15 cycles
 Normal termination of Gaussian 16 at Fri Dec 11 19:28:48 2020.

 ----------------------------------------------------------------------
 # B3LYP/6-311++G(d,p) empiricaldispersion=gd3bj scf=xqc pop=npa geom=c
 heck
 ----------------------------------------------------------------------

 ------------------------------------
 CID_82479317_JID_8158_Energie_kation
 ------------------------------------
 Structure from the checkpoint file:  "JID_8158.chk"
 Charge =  1 Multiplicity = 2

 SCF Done:  E(UB3LYP) =  -838.960944671     A.U. after   22 cycles
 Normal termination of Gaussian 16 at Fri Dec 11 19:37:53 2020.
 Gaussian 16:  ES64L-G16RevA.03 25-Dec-2016

 ----------------------------------------------------------------------
 # B3LYP/6-311++G(d,p) empiricaldispersion=gd3bj scf=xqc pop=npa geom=c
 heck
 ----------------------------------------------------------------------

 -----------------------------------
 CID_82479317_JID_8158_Energie_anion
 -----------------------------------
 Structure from the checkpoint file:  "JID_8158.chk"
 Charge = -1 Multiplicity = 2

                         Standard orientation:
 ---------------------------------------------------------------------
 Center     Atomic      Atomic             Coordinates (Angstroms)
 Number     Number       Type             X           Y           Z
 ---------------------------------------------------------------------
      1          6           0       -0.479421    2.929881    0.350696
      2          6           0        0.331678    1.671495    0.157834
      3          6           0        1.722188    1.735233    0.238116
      4          6           0        2.526661    0.605404    0.095279
      5          6           0        1.930660   -0.638043   -0.156407
      6          6           0        0.546207   -0.724558   -0.242340
      7          6           0       -0.267616    0.408948   -0.078298
      8          6           0       -1.711773    0.212999   -0.138309
      9          6           0       -2.506914   -0.838217    0.249205
     10          6           0       -3.831256   -0.427648   -0.092386
     11          7           0       -3.839195    0.772080   -0.633859
     12          8           0       -2.511462    1.183643   -0.673752
     13          6           0       -5.098531   -1.193174    0.109511
     14          7           0       -2.146658   -2.074463    0.803788
     15          8           0        2.674730   -1.780998   -0.330860
     16          6           0        4.049198   -1.518381   -0.609426
     17          6           0        4.587598   -0.479272    0.360189
     18          8           0        3.886480    0.754012    0.201005
     19          1           0        0.159767    3.744297    0.704342
     20          1           0       -1.283738    2.781956    1.078845
     21          1           0       -0.959003    3.248594   -0.580045
     22          1           0        2.215399    2.682488    0.434458
     23          1           0        0.109890   -1.688253   -0.484304
     24          1           0       -5.064013   -2.152680   -0.419732
     25          1           0       -5.270124   -1.407684    1.172457
     26          1           0       -5.947620   -0.615968   -0.263795
     27          1           0       -2.849676   -2.429194    1.444927
     28          1           0       -1.247404   -2.038220    1.274640
     29          1           0        4.158112   -1.158045   -1.641550
     30          1           0        4.573484   -2.471213   -0.503825
     31          1           0        4.474684   -0.839301    1.391964
     32          1           0        5.641164   -0.261349    0.168977
 ---------------------------------------------------------------------

 SCF Done:  E(UB3LYP) =  -839.217202975     A.U. after   33 cycles
 SCF Done:  E(UB3LYP) =  -839.217202975     a.u. after    1 cycles

 The electronic state is 2-A.
 Alpha  occ. eigenvalues --  -19.08549 -19.05970 -19.05897 -14.24194 -14.22311
 Alpha  occ. eigenvalues --  -10.13817 -10.13753 -10.13095 -10.12802 -10.11903
 Alpha  occ. eigenvalues --  -10.10308 -10.10149 -10.08329 -10.08311 -10.08264
 Alpha  occ. eigenvalues --  -10.07247 -10.07235 -10.06808  -1.02445  -0.99409
 Alpha  occ. eigenvalues --   -0.95842  -0.81873  -0.77258  -0.75481  -0.69742
 Alpha  occ. eigenvalues --   -0.67812  -0.65559  -0.63338  -0.62633  -0.59446
 Alpha  occ. eigenvalues --   -0.56039  -0.52793  -0.49983  -0.48610  -0.45994
 Alpha  occ. eigenvalues --   -0.44449  -0.42517  -0.42048  -0.40996  -0.38574
 Alpha  occ. eigenvalues --   -0.37039  -0.36354  -0.35299  -0.34938  -0.34363
 Alpha  occ. eigenvalues --   -0.33402  -0.32583  -0.32492  -0.31754  -0.31123
 Alpha  occ. eigenvalues --   -0.30368  -0.29429  -0.29069  -0.27898  -0.26576
 Alpha  occ. eigenvalues --   -0.25679  -0.24296  -0.24128  -0.22407  -0.21222
 Alpha  occ. eigenvalues --   -0.19747  -0.17515  -0.14743  -0.12827  -0.09756
 Alpha  occ. eigenvalues --    0.03825
 Alpha virt. eigenvalues --    0.05356   0.06074   0.07780   0.07926   0.08398
 Alpha virt. eigenvalues --    0.08644   0.08955   0.09514   0.10198   0.10544
 Alpha virt. eigenvalues --    0.11359   0.11583   0.11883   0.12506   0.12757

  Beta  occ. eigenvalues --  -19.08460 -19.05958 -19.05905 -14.24072 -14.22276
  Beta  occ. eigenvalues --  -10.13788 -10.13717 -10.13113 -10.12674 -10.11864
  Beta  occ. eigenvalues --  -10.10308 -10.10112 -10.08301 -10.08263 -10.08211
  Beta  occ. eigenvalues --  -10.07272 -10.07174 -10.06812  -1.02283  -0.99377
  Beta  occ. eigenvalues --   -0.95817  -0.81807  -0.77126  -0.75363  -0.69631
  Beta  occ. eigenvalues --   -0.67703  -0.65460  -0.63247  -0.62562  -0.59375
  Beta  occ. eigenvalues --   -0.55964  -0.52673  -0.49891  -0.48529  -0.45911
  Beta  occ. eigenvalues --   -0.44407  -0.42450  -0.41988  -0.40918  -0.38496
  Beta  occ. eigenvalues --   -0.36816  -0.36231  -0.35246  -0.34837  -0.34299
  Beta  occ. eigenvalues --   -0.33354  -0.32480  -0.32434  -0.31620  -0.31079
  Beta  occ. eigenvalues --   -0.30349  -0.29289  -0.29021  -0.27834  -0.26514
  Beta  occ. eigenvalues --   -0.25609  -0.24099  -0.24040  -0.22190  -0.21162
  Beta  occ. eigenvalues --   -0.19586  -0.17112  -0.14455  -0.12553  -0.09376
  Beta virt. eigenvalues --    0.06233   0.06618   0.07133   0.07849   0.08158
  Beta virt. eigenvalues --    0.08676   0.09136   0.09347   0.09858   0.10396
  Beta virt. eigenvalues --    0.10674   0.11528   0.11809   0.11863   0.12601

 Mulliken charges and spin densities:
               1          2
     1  C   -0.252726  -0.233472
     2  C    0.609701  -0.141663
     3  C   -0.116117  -0.663075
     4  C   -0.062684   0.096795
     5  C    0.230113   0.020373
     6  C   -0.371320  -0.265220
     7  C    0.645308   0.283533
     8  C   -0.728263   0.051224
     9  C   -0.414872   0.192949
    10  C   -0.655450   0.968435
    11  N   -0.416799   0.081151
    12  O    0.179587   0.015223
    13  C    1.055944  -1.574929
    14  N   -0.305343  -0.011622
    15  O   -0.190554   0.054537
    16  C    0.195944  -0.478738
    17  C    0.287918  -0.496138
    18  O   -0.189091   0.060065
    19  H    0.127160  -0.005132
    20  H    0.121061   0.047334
    21  H    0.193465  -0.000217
    22  H    0.100711   0.043081
    23  H    0.184966   0.019944
    24  H    0.022017   0.142430
    25  H   -0.260475   0.421891
    26  H    0.065303   0.089715
    27  H   -0.119295   0.375336
    28  H    0.083556   0.171502
    29  H    0.159555  -0.000277
    30  H   -0.626887   0.829738
    31  H    0.051102   0.117268
    32  H   -0.603535   0.787959
 Sum of Mulliken charges =  -1.00000   1.00000

 Dipole moment (field-independent basis, Debye):
    X=             -1.0080    Y=              2.9479    Z=             -0.3519  Tot=              3.1353
 Quadrupole moment (field-independent basis, Debye-Ang):
   XX=           -212.2558   YY=           -140.6755   ZZ=           -127.9784
   XY=              8.7669   XZ=              3.5947   YZ=              5.8918

 Summary of Natural Population Analysis:

                                       Natural Population
                Natural  -----------------------------------------------
    Atom  No    Charge         Core      Valence    Rydberg      Total
 -----------------------------------------------------------------------
      C    1   -0.29353      0.99964     2.28888    0.00501     3.29353
      C    2    0.00481      0.99951     1.98868    0.00700     2.99519
      C    3   -0.12165      0.99949     2.11394    0.00822     3.12165
      C    4    0.14972      0.99933     1.83892    0.01203     2.85028
      C    5    0.11773      0.99933     1.86994    0.01301     2.88227
      C    6   -0.09594      0.99951     2.08873    0.00770     3.09594
      C    7   -0.04772      0.99946     2.03965    0.00861     3.04772
      C    8    0.14308      0.99938     1.84240    0.01514     2.85692
      C    9    0.03212      0.99936     1.95718    0.01134     2.96788
      C   10    0.06499      0.99957     1.92103    0.01441     2.93501
      N   11   -0.07261      0.99967     2.55983    0.01311     3.57261
      O   12   -0.16234      0.99986     3.15415    0.00834     4.16234
      C   13   -0.30189      0.99963     2.29648    0.00579     3.30189
      N   14   -0.40202      0.99973     2.89212    0.01018     3.90202
      O   15   -0.27656      0.99987     3.26743    0.00926     4.27656
      C   16   -0.02439      0.99958     2.01245    0.01236     3.02439
      C   17   -0.02378      0.99958     2.01164    0.01256     3.02378
      O   18   -0.27451      0.99987     3.26546    0.00918     4.27451
      H   19    0.09485      0.00000     0.40434    0.00082     0.40515
      H   20    0.10687      0.00000     0.39199    0.00114     0.39313
      H   21    0.10912      0.00000     0.38973    0.00115     0.39088
      H   22    0.10105      0.00000     0.39739    0.00155     0.39895
      H   23    0.10867      0.00000     0.38945    0.00189     0.39133
      H   24    0.10540      0.00000     0.39362    0.00099     0.39460
      H   25    0.10565      0.00000     0.39248    0.00187     0.39435
      H   26    0.10976      0.00000     0.38917    0.00107     0.39024
      H   27    0.18555      0.00000     0.31174    0.00271     0.31445
      H   28    0.18827      0.00000     0.30998    0.00175     0.31173
      H   29    0.08546      0.00000     0.41317    0.00138     0.41454
      H   30    0.09895      0.00000     0.39905    0.00200     0.40105
      H   31    0.08687      0.00000     0.41152    0.00161     0.41313
      H   32    0.09805      0.00000     0.39979    0.00216     0.40195
 =======================================================================
   * Total *   -0.00000     17.99235    46.80232    0.20532    65.00000

 Normal termination of Gaussian 16 at Fri Dec 11 19:51:20 2020.
