 Gaussian 16, Revision A.03,

 -----------------------------------------------------------
 # opt freq B3LYP/6-31G(d) empiricaldispersion=gd3bj scf=xqc
 -----------------------------------------------------------

 -------------------------------
 CID_139548782_JID_4362_neutraal
 -------------------------------
 Symbolic Z-matrix:
 Charge =  0 Multiplicity = 1

 SCF Done:  E(RB3LYP) =  -566.448395019     A.U. after   13 cycles
 SCF Done:  E(RB3LYP) =  -566.451669726     A.U. after   11 cycles
 SCF Done:  E(RB3LYP) =  -566.452290128     A.U. after   10 cycles
 SCF Done:  E(RB3LYP) =  -566.452665454     A.U. after   11 cycles
 SCF Done:  E(RB3LYP) =  -566.452852204     A.U. after   10 cycles
 SCF Done:  E(RB3LYP) =  -566.452987108     A.U. after   10 cycles
 SCF Done:  E(RB3LYP) =  -566.453023058     A.U. after   10 cycles
 SCF Done:  E(RB3LYP) =  -566.453031137     A.U. after    9 cycles
 SCF Done:  E(RB3LYP) =  -566.453034734     A.U. after    9 cycles
 SCF Done:  E(RB3LYP) =  -566.453035806     A.U. after    8 cycles
 SCF Done:  E(RB3LYP) =  -566.453036559     A.U. after    9 cycles
 SCF Done:  E(RB3LYP) =  -566.453036639     A.U. after    7 cycles
 SCF Done:  E(RB3LYP) =  -566.453036672     A.U. after    6 cycles
 SCF Done:  E(RB3LYP) =  -566.453036682     A.U. after    7 cycles
 Optimization completed.
    -- Stationary point found.
 Normal termination of Gaussian 16 at Thu Dec 10 09:29:41 2020.

 --------------------------------------------------------------------
 #N Geom=AllCheck Guess=TCheck SCRF=Check GenChk RB3LYP/6-31G(d) Freq
 --------------------------------------------------------------------

 Structure from the checkpoint file:  "JID_4362.chk"
 -------------------------------
 CID_139548782_JID_4362_neutraal
 -------------------------------
 Charge =  0 Multiplicity = 1

 SCF Done:  E(RB3LYP) =  -566.453036682     A.U. after    1 cycles

  Exact polarizability: 171.135  -4.822 148.589   6.052  -2.183 123.085
 Approx polarizability: 212.445 -10.475 197.919  14.312  -6.813 185.727

                      1                      2                      3
                      A                      A                      A
 Frequencies --     19.9174                27.2597                36.6215
 Red. masses --      2.9432                 3.6342                 2.6407
 Frc consts  --      0.0007                 0.0016                 0.0021
 IR Inten    --      0.0846                 0.1057                 0.1824

                      4                      5                      6
                      A                      A                      A
 Frequencies --     45.0872                53.4113                84.5730
 Red. masses --      2.5979                 3.0278                 2.5395
 Frc consts  --      0.0031                 0.0051                 0.0107
 IR Inten    --      0.0089                 0.0723                 0.1813

                      7                      8                      9
                      A                      A                      A
 Frequencies --    111.1134               127.1409               145.0514
 Red. masses --      3.1364                 2.4784                 2.3199
 Frc consts  --      0.0228                 0.0236                 0.0288
 IR Inten    --      0.4001                 1.0878                 0.3823

                     10                     11                     12
                      A                      A                      A
 Frequencies --    189.3405               222.7791               233.1841
 Red. masses --      1.8656                 1.2797                 1.4219
 Frc consts  --      0.0394                 0.0374                 0.0456
 IR Inten    --      0.2985                 0.2267                 0.2851

                     13                     14                     15
                      A                      A                      A
 Frequencies --    240.9095               246.8543               264.2830
 Red. masses --      1.2428                 1.5706                 1.2021
 Frc consts  --      0.0425                 0.0564                 0.0495
 IR Inten    --      0.1795                 0.2784                 0.5265

                     16                     17                     18
                      A                      A                      A
 Frequencies --    281.8648               296.7404               310.4822
 Red. masses --      1.0640                 1.9342                 2.3806
 Frc consts  --      0.0498                 0.1003                 0.1352
 IR Inten    --      0.0991                 0.2733                 0.3169

                     19                     20                     21
                      A                      A                      A
 Frequencies --    348.9955               364.7882               402.1682
 Red. masses --      2.2943                 2.2412                 2.3763
 Frc consts  --      0.1646                 0.1757                 0.2264
 IR Inten    --      0.3070                 0.0956                 1.2677

                     22                     23                     24
                      A                      A                      A
 Frequencies --    411.9451               446.9592               463.1672
 Red. masses --      2.2106                 2.6535                 2.1032
 Frc consts  --      0.2210                 0.3123                 0.2658
 IR Inten    --      0.1167                 1.1381                 2.7121

                     25                     26                     27
                      A                      A                      A
 Frequencies --    475.8686               501.2271               588.3265
 Red. masses --      2.2448                 2.6381                 2.5715
 Frc consts  --      0.2995                 0.3905                 0.5244
 IR Inten    --      0.1747                 1.6318                 4.0523

                     28                     29                     30
                      A                      A                      A
 Frequencies --    655.2918               729.0063               772.4230
 Red. masses --      2.9822                 1.5630                 1.6862
 Frc consts  --      0.7545                 0.4894                 0.5928
 IR Inten    --      5.5440                 9.6197                 1.6653

                     31                     32                     33
                      A                      A                      A
 Frequencies --    780.4884               821.3695               853.7838
 Red. masses --      1.6540                 2.4288                 1.9483
 Frc consts  --      0.5937                 0.9654                 0.8368
 IR Inten    --     62.8320                 2.1995                10.4643

                     34                     35                     36
                      A                      A                      A
 Frequencies --    866.8412               899.3695               919.7908
 Red. masses --      1.5679                 1.5733                 1.8664
 Frc consts  --      0.6942                 0.7498                 0.9303
 IR Inten    --      3.5351                 5.7277                 5.2100

                     37                     38                     39
                      A                      A                      A
 Frequencies --    937.0100               945.8302               951.2965
 Red. masses --      1.2373                 1.1880                 1.4763
 Frc consts  --      0.6401                 0.6262                 0.7871
 IR Inten    --      1.9195                 2.1483                 0.4899

                     40                     41                     42
                      A                      A                      A
 Frequencies --    963.1625               964.7780               970.2248
 Red. masses --      2.0046                 1.6436                 1.7036
 Frc consts  --      1.0957                 0.9013                 0.9449
 IR Inten    --      0.4314                 2.7980                 0.3984

                     43                     44                     45
                      A                      A                      A
 Frequencies --    978.6267              1005.9223              1041.9177
 Red. masses --      1.4776                 1.6486                 1.6785
 Frc consts  --      0.8337                 0.9829                 1.0736
 IR Inten    --      0.9834                 2.6761                 6.9791

                     46                     47                     48
                      A                      A                      A
 Frequencies --   1084.8219              1095.4354              1116.6077
 Red. masses --      2.1661                 1.7244                 2.5827
 Frc consts  --      1.5019                 1.2192                 1.8972
 IR Inten    --      1.9813                 6.2077                16.2616

                     49                     50                     51
                      A                      A                      A
 Frequencies --   1132.7889              1140.3497              1150.3066
 Red. masses --      2.0100                 2.0049                 1.9991
 Frc consts  --      1.5196                 1.5361                 1.5585
 IR Inten    --      8.2406                13.1975                13.3747

                     52                     53                     54
                      A                      A                      A
 Frequencies --   1160.5907              1172.9704              1197.2333
 Red. masses --      1.9932                 2.0668                 1.7233
 Frc consts  --      1.5818                 1.6754                 1.4553
 IR Inten    --      9.2820                 3.4476                 2.7432

                     55                     56                     57
                      A                      A                      A
 Frequencies --   1207.3693              1218.5260              1254.2446
 Red. masses --      1.9411                 1.5986                 1.6026
 Frc consts  --      1.6672                 1.3985                 1.4854
 IR Inten    --     51.6838                 2.1674                 3.3785

                     58                     59                     60
                      A                      A                      A
 Frequencies --   1276.1518              1294.1672              1332.4100
 Red. masses --      1.3498                 1.3904                 1.1648
 Frc consts  --      1.2952                 1.3720                 1.2183
 IR Inten    --      0.2254                 6.1745                 1.8184

                     61                     62                     63
                      A                      A                      A
 Frequencies --   1344.6821              1357.7439              1364.5720
 Red. masses --      1.3296                 1.3304                 1.3445
 Frc consts  --      1.4165                 1.4450                 1.4751
 IR Inten    --      6.4835                19.0070                 1.9224

                     64                     65                     66
                      A                      A                      A
 Frequencies --   1371.5510              1380.8310              1395.3691
 Red. masses --      1.3350                 1.3178                 1.3351
 Frc consts  --      1.4796                 1.4804                 1.5316
 IR Inten    --      9.9246                 2.4228                10.3188

                     67                     68                     69
                      A                      A                      A
 Frequencies --   1403.5897              1409.5605              1421.1511
 Red. masses --      1.3593                 1.3809                 1.2802
 Frc consts  --      1.5778                 1.6165                 1.5234
 IR Inten    --      4.3079                 0.7991                10.0952

                     70                     71                     72
                      A                      A                      A
 Frequencies --   1427.8588              1437.8846              1442.5795
 Red. masses --      1.2874                 1.4258                 1.2615
 Frc consts  --      1.5464                 1.7369                 1.5467
 IR Inten    --      2.2343                 0.9671                11.0743

                     73                     74                     75
                      A                      A                      A
 Frequencies --   1442.9587              1446.8341              1498.1371
 Red. masses --      1.2610                 1.2827                 1.1634
 Frc consts  --      1.5470                 1.5821                 1.5384
 IR Inten    --      8.1680                 1.3235                30.7218

                     76                     77                     78
                      A                      A                      A
 Frequencies --   1509.9152              1515.3743              1516.6124
 Red. masses --      1.0790                 1.0527                 1.0445
 Frc consts  --      1.4493                 1.4242                 1.4155
 IR Inten    --      1.0389                 0.3937                 1.1411

                     79                     80                     81
                      A                      A                      A
 Frequencies --   1518.1227              1521.4141              1521.9969
 Red. masses --      1.0506                 1.0762                 1.0629
 Frc consts  --      1.4266                 1.4677                 1.4507
 IR Inten    --      3.7620                 0.7302                 0.5294

                     82                     83                     84
                      A                      A                      A
 Frequencies --   1524.8882              1533.2639              1535.2415
 Red. masses --      1.0742                 1.0570                 1.0476
 Frc consts  --      1.4717                 1.4640                 1.4548
 IR Inten    --      2.8345                 5.4442                10.4340

                     85                     86                     87
                      A                      A                      A
 Frequencies --   1536.4648              1539.1763              1539.7639
 Red. masses --      1.0820                 1.0575                 1.0612
 Frc consts  --      1.5050                 1.4761                 1.4824
 IR Inten    --      4.7153                 6.3926                 8.6009

                     88                     89                     90
                      A                      A                      A
 Frequencies --   1542.2266              1559.1874              1746.9366
 Red. masses --      1.0570                 1.0823                 6.9118
 Frc consts  --      1.4813                 1.5503                12.4279
 IR Inten    --      4.4065                 8.9435                 2.0164

                     91                     92                     93
                      A                      A                      A
 Frequencies --   3005.4429              3024.1100              3025.1985
 Red. masses --      1.0647                 1.0612                 1.0835
 Frc consts  --      5.6664                 5.7180                 5.8423
 IR Inten    --     46.3099                30.0542                12.4812

                     94                     95                     96
                      A                      A                      A
 Frequencies --   3037.1005              3038.1148              3038.9066
 Red. masses --      1.0394                 1.0634                 1.0676
 Frc consts  --      5.6485                 5.7831                 5.8091
 IR Inten    --     17.9448                23.1465                 2.3945

                     97                     98                     99
                      A                      A                      A
 Frequencies --   3040.6188              3042.8247              3043.8290
 Red. masses --      1.0478                 1.0411                 1.0416
 Frc consts  --      5.7077                 5.6792                 5.6856
 IR Inten    --     16.6717                23.5302                23.5229

                    100                    101                    102
                      A                      A                      A
 Frequencies --   3047.0243              3047.9088              3048.7516
 Red. masses --      1.0444                 1.0683                 1.0761
 Frc consts  --      5.7131                 5.8472                 5.8929
 IR Inten    --     19.5987                12.4014                72.8748

                    103                    104                    105
                      A                      A                      A
 Frequencies --   3064.3954              3073.3809              3084.9710
 Red. masses --      1.0966                 1.0997                 1.1020
 Frc consts  --      6.0673                 6.1202                 6.1792
 IR Inten    --     32.3639                50.0285                55.1153

                    106                    107                    108
                      A                      A                      A
 Frequencies --   3100.1975              3103.3935              3108.3001
 Red. masses --      1.0996                 1.1020                 1.1017
 Frc consts  --      6.2267                 6.2531                 6.2715
 IR Inten    --      5.6851                 3.4874                59.6349

                    109                    110                    111
                      A                      A                      A
 Frequencies --   3109.3859              3111.1471              3114.2239
 Red. masses --      1.0981                 1.1016                 1.1019
 Frc consts  --      6.2550                 6.2822                 6.2963
 IR Inten    --     71.9903                71.7139                54.2567

                    112                    113                    114
                      A                      A                      A
 Frequencies --   3114.5788              3120.4612              3121.6667
 Red. masses --      1.1014                 1.1007                 1.1026
 Frc consts  --      6.2948                 6.3150                 6.3303
 IR Inten    --     37.2008                41.5728                33.9956

                    115                    116                    117
                      A                      A                      A
 Frequencies --   3136.4295              3165.0987              3467.8363
 Red. masses --      1.1024                 1.0873                 1.0734
 Frc consts  --      6.3892                 6.4173                 7.6058
 IR Inten    --     27.9131                23.7930                 0.7719

 - Thermochemistry -
 -------------------
 Temperature   298.150 Kelvin.  Pressure   1.00000 Atm.
 Atom     1 has atomic number  6 and mass  12.00000

 Molecular mass:   197.21435 amu.
 Principal axes and moments of inertia in atomic units:
                           1         2         3
     Eigenvalues --  2337.990825292.399146812.57002
           X            0.99998   0.00572   0.00113
           Y           -0.00572   0.99998  -0.00097
           Z           -0.00114   0.00097   1.00000
 This molecule is an asymmetric top.
 Rotational symmetry number  1.
 Warning -- assumption of classical behavior for rotation
           may cause significant error
 Rotational temperatures (Kelvin)      0.03705     0.01637     0.01271
 Rotational constants (GHZ):           0.77192     0.34101     0.26491
 Zero-point vibrational energy    1008286.6 (Joules/Mol)
                                  240.98627 (Kcal/Mol)
 Warning -- explicit consideration of  27 degrees of freedom as
           vibrations may cause significant error
 Vibrational temperatures:     28.66    39.22    52.69    64.87    76.85
          (Kelvin)            121.68   159.87   182.93   208.70   272.42
                              320.53   335.50   346.61   355.17   380.24
                              405.54   426.94   446.71   502.13   524.85
                              578.63   592.70   643.07   666.39   684.67
                              721.15   846.47   942.82  1048.88  1111.34
                             1122.95  1181.77  1228.40  1247.19  1293.99
                             1323.37  1348.15  1360.84  1368.70  1385.78
                             1388.10  1395.94  1408.03  1447.30  1499.09
                             1560.82  1576.09  1606.55  1629.83  1640.71
                             1655.03  1669.83  1687.64  1722.55  1737.14
                             1753.19  1804.58  1836.10  1862.02  1917.04
                             1934.70  1953.49  1963.31  1973.36  1986.71
                             2007.62  2019.45  2028.04  2044.72  2054.37
                             2068.80  2075.55  2076.10  2081.67  2155.49
                             2172.43  2180.29  2182.07  2184.24  2188.98
                             2189.81  2193.97  2206.02  2208.87  2210.63
                             2214.53  2215.38  2218.92  2243.32  2513.45
                             4324.16  4351.02  4352.59  4369.71  4371.17
                             4372.31  4374.77  4377.95  4379.39  4383.99
                             4385.26  4386.47  4408.98  4421.91  4438.59
                             4460.49  4465.09  4472.15  4473.71  4476.25
                             4480.67  4481.18  4489.65  4491.38  4512.62
                             4553.87  4989.44

 Zero-point correction=                           0.384036 (Hartree/Particle)
 Thermal correction to Energy=                    0.402333
 Thermal correction to Enthalpy=                  0.403277
 Thermal correction to Gibbs Free Energy=         0.335763
 Sum of electronic and zero-point Energies=           -566.069001
 Sum of electronic and thermal Energies=              -566.050704
 Sum of electronic and thermal Enthalpies=            -566.049760
 Sum of electronic and thermal Free Energies=         -566.117273

                     E (Thermal)             CV                S
                      KCal/Mol        Cal/Mol-Kelvin    Cal/Mol-Kelvin
 Total                  252.468             66.957            142.094
 Electronic               0.000              0.000              0.000
 Translational            0.889              2.981             41.742
 Rotational               0.889              2.981             32.800
 Vibrational            250.690             60.996             67.553
 Vibration     1          0.593              1.986              6.642
 Vibration     2          0.593              1.984              6.019
 Vibration     3          0.594              1.982              5.434
 Vibration     4          0.595              1.979              5.022
 Vibration     5          0.596              1.976              4.687
 Vibration     6          0.601              1.960              3.782
 Vibration     7          0.607              1.940              3.249
 Vibration     8          0.611              1.926              2.989
 Vibration     9          0.616              1.908              2.736
 Vibration    10          0.633              1.855              2.234
 Vibration    11          0.648              1.806              1.936
 Vibration    12          0.654              1.790              1.854
 Vibration    13          0.658              1.778              1.796
 Vibration    14          0.661              1.768              1.753
 Vibration    15          0.671              1.738              1.633
 Vibration    16          0.681              1.707              1.522
 Vibration    17          0.690              1.680              1.435
 Vibration    18          0.699              1.654              1.360
 Vibration    19          0.726              1.577              1.171
 Vibration    20          0.738              1.545              1.102
 Vibration    21          0.768              1.465              0.955
 Vibration    22          0.776              1.444              0.920
 Vibration    23          0.806              1.368              0.805
 Vibration    24          0.821              1.332              0.757
 Vibration    25          0.833              1.304              0.721
 Vibration    26          0.857              1.247              0.655
 Vibration    27          0.946              1.057              0.470

                           ! Non-Optimized Parameters !
 Normal termination of Gaussian 16 at Thu Dec 10 09:43:34 2020.

 ----------------------------------------------------------------------
 # B3LYP/6-311++G(d,p) empiricaldispersion=gd3bj scf=xqc pop=npa geom=c
 heck
 ----------------------------------------------------------------------

 ---------------------------------------
 CID_139548782_JID_4362_Energie_neutraal
 ---------------------------------------
 Structure from the checkpoint file:  "JID_4362.chk"
 Charge =  0 Multiplicity = 1

 SCF Done:  E(RB3LYP) =  -566.614352222     A.U. after   13 cycles
 Normal termination of Gaussian 16 at Thu Dec 10 09:50:47 2020.

 ----------------------------------------------------------------------
 # B3LYP/6-311++G(d,p) empiricaldispersion=gd3bj scf=xqc pop=npa geom=c
 heck
 ----------------------------------------------------------------------

 -------------------------------------
 CID_139548782_JID_4362_Energie_kation
 -------------------------------------
 Structure from the checkpoint file:  "JID_4362.chk"
 Charge =  1 Multiplicity = 2

 SCF Done:  E(UB3LYP) =  -566.320700764     A.U. after   21 cycles
 Normal termination of Gaussian 16 at Thu Dec 10 10:07:02 2020.
 Gaussian 16:  ES64L-G16RevA.03 25-Dec-2016

 ----------------------------------------------------------------------
 # B3LYP/6-311++G(d,p) empiricaldispersion=gd3bj scf=xqc pop=npa geom=c
 heck
 ----------------------------------------------------------------------

 ------------------------------------
 CID_139548782_JID_4362_Energie_anion
 ------------------------------------
 Structure from the checkpoint file:  "JID_4362.chk"
 Charge = -1 Multiplicity = 2

                         Standard orientation:
 ---------------------------------------------------------------------
 Center     Atomic      Atomic             Coordinates (Angstroms)
 Number     Number       Type             X           Y           Z
 ---------------------------------------------------------------------
      1          6           0        4.614756   -1.089405    0.540198
      2          6           0        3.674329   -1.050588   -0.667866
      3          6           0        2.361485   -1.818599   -0.461707
      4          6           0        1.491329   -1.304655    0.705952
      5          6           0        1.183807    0.169542    0.611889
      6          6           0        0.120193    0.735211    0.024365
      7          6           0       -0.992393   -0.086263   -0.590121
      8          7           0       -2.169983   -0.035430    0.280817
      9          6           0       -3.367988   -0.709660   -0.230699
     10          6           0       -3.210476   -2.227631   -0.423770
     11          6           0       -4.539218   -0.392490    0.701061
     12          6           0       -0.091989    2.239527   -0.053899
     13          6           0        0.621052    3.039461    1.041149
     14          6           0        0.311209    2.765864   -1.445482
     15          1           0        4.176659   -0.589336    1.411460
     16          1           0        5.564316   -0.589789    0.318318
     17          1           0        4.840851   -2.122730    0.831832
     18          1           0        3.444055   -0.007412   -0.920333
     19          1           0        4.190801   -1.470269   -1.541024
     20          1           0        1.769829   -1.759322   -1.384744
     21          1           0        2.583698   -2.882402   -0.295661
     22          1           0        0.569612   -1.896550    0.739008
     23          1           0        2.008325   -1.498767    1.654149
     24          1           0        1.936325    0.824231    1.047439
     25          1           0       -1.288409    0.352424   -1.552820
     26          1           0       -0.645842   -1.106494   -0.812194
     27          1           0       -1.921538   -0.426310    1.189875
     28          1           0       -3.574136   -0.257405   -1.211502
     29          1           0       -2.997718   -2.714308    0.537391
     30          1           0       -4.127803   -2.671837   -0.827581
     31          1           0       -2.393705   -2.468055   -1.112180
     32          1           0       -4.654078    0.689393    0.814548
     33          1           0       -5.475546   -0.812406    0.317387
     34          1           0       -4.366500   -0.822048    1.696914
     35          1           0       -1.172329    2.395839    0.066746
     36          1           0        1.711225    2.996560    0.929794
     37          1           0        0.331760    4.095120    0.988893
     38          1           0        0.367924    2.662795    2.037764
     39          1           0       -0.204434    2.230596   -2.250258
     40          1           0        0.069947    3.830785   -1.545045
     41          1           0        1.390023    2.643818   -1.600312
 ---------------------------------------------------------------------

 SCF Done:  E(UB3LYP) =  -566.599663518     A.U. after   31 cycles

 The electronic state is 2-A.
 Alpha  occ. eigenvalues --  -14.19909 -10.10411 -10.09411 -10.07971 -10.07400
 Alpha  occ. eigenvalues --  -10.07050 -10.06778 -10.06758 -10.06719 -10.06619
 Alpha  occ. eigenvalues --  -10.06566 -10.06461 -10.06253 -10.06128  -0.81356
 Alpha  occ. eigenvalues --   -0.73211  -0.70394  -0.67524  -0.65653  -0.61453
 Alpha  occ. eigenvalues --   -0.59496  -0.59245  -0.56943  -0.53947  -0.50444
 Alpha  occ. eigenvalues --   -0.49109  -0.46838  -0.41832  -0.38911  -0.37862
 Alpha  occ. eigenvalues --   -0.37229  -0.36203  -0.36014  -0.34811  -0.33755
 Alpha  occ. eigenvalues --   -0.33132  -0.31939  -0.31232  -0.30570  -0.29627
 Alpha  occ. eigenvalues --   -0.29362  -0.29320  -0.28471  -0.27452  -0.27350
 Alpha  occ. eigenvalues --   -0.26095  -0.25428  -0.24934  -0.24151  -0.24032
 Alpha  occ. eigenvalues --   -0.23540  -0.23322  -0.22475  -0.21287  -0.14636
 Alpha  occ. eigenvalues --   -0.13089   0.04217
 Alpha virt. eigenvalues --    0.05918   0.06363   0.07051   0.07673   0.08258
 Alpha virt. eigenvalues --    0.08387   0.08853   0.09069   0.09740   0.09966
 Alpha virt. eigenvalues --    0.10271   0.10908   0.11375   0.11506   0.11859

  Beta  occ. eigenvalues --  -14.19899 -10.10399 -10.09398 -10.07967 -10.07392
  Beta  occ. eigenvalues --  -10.07038 -10.06763 -10.06744 -10.06703 -10.06605
  Beta  occ. eigenvalues --  -10.06558 -10.06439 -10.06223 -10.06094  -0.81335
  Beta  occ. eigenvalues --   -0.73189  -0.70367  -0.67496  -0.65622  -0.61414
  Beta  occ. eigenvalues --   -0.59460  -0.59194  -0.56898  -0.53900  -0.50404
  Beta  occ. eigenvalues --   -0.49051  -0.46784  -0.41798  -0.38885  -0.37827
  Beta  occ. eigenvalues --   -0.37194  -0.36173  -0.35986  -0.34776  -0.33727
  Beta  occ. eigenvalues --   -0.33098  -0.31902  -0.31203  -0.30537  -0.29597
  Beta  occ. eigenvalues --   -0.29330  -0.29295  -0.28439  -0.27426  -0.27323
  Beta  occ. eigenvalues --   -0.26070  -0.25400  -0.24903  -0.24109  -0.23996
  Beta  occ. eigenvalues --   -0.23508  -0.23293  -0.22452  -0.21263  -0.14600
  Beta  occ. eigenvalues --   -0.13073
  Beta virt. eigenvalues --    0.06041   0.06673   0.06803   0.07432   0.08180
  Beta virt. eigenvalues --    0.08631   0.08713   0.09026   0.09302   0.10000
  Beta virt. eigenvalues --    0.10268   0.10583   0.11098   0.11627   0.11746

 Mulliken charges and spin densities:
               1          2
     1  C    0.906482  -1.547175
     2  C   -0.861591   0.673709
     3  C    0.183026  -0.472956
     4  C    0.381646  -0.431922
     5  C   -0.297711  -0.122998
     6  C    0.480574   0.781273
     7  C   -0.842222  -1.007718
     8  N    0.213263   0.018121
     9  C   -0.610573   0.654866
    10  C    0.702242  -1.173854
    11  C    0.501851  -1.079257
    12  C   -0.738832   1.013647
    13  C   -0.340294  -0.255323
    14  C    0.015758  -0.758614
    15  H   -0.177762   0.314314
    16  H   -0.288279   0.423591
    17  H   -0.076430   0.216460
    18  H    0.082393   0.068042
    19  H   -0.298891   0.453866
    20  H   -0.322965   0.469567
    21  H   -0.190268   0.330650
    22  H   -0.016186   0.203173
    23  H   -0.132020   0.303153
    24  H    0.421988  -0.238475
    25  H   -0.175510   0.332510
    26  H    1.323028  -1.222457
    27  H    0.237163  -0.044084
    28  H   -0.044533   0.174441
    29  H   -0.056145   0.183716
    30  H   -0.217820   0.365166
    31  H   -0.543678   0.699011
    32  H   -0.023577   0.175306
    33  H   -0.168304   0.302668
    34  H   -0.097145   0.225293
    35  H    0.191761   0.036206
    36  H   -0.091452   0.217159
    37  H   -0.011465   0.158111
    38  H    0.000874   0.134043
    39  H   -0.060625   0.181509
    40  H   -0.037769   0.169463
    41  H    0.079997   0.075801
 Sum of Mulliken charges =  -1.00000   1.00000

 Dipole moment (field-independent basis, Debye):
    X=             -0.7701    Y=              3.1130    Z=              0.9101  Tot=              3.3335
 Quadrupole moment (field-independent basis, Debye-Ang):
   XX=           -191.1101   YY=           -146.4723   ZZ=           -127.9790
   XY=             -0.6411   XZ=             -2.1245   YZ=             -3.2060

 Summary of Natural Population Analysis:

                                       Natural Population
                Natural  -----------------------------------------------
    Atom  No    Charge         Core      Valence    Rydberg      Total
 -----------------------------------------------------------------------
      C    1   -0.28555      0.99967     2.28139    0.00449     3.28555
      C    2   -0.19345      0.99964     2.18558    0.00823     3.19345
      C    3   -0.18268      0.99962     2.17447    0.00859     3.18268
      C    4   -0.20949      0.99961     2.20002    0.00985     3.20949
      C    5   -0.09546      0.99944     2.08696    0.00907     3.09546
      C    6    0.00038      0.99946     1.98835    0.01181     2.99962
      C    7   -0.10209      0.99957     2.09178    0.01074     3.10209
      N    8   -0.33995      0.99973     2.82949    0.01073     3.83995
      C    9   -0.01230      0.99963     2.00063    0.01205     3.01230
      C   10   -0.29534      0.99965     2.28999    0.00570     3.29534
      C   11   -0.28373      0.99965     2.27893    0.00515     3.28373
      C   12   -0.12913      0.99956     2.11862    0.01095     3.12913
      C   13   -0.28254      0.99966     2.27800    0.00488     3.28254
      C   14   -0.27763      0.99964     2.27351    0.00448     3.27763
      H   15    0.09492      0.00000     0.40379    0.00129     0.40508
      H   16    0.09860      0.00000     0.40020    0.00120     0.40140
      H   17    0.09525      0.00000     0.40339    0.00136     0.40475
      H   18    0.09589      0.00000     0.40280    0.00131     0.40411
      H   19    0.09550      0.00000     0.40336    0.00114     0.40450
      H   20    0.09620      0.00000     0.40232    0.00148     0.40380
      H   21    0.09437      0.00000     0.40437    0.00126     0.40563
      H   22    0.10159      0.00000     0.39698    0.00143     0.39841
      H   23    0.09929      0.00000     0.39941    0.00130     0.40071
      H   24    0.09487      0.00000     0.40372    0.00141     0.40513
      H   25    0.09459      0.00000     0.40362    0.00179     0.40541
      H   26    0.08652      0.00000     0.41114    0.00234     0.41348
      H   27    0.16962      0.00000     0.32758    0.00281     0.33038
      H   28    0.08761      0.00000     0.41047    0.00192     0.41239
      H   29    0.09560      0.00000     0.40317    0.00124     0.40440
      H   30    0.10059      0.00000     0.39826    0.00115     0.39941
      H   31    0.10117      0.00000     0.39755    0.00129     0.39883
      H   32    0.10273      0.00000     0.39605    0.00122     0.39727
      H   33    0.09897      0.00000     0.40003    0.00100     0.40103
      H   34    0.09450      0.00000     0.40450    0.00100     0.40550
      H   35    0.10510      0.00000     0.39270    0.00220     0.39490
      H   36    0.09569      0.00000     0.40320    0.00111     0.40431
      H   37    0.09714      0.00000     0.40196    0.00089     0.40286
      H   38    0.10172      0.00000     0.39730    0.00099     0.39828
      H   39    0.09886      0.00000     0.40012    0.00102     0.40114
      H   40    0.09529      0.00000     0.40380    0.00090     0.40471
      H   41    0.09680      0.00000     0.40202    0.00118     0.40320
 =======================================================================
   * Total *   -0.00000     13.99453    41.85154    0.15394    56.00000

 Normal termination of Gaussian 16 at Thu Dec 10 10:31:08 2020.
