 Gaussian 16, Revision A.03,

 -----------------------------------------------------------
 # opt freq B3LYP/6-31G(d) empiricaldispersion=gd3bj scf=xqc
 -----------------------------------------------------------

 ---------------------------
 CID_541606_JID_361_neutraal
 ---------------------------
 Symbolic Z-matrix:
 Charge =  0 Multiplicity = 1

 SCF Done:  E(RB3LYP) =  -479.761187061     A.U. after   15 cycles
 SCF Done:  E(RB3LYP) =  -479.765165398     A.U. after   13 cycles
 SCF Done:  E(RB3LYP) =  -479.765268901     A.U. after   12 cycles
 SCF Done:  E(RB3LYP) =  -479.765352350     A.U. after   14 cycles
 SCF Done:  E(RB3LYP) =  -479.766699398     A.U. after   13 cycles
 SCF Done:  E(RB3LYP) =  -479.767261931     A.U. after   12 cycles
 SCF Done:  E(RB3LYP) =  -479.767773813     A.U. after   13 cycles
 SCF Done:  E(RB3LYP) =  -479.768201151     A.U. after   12 cycles
 SCF Done:  E(RB3LYP) =  -479.768639901     A.U. after   12 cycles
 SCF Done:  E(RB3LYP) =  -479.768688120     A.U. after   12 cycles
 SCF Done:  E(RB3LYP) =  -479.768730366     A.U. after   10 cycles
 SCF Done:  E(RB3LYP) =  -479.768733359     A.U. after    9 cycles
 SCF Done:  E(RB3LYP) =  -479.768735357     A.U. after    8 cycles
 SCF Done:  E(RB3LYP) =  -479.768736338     A.U. after    9 cycles
 SCF Done:  E(RB3LYP) =  -479.768736686     A.U. after    9 cycles
 SCF Done:  E(RB3LYP) =  -479.768736780     A.U. after    8 cycles
 Optimization completed.
    -- Stationary point found.
 Normal termination of Gaussian 16 at Tue Dec  8 10:30:48 2020.

 --------------------------------------------------------------------
 #N Geom=AllCheck Guess=TCheck SCRF=Check GenChk RB3LYP/6-31G(d) Freq
 --------------------------------------------------------------------

 Structure from the checkpoint file:  "JID_361.chk"
 ---------------------------
 CID_541606_JID_361_neutraal
 ---------------------------
 Charge =  0 Multiplicity = 1

 SCF Done:  E(RB3LYP) =  -479.768736780     A.U. after    1 cycles

  Exact polarizability: 102.669   7.459 112.362   5.564  -3.607  63.119
 Approx polarizability: 139.626  28.929 176.382  11.209  -5.950  91.046

                      1                      2                      3
                      A                      A                      A
 Frequencies --     50.8667                73.9806                86.7209
 Red. masses --      2.9195                 3.1381                 3.3006
 Frc consts  --      0.0045                 0.0101                 0.0146
 IR Inten    --      2.7056                 3.3112                 0.7573

                      4                      5                      6
                      A                      A                      A
 Frequencies --    116.3086               142.9141               187.3574
 Red. masses --      1.7092                 2.8149                 1.9496
 Frc consts  --      0.0136                 0.0339                 0.0403
 IR Inten    --      1.3045                 3.0544                 0.9557

                      7                      8                      9
                      A                      A                      A
 Frequencies --    205.9067               224.1043               254.9958
 Red. masses --      1.4865                 1.9031                 1.5111
 Frc consts  --      0.0371                 0.0563                 0.0579
 IR Inten    --      0.6408                 6.0075                 3.6372

                     10                     11                     12
                      A                      A                      A
 Frequencies --    266.5470               313.7702               365.3373
 Red. masses --      1.6481                 2.2748                 3.1806
 Frc consts  --      0.0690                 0.1319                 0.2501
 IR Inten    --      2.2051                 3.7831                 4.0250

                     13                     14                     15
                      A                      A                      A
 Frequencies --    384.4341               414.1219               489.0329
 Red. masses --      2.9819                 3.1698                 3.8561
 Frc consts  --      0.2596                 0.3203                 0.5433
 IR Inten    --      0.7604                 6.6461                 3.3337

                     16                     17                     18
                      A                      A                      A
 Frequencies --    549.2785               575.7688               701.2470
 Red. masses --      3.3857                 5.5250                 4.6215
 Frc consts  --      0.6018                 1.0791                 1.3390
 IR Inten    --      9.8345                 6.0049                 4.2701

                     19                     20                     21
                      A                      A                      A
 Frequencies --    790.7337               807.6797               834.2561
 Red. masses --      1.3549                 1.5700                 1.8478
 Frc consts  --      0.4991                 0.6034                 0.7577
 IR Inten    --     43.5893                19.7361                 9.2208

                     22                     23                     24
                      A                      A                      A
 Frequencies --    900.8308              1023.0513              1029.1196
 Red. masses --      2.6330                 2.4676                 1.7371
 Frc consts  --      1.2589                 1.5217                 1.0840
 IR Inten    --     13.8271                47.4108                22.6397

                     25                     26                     27
                      A                      A                      A
 Frequencies --   1077.9326              1098.8240              1129.0630
 Red. masses --      2.6257                 1.4216                 1.9588
 Frc consts  --      1.7976                 1.0113                 1.4712
 IR Inten    --     40.1383                 8.5496                27.6148

                     28                     29                     30
                      A                      A                      A
 Frequencies --   1144.5189              1173.7104              1186.3817
 Red. masses --      1.2210                 1.5077                 2.0517
 Frc consts  --      0.9423                 1.2237                 1.7014
 IR Inten    --      0.4696                29.8680                23.3680

                     31                     32                     33
                      A                      A                      A
 Frequencies --   1210.7348              1230.1676              1278.8821
 Red. masses --      1.9003                 2.8535                 3.5353
 Frc consts  --      1.6412                 2.5442                 3.4067
 IR Inten    --    187.6174               145.3173                40.7468

                     34                     35                     36
                      A                      A                      A
 Frequencies --   1295.7694              1333.5129              1408.1352
 Red. masses --      1.8956                 1.1339                 1.2900
 Frc consts  --      1.8752                 1.1880                 1.5070
 IR Inten    --     13.4181                14.7178                32.1952

                     37                     38                     39
                      A                      A                      A
 Frequencies --   1434.2430              1444.0922              1469.5558
 Red. masses --      1.3588                 1.3282                 1.3811
 Frc consts  --      1.6469                 1.6320                 1.7573
 IR Inten    --     49.4734                10.6405                82.8429

                     40                     41                     42
                      A                      A                      A
 Frequencies --   1470.9708              1511.3120              1514.9899
 Red. masses --      1.2485                 1.2703                 1.0710
 Frc consts  --      1.5917                 1.7094                 1.4483
 IR Inten    --     60.4437                33.1552                17.8811

                     43                     44                     45
                      A                      A                      A
 Frequencies --   1516.0273              1518.6320              1533.3790
 Red. masses --      1.0863                 1.0519                 1.0496
 Frc consts  --      1.4710                 1.4293                 1.4541
 IR Inten    --     19.3261                12.0341                 1.7393

                     46                     47                     48
                      A                      A                      A
 Frequencies --   1536.6214              1549.0014              1563.4670
 Red. masses --      1.0521                 1.1008                 1.4324
 Frc consts  --      1.4637                 1.5562                 2.0630
 IR Inten    --      6.9939                 7.3153               102.4838

                     49                     50                     51
                      A                      A                      A
 Frequencies --   1653.1957              1757.6158              2892.7370
 Red. masses --      5.1178                 8.0131                 1.0808
 Frc consts  --      8.2410                14.5846                 5.3288
 IR Inten    --    501.3344               383.7198               110.4663

                     52                     53                     54
                      A                      A                      A
 Frequencies --   3027.0951              3033.1048              3063.1691
 Red. masses --      1.0423                 1.0453                 1.0365
 Frc consts  --      5.6272                 5.6656                 5.7300
 IR Inten    --     27.9805               117.8804                13.5196

                     55                     56                     57
                      A                      A                      A
 Frequencies --   3082.6225              3084.5739              3089.9036
 Red. masses --      1.0995                 1.0625                 1.0983
 Frc consts  --      6.1560                 5.9564                 6.1784
 IR Inten    --     52.9702                22.7656                16.4049

                     58                     59                     60
                      A                      A                      A
 Frequencies --   3125.6489              3133.3343              3156.1835
 Red. masses --      1.1018                 1.1045                 1.1032
 Frc consts  --      6.3420                 6.3888                 6.4749
 IR Inten    --     16.1915                21.8791                27.0923

                     61                     62                     63
                      A                      A                      A
 Frequencies --   3173.1281              3189.0263              3224.7455
 Red. masses --      1.0980                 1.0966                 1.0882
 Frc consts  --      6.5137                 6.5706                 6.6672
 IR Inten    --      5.8454                 8.7388                 4.7619

 - Thermochemistry -
 -------------------
 Temperature   298.150 Kelvin.  Pressure   1.00000 Atm.
 Atom     1 has atomic number  6 and mass  12.00000

 Molecular mass:   143.09463 amu.
 Principal axes and moments of inertia in atomic units:
                           1         2         3
     Eigenvalues --  1351.176881616.633832673.56853
           X            0.95808  -0.28634  -0.00994
           Y            0.28625   0.95811  -0.00923
           Z            0.01217   0.00600   0.99991
 This molecule is an asymmetric top.
 Rotational symmetry number  1.
 Warning -- assumption of classical behavior for rotation
           may cause significant error
 Rotational temperatures (Kelvin)      0.06410     0.05358     0.03240
 Rotational constants (GHZ):           1.33568     1.11636     0.67503
 Zero-point vibrational energy     520999.8 (Joules/Mol)
                                  124.52195 (Kcal/Mol)
 Warning -- explicit consideration of  17 degrees of freedom as
           vibrations may cause significant error
 Vibrational temperatures:     73.19   106.44   124.77   167.34   205.62
          (Kelvin)            269.57   296.25   322.44   366.88   383.50
                              451.45   525.64   553.11   595.83   703.61
                              790.29   828.40  1008.94  1137.69  1162.07
                             1200.31  1296.09  1471.94  1480.67  1550.90
                             1580.96  1624.47  1646.71  1688.71  1706.94
                             1741.98  1769.94  1840.03  1864.32  1918.63
                             2025.99  2063.56  2077.73  2114.36  2116.40
                             2174.44  2179.73  2181.23  2184.97  2206.19
                             2210.86  2228.67  2249.48  2378.58  2528.82
                             4162.00  4355.31  4363.96  4407.22  4435.21
                             4438.01  4445.68  4497.11  4508.17  4541.04
                             4565.42  4588.30  4639.69

 Zero-point correction=                           0.198438 (Hartree/Particle)
 Thermal correction to Energy=                    0.210299
 Thermal correction to Enthalpy=                  0.211243
 Thermal correction to Gibbs Free Energy=         0.160425
 Sum of electronic and zero-point Energies=           -479.570298
 Sum of electronic and thermal Energies=              -479.558438
 Sum of electronic and thermal Enthalpies=            -479.557494
 Sum of electronic and thermal Free Energies=         -479.608312

                     E (Thermal)             CV                S
                      KCal/Mol        Cal/Mol-Kelvin    Cal/Mol-Kelvin
 Total                  131.964             41.661            106.956
 Electronic               0.000              0.000              0.000
 Translational            0.889              2.981             40.786
 Rotational               0.889              2.981             30.147
 Vibrational            130.187             35.699             36.022
 Vibration     1          0.595              1.977              4.783
 Vibration     2          0.599              1.966              4.045
 Vibration     3          0.601              1.958              3.733
 Vibration     4          0.608              1.936              3.161
 Vibration     5          0.616              1.910              2.764
 Vibration     6          0.632              1.857              2.254
 Vibration     7          0.640              1.831              2.080
 Vibration     8          0.649              1.804              1.926
 Vibration     9          0.665              1.754              1.696
 Vibration    10          0.672              1.734              1.618
 Vibration    11          0.702              1.647              1.342
 Vibration    12          0.739              1.544              1.099
 Vibration    13          0.753              1.503              1.022
 Vibration    14          0.778              1.440              0.912
 Vibration    15          0.845              1.274              0.686
 Vibration    16          0.905              1.141              0.546
 Vibration    17          0.932              1.084              0.493

 Optimization completed.
    -- Stationary point found.
 Normal termination of Gaussian 16 at Tue Dec  8 10:36:15 2020.

 ----------------------------------------------------------------------
 # B3LYP/6-311++G(d,p) empiricaldispersion=gd3bj scf=xqc pop=npa geom=c
 heck
 ----------------------------------------------------------------------

 -----------------------------------
 CID_541606_JID_361_Energie_neutraal
 -----------------------------------
 Structure from the checkpoint file:  "JID_361.chk"
 Charge =  0 Multiplicity = 1

 SCF Done:  E(RB3LYP) =  -479.911974581     A.U. after   15 cycles
 Normal termination of Gaussian 16 at Tue Dec  8 10:39:30 2020.

 ----------------------------------------------------------------------
 # B3LYP/6-311++G(d,p) empiricaldispersion=gd3bj scf=xqc pop=npa geom=c
 heck
 ----------------------------------------------------------------------

 ---------------------------------
 CID_541606_JID_361_Energie_kation
 ---------------------------------
 Structure from the checkpoint file:  "JID_361.chk"
 Charge =  1 Multiplicity = 2

 SCF Done:  E(UB3LYP) =  -479.622973180     A.U. after   22 cycles
 Normal termination of Gaussian 16 at Tue Dec  8 10:47:34 2020.
 Gaussian 16:  ES64L-G16RevA.03 25-Dec-2016

 ----------------------------------------------------------------------
 # B3LYP/6-311++G(d,p) empiricaldispersion=gd3bj scf=xqc pop=npa geom=c
 heck
 ----------------------------------------------------------------------

 --------------------------------
 CID_541606_JID_361_Energie_anion
 --------------------------------
 Structure from the checkpoint file:  "JID_361.chk"
 Charge = -1 Multiplicity = 2

                         Standard orientation:
 ---------------------------------------------------------------------
 Center     Atomic      Atomic             Coordinates (Angstroms)
 Number     Number       Type             X           Y           Z
 ---------------------------------------------------------------------
      1          6           0       -2.613404    1.078075    0.816525
      2          6           0       -2.334813    0.572848   -0.590561
      3          8           0       -1.359863   -0.487704   -0.608766
      4          6           0       -0.064428   -0.219201   -0.304603
      5          6           0        0.498756    1.030594   -0.407790
      6          6           0        1.696392    1.447236    0.278758
      7          8           0        2.204654    2.560019    0.186253
      8          7           0        0.592155   -1.355125    0.077350
      9          6           0       -0.132673   -2.515922    0.574047
     10          6           0        1.985124   -1.599449   -0.269450
     11          1           0       -2.946126    0.256585    1.459520
     12          1           0       -3.404218    1.835658    0.788525
     13          1           0       -1.719193    1.528679    1.254394
     14          1           0       -3.222207    0.107470   -1.026123
     15          1           0       -2.021209    1.381788   -1.257095
     16          1           0       -0.024690    1.804090   -0.957025
     17          1           0        2.136575    0.695525    0.971614
     18          1           0       -0.296830   -3.260751   -0.217441
     19          1           0        0.451552   -2.984299    1.374291
     20          1           0       -1.099862   -2.212677    0.971003
     21          1           0        2.339017   -0.816166   -0.939867
     22          1           0        2.629588   -1.625662    0.617314
     23          1           0        2.064459   -2.567973   -0.782010
 ---------------------------------------------------------------------

 SCF Done:  E(UB3LYP) =  -479.901563844     A.U. after   30 cycles

 The electronic state is 2-A.
 Alpha  occ. eigenvalues --  -19.06704 -18.98213 -14.24992 -10.18291 -10.13533
 Alpha  occ. eigenvalues --  -10.13138 -10.10541 -10.09591 -10.06922 -10.05106
 Alpha  occ. eigenvalues --   -0.98982  -0.91011  -0.85512  -0.68910  -0.66615
 Alpha  occ. eigenvalues --   -0.62607  -0.59213  -0.54655  -0.49450  -0.45037
 Alpha  occ. eigenvalues --   -0.43033  -0.41090  -0.38923  -0.36750  -0.35815
 Alpha  occ. eigenvalues --   -0.34428  -0.32236  -0.31522  -0.30694  -0.29843
 Alpha  occ. eigenvalues --   -0.29366  -0.28670  -0.28106  -0.27408  -0.25429
 Alpha  occ. eigenvalues --   -0.23778  -0.17474  -0.13598  -0.11365   0.04280
 Alpha virt. eigenvalues --    0.06395   0.06877   0.08151   0.08389   0.09395
 Alpha virt. eigenvalues --    0.09776   0.10272   0.11378   0.12390   0.12640
 Alpha virt. eigenvalues --    0.13206   0.13648   0.14302   0.15138   0.15657

  Beta  occ. eigenvalues --  -19.06699 -18.98190 -14.24989 -10.18248 -10.13511
  Beta  occ. eigenvalues --  -10.13118 -10.10498 -10.09536 -10.06881 -10.05111
  Beta  occ. eigenvalues --   -0.98957  -0.90966  -0.85485  -0.68855  -0.66577
  Beta  occ. eigenvalues --   -0.62539  -0.59143  -0.54579  -0.49387  -0.44971
  Beta  occ. eigenvalues --   -0.42986  -0.41052  -0.38842  -0.36704  -0.35761
  Beta  occ. eigenvalues --   -0.34378  -0.32185  -0.31479  -0.30648  -0.29797
  Beta  occ. eigenvalues --   -0.29323  -0.28614  -0.28056  -0.27318  -0.25329
  Beta  occ. eigenvalues --   -0.23742  -0.17417  -0.13564  -0.11318
  Beta virt. eigenvalues --    0.06861   0.07218   0.07568   0.08798   0.09119
  Beta virt. eigenvalues --    0.10051   0.10368   0.10814   0.11900   0.12771
  Beta virt. eigenvalues --    0.12875   0.13604   0.13866   0.14395   0.15414

 Mulliken charges and spin densities:
               1          2
     1  C    0.716447  -1.139024
     2  C   -0.004509  -0.191813
     3  O   -0.110007   0.026266
     4  C   -1.108904   0.708242
     5  C    0.860247  -0.542492
     6  C   -0.012840  -0.242119
     7  O   -0.352573   0.012747
     8  N   -0.308623   0.352622
     9  C    1.394239  -1.675991
    10  C    0.552443  -0.951479
    11  H   -0.172836   0.326606
    12  H   -0.298999   0.439473
    13  H   -0.042363   0.207726
    14  H   -0.601756   0.788691
    15  H    0.059318   0.056040
    16  H    0.155770   0.026945
    17  H    0.036831   0.052554
    18  H   -0.498076   0.687365
    19  H   -0.572201   0.728200
    20  H   -0.181394   0.341891
    21  H    0.023143   0.126039
    22  H   -0.068514   0.249511
    23  H   -0.464843   0.612001
 Sum of Mulliken charges =  -1.00000   1.00000

 Dipole moment (field-independent basis, Debye):
    X=              0.7697    Y=              2.7571    Z=             -1.1425  Tot=              3.0821
 Quadrupole moment (field-independent basis, Debye-Ang):
   XX=           -118.1815   YY=           -126.1559   ZZ=            -88.6640
   XY=             -4.8028   XZ=              1.1070   YZ=             -0.8303

 Summary of Natural Population Analysis:

                                       Natural Population
                Natural  -----------------------------------------------
    Atom  No    Charge         Core      Valence    Rydberg      Total
 -----------------------------------------------------------------------
      C    1   -0.30229      0.99966     2.29761    0.00502     3.30229
      C    2   -0.00881      0.99957     1.99778    0.01147     3.00881
      O    3   -0.27608      0.99986     3.26576    0.01046     4.27608
      C    4    0.31520      0.99941     1.66888    0.01651     2.68480
      C    5   -0.25505      0.99950     2.24636    0.00919     3.25505
      C    6    0.18675      0.99967     1.79373    0.01984     2.81325
      O    7   -0.30987      0.99989     3.30316    0.00683     4.30987
      N    8   -0.24734      0.99966     2.73644    0.01124     3.74734
      C    9   -0.17380      0.99963     2.16524    0.00893     3.17380
      C   10   -0.17331      0.99963     2.16519    0.00848     3.17331
      H   11    0.10396      0.00000     0.39455    0.00149     0.39604
      H   12    0.10401      0.00000     0.39456    0.00143     0.39599
      H   13    0.10534      0.00000     0.39337    0.00129     0.39466
      H   14    0.09580      0.00000     0.40233    0.00186     0.40420
      H   15    0.08349      0.00000     0.41513    0.00138     0.41651
      H   16    0.10557      0.00000     0.39256    0.00187     0.39443
      H   17    0.04668      0.00000     0.45118    0.00214     0.45332
      H   18    0.09754      0.00000     0.39912    0.00334     0.40246
      H   19    0.09644      0.00000     0.40154    0.00202     0.40356
      H   20    0.10836      0.00000     0.38970    0.00194     0.39164
      H   21    0.10490      0.00000     0.39380    0.00129     0.39510
      H   22    0.09420      0.00000     0.40449    0.00132     0.40580
      H   23    0.09830      0.00000     0.39994    0.00175     0.40170
 =======================================================================
   * Total *   -0.00000      9.99648    28.87242    0.13110    39.00000

 Normal termination of Gaussian 16 at Tue Dec  8 10:55:33 2020.
