 Gaussian 16, Revision A.03,

 -----------------------------------------------------------
 # opt freq B3LYP/6-31G(d) empiricaldispersion=gd3bj scf=xqc
 -----------------------------------------------------------

 ------------------------------
 CID_53774776_JID_1620_neutraal
 ------------------------------
 Symbolic Z-matrix:
 Charge =  0 Multiplicity = 1

 SCF Done:  E(RB3LYP) =  -511.602568678     A.U. after   14 cycles
 SCF Done:  E(RB3LYP) =  -511.605341202     A.U. after   13 cycles
 SCF Done:  E(RB3LYP) =  -511.606138754     A.U. after   12 cycles
 SCF Done:  E(RB3LYP) =  -511.606401041     A.U. after   12 cycles
 SCF Done:  E(RB3LYP) =  -511.606518049     A.U. after   12 cycles
 SCF Done:  E(RB3LYP) =  -511.606533230     A.U. after   10 cycles
 SCF Done:  E(RB3LYP) =  -511.606543895     A.U. after   10 cycles
 SCF Done:  E(RB3LYP) =  -511.606546140     A.U. after    9 cycles
 SCF Done:  E(RB3LYP) =  -511.606546425     A.U. after    8 cycles
 Optimization completed.
    -- Stationary point found.
 Normal termination of Gaussian 16 at Tue Dec  8 20:28:10 2020.

 --------------------------------------------------------------------
 #N Geom=AllCheck Guess=TCheck SCRF=Check GenChk RB3LYP/6-31G(d) Freq
 --------------------------------------------------------------------

 Structure from the checkpoint file:  "JID_1620.chk"
 ------------------------------
 CID_53774776_JID_1620_neutraal
 ------------------------------
 Charge =  0 Multiplicity = 1

 SCF Done:  E(RB3LYP) =  -511.606546425     A.U. after    1 cycles

  Exact polarizability: 134.361   0.037 104.774   3.441  -6.926  51.174
 Approx polarizability: 202.049  -6.066 170.358  12.086 -18.426  79.304

                      1                      2                      3
                      A                      A                      A
 Frequencies --     48.7655                69.0244               117.2866
 Red. masses --      3.6714                 2.9332                 3.9809
 Frc consts  --      0.0051                 0.0082                 0.0323
 IR Inten    --      1.1238                 6.0062                 0.9637

                      4                      5                      6
                      A                      A                      A
 Frequencies --    178.4553               187.6091               240.1587
 Red. masses --      1.2853                 3.8065                 4.3794
 Frc consts  --      0.0241                 0.0789                 0.1488
 IR Inten    --      4.3131                 2.0385                 1.0679

                      7                      8                      9
                      A                      A                      A
 Frequencies --    312.2603               346.3335               359.2899
 Red. masses --      4.0190                 3.0032                 3.4154
 Frc consts  --      0.2309                 0.2122                 0.2598
 IR Inten    --      3.1406                 6.2549                11.2740

                     10                     11                     12
                      A                      A                      A
 Frequencies --    406.3196               425.0700               458.7595
 Red. masses --      2.7409                 1.5204                 3.8651
 Frc consts  --      0.2666                 0.1619                 0.4793
 IR Inten    --      6.3322                44.2715                 8.4958

                     13                     14                     15
                      A                      A                      A
 Frequencies --    582.8268               613.5296               640.9096
 Red. masses --      3.8005                 6.0559                 7.0464
 Frc consts  --      0.7606                 1.3431                 1.7053
 IR Inten    --     32.5011                29.0539                 1.4450

                     16                     17                     18
                      A                      A                      A
 Frequencies --    652.5177               729.2008               776.8647
 Red. masses --      3.7073                 1.9802                 2.6671
 Frc consts  --      0.9300                 0.6204                 0.9484
 IR Inten    --     16.5562                26.1711               110.9112

                     19                     20                     21
                      A                      A                      A
 Frequencies --    792.8139               835.0095               948.2570
 Red. masses --      2.6297                 1.6953                 4.2793
 Frc consts  --      0.9739                 0.6964                 2.2671
 IR Inten    --    104.0006                14.2283                85.6447

                     22                     23                     24
                      A                      A                      A
 Frequencies --    962.4364               990.9460              1004.3916
 Red. masses --      1.3213                 1.4567                 1.3594
 Frc consts  --      0.7211                 0.8428                 0.8080
 IR Inten    --      0.5250                 5.6040                 1.5858

                     25                     26                     27
                      A                      A                      A
 Frequencies --   1045.2141              1073.1632              1100.5263
 Red. masses --      4.3345                 3.1376                 5.6377
 Frc consts  --      2.7900                 2.1290                 4.0230
 IR Inten    --     19.9873                 2.7848               171.4225

                     28                     29                     30
                      A                      A                      A
 Frequencies --   1154.4244              1173.1371              1188.9639
 Red. masses --      1.4737                 2.8982                 1.2691
 Frc consts  --      1.1572                 2.3500                 1.0570
 IR Inten    --      3.8402                38.2170                 1.1657

                     31                     32                     33
                      A                      A                      A
 Frequencies --   1197.1404              1236.2838              1239.4438
 Red. masses --      1.5229                 1.6523                 1.4104
 Frc consts  --      1.2859                 1.4879                 1.2766
 IR Inten    --     21.7762                 3.5427                 8.4325

                     34                     35                     36
                      A                      A                      A
 Frequencies --   1308.1420              1375.7221              1397.5441
 Red. masses --      6.5179                 1.4050                 3.4492
 Frc consts  --      6.5715                 1.5667                 3.9692
 IR Inten    --      3.3212                 2.5707                53.6656

                     37                     38                     39
                      A                      A                      A
 Frequencies --   1460.4723              1486.6997              1503.7963
 Red. masses --      2.2721                 1.1528                 1.0513
 Frc consts  --      2.8554                 1.5012                 1.4007
 IR Inten    --     36.9851                 8.7913                 3.3420

                     40                     41                     42
                      A                      A                      A
 Frequencies --   1529.9343              1539.3095              1623.2911
 Red. masses --      2.2818                 1.0565                 4.9258
 Frc consts  --      3.1468                 1.4750                 7.6475
 IR Inten    --     13.2271                17.1223                10.5027

                     43                     44                     45
                      A                      A                      A
 Frequencies --   1649.6897              1655.6090              1700.9354
 Red. masses --      5.3399                 1.4211                 3.6932
 Frc consts  --      8.5623                 2.2951                 6.2954
 IR Inten    --     23.3051                49.9441                78.0463

                     46                     47                     48
                      A                      A                      A
 Frequencies --   3035.8066              3098.6152              3148.3095
 Red. masses --      1.0312                 1.1073                 1.1027
 Frc consts  --      5.5993                 6.2637                 6.4394
 IR Inten    --    103.4682                48.0921                22.9013

                     49                     50                     51
                      A                      A                      A
 Frequencies --   3174.3941              3196.6524              3209.7393
 Red. masses --      1.0889                 1.0906                 1.0934
 Frc consts  --      6.4651                 6.5662                 6.6370
 IR Inten    --     22.7574                10.0670                17.7955

                     52                     53                     54
                      A                      A                      A
 Frequencies --   3258.3704              3517.7978              3622.6772
 Red. masses --      1.0931                 1.0474                 1.0976
 Frc consts  --      6.8377                 7.6370                 8.4867
 IR Inten    --      1.8003                11.5690                 8.5770

 - Thermochemistry -
 -------------------
 Temperature   298.150 Kelvin.  Pressure   1.00000 Atm.
 Atom     1 has atomic number  6 and mass  12.00000

 Molecular mass:   151.07456 amu.
 Principal axes and moments of inertia in atomic units:
                           1         2         3
     Eigenvalues --   900.229202375.818013110.36752
           X            0.99996  -0.00710  -0.00492
           Y            0.00712   0.99997   0.00262
           Z            0.00490  -0.00266   0.99998
 This molecule is an asymmetric top.
 Rotational symmetry number  1.
 Warning -- assumption of classical behavior for rotation
           may cause significant error
 Rotational temperatures (Kelvin)      0.09621     0.03646     0.02785
 Rotational constants (GHZ):           2.00476     0.75963     0.58023
 Zero-point vibrational energy     422167.2 (Joules/Mol)
                                  100.90038 (Kcal/Mol)
 Warning -- explicit consideration of  14 degrees of freedom as
           vibrations may cause significant error
 Vibrational temperatures:     70.16    99.31   168.75   256.76   269.93
          (Kelvin)            345.53   449.27   498.30   516.94   584.60
                              611.58   660.05   838.56   882.73   922.13
                              938.83  1049.16  1117.73  1140.68  1201.39
                             1364.33  1384.73  1425.75  1445.10  1503.83
                             1544.04  1583.41  1660.96  1687.88  1710.65
                             1722.42  1778.74  1783.28  1882.12  1979.36
                             2010.75  2101.29  2139.03  2163.63  2201.23
                             2214.72  2335.55  2373.54  2382.05  2447.27
                             4367.85  4458.22  4529.72  4567.25  4599.27
                             4618.10  4688.07  5061.33  5212.22

 Zero-point correction=                           0.160795 (Hartree/Particle)
 Thermal correction to Energy=                    0.170945
 Thermal correction to Enthalpy=                  0.171889
 Thermal correction to Gibbs Free Energy=         0.124551
 Sum of electronic and zero-point Energies=           -511.445751
 Sum of electronic and thermal Energies=              -511.435601
 Sum of electronic and thermal Enthalpies=            -511.434657
 Sum of electronic and thermal Free Energies=         -511.481996

                     E (Thermal)             CV                S
                      KCal/Mol        Cal/Mol-Kelvin    Cal/Mol-Kelvin
 Total                  107.270             37.695             99.632
 Electronic               0.000              0.000              0.000
 Translational            0.889              2.981             40.948
 Rotational               0.889              2.981             30.276
 Vibrational            105.492             31.733             28.407
 Vibration     1          0.595              1.978              4.867
 Vibration     2          0.598              1.969              4.181
 Vibration     3          0.608              1.935              3.145
 Vibration     4          0.629              1.869              2.345
 Vibration     5          0.632              1.857              2.251
 Vibration     6          0.657              1.779              1.802
 Vibration     7          0.701              1.650              1.350
 Vibration     8          0.724              1.583              1.183
 Vibration     9          0.734              1.556              1.125
 Vibration    10          0.771              1.456              0.940
 Vibration    11          0.787              1.416              0.875
 Vibration    12          0.817              1.342              0.770
 Vibration    13          0.940              1.068              0.480
 Vibration    14          0.973              1.003              0.427

                           ! Non-Optimized Parameters !
 Normal termination of Gaussian 16 at Tue Dec  8 20:31:57 2020.

 ----------------------------------------------------------------------
 # B3LYP/6-311++G(d,p) empiricaldispersion=gd3bj scf=xqc pop=npa geom=c
 heck
 ----------------------------------------------------------------------

 --------------------------------------
 CID_53774776_JID_1620_Energie_neutraal
 --------------------------------------
 Structure from the checkpoint file:  "JID_1620.chk"
 Charge =  0 Multiplicity = 1

 SCF Done:  E(RB3LYP) =  -511.753766255     A.U. after   14 cycles
 Normal termination of Gaussian 16 at Tue Dec  8 20:33:41 2020.

 ----------------------------------------------------------------------
 # B3LYP/6-311++G(d,p) empiricaldispersion=gd3bj scf=xqc pop=npa geom=c
 heck
 ----------------------------------------------------------------------

 ------------------------------------
 CID_53774776_JID_1620_Energie_kation
 ------------------------------------
 Structure from the checkpoint file:  "JID_1620.chk"
 Charge =  1 Multiplicity = 2

 SCF Done:  E(UB3LYP) =  -511.456975074     A.U. after   24 cycles
 Normal termination of Gaussian 16 at Tue Dec  8 20:38:34 2020.
 Gaussian 16:  ES64L-G16RevA.03 25-Dec-2016

 ----------------------------------------------------------------------
 # B3LYP/6-311++G(d,p) empiricaldispersion=gd3bj scf=xqc pop=npa geom=c
 heck
 ----------------------------------------------------------------------

 -----------------------------------
 CID_53774776_JID_1620_Energie_anion
 -----------------------------------
 Structure from the checkpoint file:  "JID_1620.chk"
 Charge = -1 Multiplicity = 2

                         Standard orientation:
 ---------------------------------------------------------------------
 Center     Atomic      Atomic             Coordinates (Angstroms)
 Number     Number       Type             X           Y           Z
 ---------------------------------------------------------------------
      1          6           0        3.364740   -1.275691   -0.363550
      2          8           0        2.014058   -0.867112   -0.212072
      3          7           0        2.008113    0.505247    0.106654
      4          6           0        0.817266    1.000679    0.177373
      5          6           0       -0.483034    0.298863    0.077855
      6          6           0       -1.591087    0.967065   -0.469468
      7          7           0       -2.814504    0.438250   -0.568081
      8          6           0       -2.981026   -0.808221   -0.109871
      9          6           0       -1.952175   -1.566249    0.451083
     10          6           0       -0.682348   -1.008058    0.545565
     11          7           0        0.740478    2.392003    0.304281
     12          1           0        3.321893   -2.340130   -0.607956
     13          1           0        3.931755   -1.128016    0.563826
     14          1           0        3.854659   -0.726192   -1.176382
     15          1           0       -1.468498    1.974875   -0.857959
     16          1           0       -3.985393   -1.219113   -0.196386
     17          1           0       -2.144901   -2.573617    0.807053
     18          1           0        0.144790   -1.562735    0.968242
     19          1           0        1.658386    2.806803    0.432118
     20          1           0        0.082216    2.706202    1.010120
 ---------------------------------------------------------------------

 SCF Done:  E(UB3LYP) =  -511.748425696     A.U. after   33 cycles
 SCF Done:  E(UB3LYP) =  -511.748425696     a.u. after    1 cycles

 The electronic state is 2-A.
 Alpha  occ. eigenvalues --  -19.01428 -14.18432 -14.18015 -14.14895 -10.08885
 Alpha  occ. eigenvalues --  -10.08043 -10.04895 -10.03352 -10.02644 -10.01976
 Alpha  occ. eigenvalues --  -10.01921  -0.93565  -0.79836  -0.78126  -0.68804
 Alpha  occ. eigenvalues --   -0.64559  -0.60994  -0.54707  -0.49522  -0.47399
 Alpha  occ. eigenvalues --   -0.42889  -0.39764  -0.36721  -0.35267  -0.33297
 Alpha  occ. eigenvalues --   -0.33042  -0.31726  -0.30622  -0.27671  -0.25439
 Alpha  occ. eigenvalues --   -0.25181  -0.24101  -0.23272  -0.21605  -0.17678
 Alpha  occ. eigenvalues --   -0.13871  -0.13229  -0.11952  -0.10351  -0.07618
 Alpha  occ. eigenvalues --    0.06040
 Alpha virt. eigenvalues --    0.08144   0.09159   0.09734   0.11443   0.11556
 Alpha virt. eigenvalues --    0.11928   0.12350   0.12932   0.13583   0.13925
 Alpha virt. eigenvalues --    0.16022   0.17375   0.18057   0.18255   0.18491

  Beta  occ. eigenvalues --  -19.01404 -14.18415 -14.17713 -14.14842 -10.08871
  Beta  occ. eigenvalues --  -10.07909 -10.04867 -10.02961 -10.02738 -10.01731
  Beta  occ. eigenvalues --  -10.01678  -0.93389  -0.79618  -0.77831  -0.68523
  Beta  occ. eigenvalues --   -0.64099  -0.60541  -0.54618  -0.48796  -0.47227
  Beta  occ. eigenvalues --   -0.42622  -0.39628  -0.36538  -0.35110  -0.33064
  Beta  occ. eigenvalues --   -0.32827  -0.31515  -0.30492  -0.27509  -0.25073
  Beta  occ. eigenvalues --   -0.24533  -0.23811  -0.22439  -0.21413  -0.17340
  Beta  occ. eigenvalues --   -0.13182  -0.12424  -0.10843  -0.10070  -0.06582
  Beta virt. eigenvalues --    0.08260   0.09213   0.09630   0.11192   0.11502
  Beta virt. eigenvalues --    0.11929   0.12414   0.12445   0.12898   0.13546
  Beta virt. eigenvalues --    0.13963   0.16203   0.17456   0.18033   0.18343

 Mulliken charges and spin densities:
               1          2
     1  C    0.139845  -0.412780
     2  O    0.011295   0.000186
     3  N   -0.422508   0.171937
     4  C   -0.322857  -0.206088
     5  C    1.015085  -0.014029
     6  C   -0.623454  -0.040855
     7  N   -0.079829   0.017498
     8  C   -0.532169   0.337046
     9  C    0.208620  -0.262545
    10  C   -0.684143   0.668683
    11  N   -0.369340   0.061478
    12  H    0.069585   0.041996
    13  H   -0.226404   0.362452
    14  H    0.088559   0.030250
    15  H    0.179851  -0.008976
    16  H    0.093373  -0.011182
    17  H    0.095943   0.030943
    18  H    0.002358   0.129300
    19  H    0.228511   0.014981
    20  H    0.127679   0.089706
 Sum of Mulliken charges =  -1.00000   1.00000

 Dipole moment (field-independent basis, Debye):
    X=              1.3018    Y=             -0.1483    Z=              0.2688  Tot=              1.3376
 Quadrupole moment (field-independent basis, Debye-Ang):
   XX=           -107.8470   YY=            -75.6384   ZZ=            -78.2927
   XY=              2.4608   XZ=             -7.2064   YZ=              2.5613

 Summary of Natural Population Analysis:

                                       Natural Population
                Natural  -----------------------------------------------
    Atom  No    Charge         Core      Valence    Rydberg      Total
 -----------------------------------------------------------------------
      C    1   -0.09299      0.99963     2.08212    0.01124     3.09299
      O    2   -0.22891      0.99990     3.21675    0.01226     4.22891
      N    3   -0.09705      0.99959     2.58399    0.01347     3.59705
      C    4    0.21287      0.99960     1.76970    0.01784     2.78713
      C    5   -0.04821      0.99947     2.03747    0.01127     3.04821
      C    6    0.03522      0.99956     1.94996    0.01526     2.96478
      N    7   -0.24518      0.99972     2.73379    0.01168     3.74518
      C    8    0.08910      0.99960     1.89693    0.01437     2.91090
      C    9   -0.15302      0.99956     2.14498    0.00848     3.15302
      C   10   -0.02198      0.99954     2.01140    0.01104     3.02198
      N   11   -0.40542      0.99973     2.89642    0.00927     3.90542
      H   12    0.08160      0.00000     0.41745    0.00094     0.41840
      H   13    0.07959      0.00000     0.41742    0.00298     0.42041
      H   14    0.07672      0.00000     0.42150    0.00178     0.42328
      H   15    0.08639      0.00000     0.41156    0.00206     0.41361
      H   16    0.07239      0.00000     0.42607    0.00154     0.42761
      H   17    0.09284      0.00000     0.40610    0.00106     0.40716
      H   18    0.10319      0.00000     0.39539    0.00142     0.39681
      H   19    0.18212      0.00000     0.31589    0.00199     0.31788
      H   20    0.18072      0.00000     0.31750    0.00178     0.31928
 =======================================================================
   * Total *   -0.00000     10.99589    28.85237    0.15174    40.00000

 Normal termination of Gaussian 16 at Tue Dec  8 20:44:12 2020.
