 Gaussian 16, Revision A.03,

 -----------------------------------------------------------
 # opt freq B3LYP/6-31G(d) empiricaldispersion=gd3bj scf=xqc
 -----------------------------------------------------------

 ------------------------------
 CID_54437337_JID_1699_neutraal
 ------------------------------
 Symbolic Z-matrix:
 Charge =  0 Multiplicity = 1

 SCF Done:  E(RB3LYP) =  -474.507159521     A.U. after   14 cycles
 SCF Done:  E(RB3LYP) =  -474.511816999     A.U. after   14 cycles
 SCF Done:  E(RB3LYP) =  -474.512778681     A.U. after   13 cycles
 SCF Done:  E(RB3LYP) =  -474.513425882     A.U. after   14 cycles
 SCF Done:  E(RB3LYP) =  -474.513738907     A.U. after   13 cycles
 SCF Done:  E(RB3LYP) =  -474.513875793     A.U. after   13 cycles
 SCF Done:  E(RB3LYP) =  -474.513999738     A.U. after   13 cycles
 SCF Done:  E(RB3LYP) =  -474.514047150     A.U. after   13 cycles
 SCF Done:  E(RB3LYP) =  -474.514085578     A.U. after   13 cycles
 SCF Done:  E(RB3LYP) =  -474.514118327     A.U. after   13 cycles
 SCF Done:  E(RB3LYP) =  -474.515161434     A.U. after   13 cycles
 SCF Done:  E(RB3LYP) =  -474.515197111     A.U. after   12 cycles
 SCF Done:  E(RB3LYP) =  -474.515196755     A.U. after   12 cycles
 SCF Done:  E(RB3LYP) =  -474.515206202     A.U. after   12 cycles
 SCF Done:  E(RB3LYP) =  -474.515206568     A.U. after    8 cycles
 Optimization completed.
    -- Stationary point found.
 Normal termination of Gaussian 16 at Tue Dec  8 20:56:02 2020.

 --------------------------------------------------------------------
 #N Geom=AllCheck Guess=TCheck SCRF=Check GenChk RB3LYP/6-31G(d) Freq
 --------------------------------------------------------------------

 Structure from the checkpoint file:  "JID_1699.chk"
 ------------------------------
 CID_54437337_JID_1699_neutraal
 ------------------------------
 Charge =  0 Multiplicity = 1

 SCF Done:  E(RB3LYP) =  -474.515206568     A.U. after    1 cycles

  Exact polarizability: 129.044  -4.397  97.212   4.625   4.992  58.145
 Approx polarizability: 186.652 -10.906 172.902   5.120  10.234  91.114

                      1                      2                      3
                      A                      A                      A
 Frequencies --     31.2343                85.5724               124.1039
 Red. masses --      4.5927                 3.3888                 4.1810
 Frc consts  --      0.0026                 0.0146                 0.0379
 IR Inten    --      3.0073                 0.4412                 6.9341

                      4                      5                      6
                      A                      A                      A
 Frequencies --    227.5561               261.0587               367.3718
 Red. masses --      2.6131                 4.8378                 3.8273
 Frc consts  --      0.0797                 0.1943                 0.3043
 IR Inten    --      0.2083                 3.5988                 0.9861

                      7                      8                      9
                      A                      A                      A
 Frequencies --    416.3464               439.4956               539.0038
 Red. masses --      3.5096                 4.3548                 3.4010
 Frc consts  --      0.3584                 0.4956                 0.5822
 IR Inten    --      3.1472                 0.1406                 5.6373

                     10                     11                     12
                      A                      A                      A
 Frequencies --    611.6344               641.6000               730.0837
 Red. masses --      3.1264                 5.2702                 3.9506
 Frc consts  --      0.6891                 1.2782                 1.2407
 IR Inten    --      4.0544                 2.1475                 2.4794

                     13                     14                     15
                      A                      A                      A
 Frequencies --    763.3518               765.6765               799.3379
 Red. masses --      3.6492                 1.4635                 3.2822
 Frc consts  --      1.2528                 0.5055                 1.2356
 IR Inten    --      7.6931                25.5508                 7.3241

                     16                     17                     18
                      A                      A                      A
 Frequencies --    831.2854               869.1371               900.2615
 Red. masses --      4.4450                 3.0245                 2.3448
 Frc consts  --      1.8098                 1.3461                 1.1197
 IR Inten    --     11.3177                16.9329                 1.4370

                     19                     20                     21
                      A                      A                      A
 Frequencies --    902.8382               912.0120               968.7640
 Red. masses --      3.9215                 1.7257                 2.5322
 Frc consts  --      1.8833                 0.8457                 1.4002
 IR Inten    --     13.0237                 0.6821                 5.0100

                     22                     23                     24
                      A                      A                      A
 Frequencies --    977.3599              1006.0164              1015.7358
 Red. masses --      1.4624                 1.2951                 6.7793
 Frc consts  --      0.8231                 0.7722                 4.1209
 IR Inten    --      0.2531                 0.0558                 6.7464

                     25                     26                     27
                      A                      A                      A
 Frequencies --   1047.6904              1067.6391              1082.6798
 Red. masses --      1.9704                 2.3408                 2.1556
 Frc consts  --      1.2743                 1.5720                 1.4887
 IR Inten    --     16.4143                 7.4757                 1.9751

                     28                     29                     30
                      A                      A                      A
 Frequencies --   1129.0740              1177.3221              1187.9239
 Red. masses --      1.5320                 1.1774                 1.1224
 Frc consts  --      1.1507                 0.9615                 0.9332
 IR Inten    --      1.3483                 1.9404                 3.4708

                     31                     32                     33
                      A                      A                      A
 Frequencies --   1228.4412              1243.2529              1268.3009
 Red. masses --      1.5231                 1.4147                 1.2955
 Frc consts  --      1.3542                 1.2884                 1.2279
 IR Inten    --     24.0578                 1.6443                 2.4330

                     34                     35                     36
                      A                      A                      A
 Frequencies --   1304.8050              1325.3810              1333.7549
 Red. masses --      3.3934                 2.0073                 1.4353
 Frc consts  --      3.4039                 2.0775                 1.5043
 IR Inten    --      2.3521                 2.9320                 1.3064

                     37                     38                     39
                      A                      A                      A
 Frequencies --   1340.0009              1392.5257              1483.7328
 Red. masses --      1.4689                 1.5949                 2.2094
 Frc consts  --      1.5540                 1.8222                 2.8657
 IR Inten    --      4.1718                 0.9646                26.7746

                     40                     41                     42
                      A                      A                      A
 Frequencies --   1491.8205              1513.8177              1526.8123
 Red. masses --      1.0960                 1.2808                 1.7967
 Frc consts  --      1.4371                 1.7293                 2.4677
 IR Inten    --      3.8338                12.1795                23.8268

                     43                     44                     45
                      A                      A                      A
 Frequencies --   1634.0943              1648.9062              1671.5440
 Red. masses --      5.8023                 5.5104                 9.2176
 Frc consts  --      9.1287                 8.8273                15.1742
 IR Inten    --     12.5217                54.1097                16.7636

                     46                     47                     48
                      A                      A                      A
 Frequencies --   3083.3970              3087.3852              3104.4808
 Red. masses --      1.0590                 1.0720                 1.0840
 Frc consts  --      5.9323                 6.0205                 6.1552
 IR Inten    --     16.7465                15.3107                20.5962

                     49                     50                     51
                      A                      A                      A
 Frequencies --   3130.0685              3164.9490              3174.2730
 Red. masses --      1.1044                 1.1000                 1.0892
 Frc consts  --      6.3751                 6.4920                 6.4663
 IR Inten    --     21.1541                10.1978                21.5354

                     52                     53                     54
                      A                      A                      A
 Frequencies --   3194.9636              3210.0038              3219.5626
 Red. masses --      1.0877                 1.0927                 1.0980
 Frc consts  --      6.5418                 6.6339                 6.7057
 IR Inten    --      5.8983                19.1443                15.5950

 - Thermochemistry -
 -------------------
 Temperature   298.150 Kelvin.  Pressure   1.00000 Atm.
 Atom     1 has atomic number  6 and mass  12.00000

 Molecular mass:   147.07965 amu.
 Principal axes and moments of inertia in atomic units:
                           1         2         3
     Eigenvalues --   651.583212335.975552567.84211
           X            0.99974  -0.01433   0.01776
           Y            0.01356   0.99899   0.04277
           Z           -0.01836  -0.04252   0.99893
 This molecule is an asymmetric top.
 Rotational symmetry number  1.
 Warning -- assumption of classical behavior for rotation
           may cause significant error
 Rotational temperatures (Kelvin)      0.13293     0.03708     0.03373
 Rotational constants (GHZ):           2.76978     0.77259     0.70282
 Zero-point vibrational energy     428594.7 (Joules/Mol)
                                  102.43660 (Kcal/Mol)
 Warning -- explicit consideration of  10 degrees of freedom as
           vibrations may cause significant error
 Vibrational temperatures:     44.94   123.12   178.56   327.40   375.61
          (Kelvin)            528.57   599.03   632.34   775.51   880.01
                              923.12  1050.43  1098.29  1101.64  1150.07
                             1196.03  1250.49  1295.28  1298.98  1312.18
                             1393.84  1406.20  1447.43  1461.42  1507.39
                             1536.09  1557.73  1624.49  1693.90  1709.16
                             1767.45  1788.76  1824.80  1877.32  1906.93
                             1918.98  1927.96  2003.53  2134.76  2146.40
                             2178.05  2196.74  2351.10  2372.41  2404.98
                             4436.32  4442.06  4466.66  4503.47  4553.66
                             4567.07  4596.84  4618.48  4632.23

 Zero-point correction=                           0.163243 (Hartree/Particle)
 Thermal correction to Energy=                    0.171852
 Thermal correction to Enthalpy=                  0.172796
 Thermal correction to Gibbs Free Energy=         0.128297
 Sum of electronic and zero-point Energies=           -474.351963
 Sum of electronic and thermal Energies=              -474.343355
 Sum of electronic and thermal Enthalpies=            -474.342411
 Sum of electronic and thermal Free Energies=         -474.386910

                     E (Thermal)             CV                S
                      KCal/Mol        Cal/Mol-Kelvin    Cal/Mol-Kelvin
 Total                  107.838             33.098             93.656
 Electronic               0.000              0.000              0.000
 Translational            0.889              2.981             40.868
 Rotational               0.889              2.981             29.748
 Vibrational            106.061             27.136             23.040
 Vibration     1          0.594              1.983              5.749
 Vibration     2          0.601              1.959              3.759
 Vibration     3          0.610              1.929              3.035
 Vibration     4          0.651              1.799              1.898
 Vibration     5          0.669              1.744              1.655
 Vibration     6          0.740              1.539              1.091
 Vibration     7          0.780              1.435              0.904
 Vibration     8          0.800              1.384              0.828
 Vibration     9          0.894              1.164              0.567
 Vibration    10          0.971              1.007              0.430

                           ! Non-Optimized Parameters !
 Normal termination of Gaussian 16 at Tue Dec  8 21:00:22 2020.

 ----------------------------------------------------------------------
 # B3LYP/6-311++G(d,p) empiricaldispersion=gd3bj scf=xqc pop=npa geom=c
 heck
 ----------------------------------------------------------------------

 --------------------------------------
 CID_54437337_JID_1699_Energie_neutraal
 --------------------------------------
 Structure from the checkpoint file:  "JID_1699.chk"
 Charge =  0 Multiplicity = 1

 SCF Done:  E(RB3LYP) =  -474.637986170     A.U. after   15 cycles
 Normal termination of Gaussian 16 at Tue Dec  8 21:02:26 2020.

 ----------------------------------------------------------------------
 # B3LYP/6-311++G(d,p) empiricaldispersion=gd3bj scf=xqc pop=npa geom=c
 heck
 ----------------------------------------------------------------------

 ------------------------------------
 CID_54437337_JID_1699_Energie_kation
 ------------------------------------
 Structure from the checkpoint file:  "JID_1699.chk"
 Charge =  1 Multiplicity = 2

 SCF Done:  E(UB3LYP) =  -474.325781246     A.U. after   26 cycles
 Normal termination of Gaussian 16 at Tue Dec  8 21:07:36 2020.
 Gaussian 16:  ES64L-G16RevA.03 25-Dec-2016

 ----------------------------------------------------------------------
 # B3LYP/6-311++G(d,p) empiricaldispersion=gd3bj scf=xqc pop=npa geom=c
 heck
 ----------------------------------------------------------------------

 -----------------------------------
 CID_54437337_JID_1699_Energie_anion
 -----------------------------------
 Structure from the checkpoint file:  "JID_1699.chk"
 Charge = -1 Multiplicity = 2

                         Standard orientation:
 ---------------------------------------------------------------------
 Center     Atomic      Atomic             Coordinates (Angstroms)
 Number     Number       Type             X           Y           Z
 ---------------------------------------------------------------------
      1          6           0        1.905648   -0.269256    1.160382
      2          6           0        2.634371   -0.855443   -0.055898
      3          7           0        2.444695    0.139014   -1.149522
      4          7           0        1.602603    1.001328   -0.872463
      5          6           0        0.991647    0.774596    0.507318
      6          6           0       -0.435815    0.328050    0.279819
      7          6           0       -1.478536    1.257305    0.212663
      8          6           0       -2.768052    0.804531   -0.054663
      9          6           0       -2.973116   -0.560425   -0.248032
     10          6           0       -1.869369   -1.409614   -0.165860
     11          7           0       -0.627649   -0.986025    0.088789
     12          1           0        2.609152    0.212862    1.845393
     13          1           0        1.338590   -1.025007    1.703904
     14          1           0        3.707805   -1.015155    0.080701
     15          1           0        2.188112   -1.791876   -0.407057
     16          1           0        0.997692    1.745888    1.009528
     17          1           0       -1.275797    2.312887    0.364877
     18          1           0       -3.597221    1.504181   -0.110042
     19          1           0       -3.960117   -0.960605   -0.457057
     20          1           0       -1.986420   -2.481845   -0.312258
 ---------------------------------------------------------------------

 SCF Done:  E(UB3LYP) =  -474.631544155     A.U. after   33 cycles
 SCF Done:  E(UB3LYP) =  -474.631544155     a.u. after    1 cycles

 The electronic state is 2-A.
 Alpha  occ. eigenvalues --  -14.19585 -14.19359 -14.16805 -10.07614 -10.06951
 Alpha  occ. eigenvalues --  -10.06692 -10.06399 -10.05304 -10.04761 -10.04627
 Alpha  occ. eigenvalues --  -10.04211  -0.88814  -0.80974  -0.67232  -0.66591
 Alpha  occ. eigenvalues --   -0.63965  -0.59919  -0.50630  -0.49922  -0.46376
 Alpha  occ. eigenvalues --   -0.41898  -0.39265  -0.36900  -0.35196  -0.33912
 Alpha  occ. eigenvalues --   -0.32620  -0.29217  -0.28901  -0.27505  -0.26542
 Alpha  occ. eigenvalues --   -0.25054  -0.24275  -0.22496  -0.19003  -0.18397
 Alpha  occ. eigenvalues --   -0.15986  -0.13462  -0.12761  -0.08903   0.05320
 Alpha virt. eigenvalues --    0.07711   0.08380   0.08887   0.09640   0.10394
 Alpha virt. eigenvalues --    0.10451   0.11290   0.11544   0.12626   0.13412
 Alpha virt. eigenvalues --    0.14630   0.16133   0.16548   0.17111   0.18199

  Beta  occ. eigenvalues --  -14.19304 -14.18988 -14.16634 -10.07652 -10.06770
  Beta  occ. eigenvalues --  -10.06719 -10.06416 -10.05200 -10.04788 -10.04612
  Beta  occ. eigenvalues --  -10.04067  -0.88236  -0.80671  -0.66982  -0.66380
  Beta  occ. eigenvalues --   -0.63761  -0.59630  -0.50393  -0.49798  -0.46120
  Beta  occ. eigenvalues --   -0.41392  -0.39100  -0.36761  -0.34958  -0.33760
  Beta  occ. eigenvalues --   -0.32474  -0.28950  -0.28573  -0.27359  -0.26033
  Beta  occ. eigenvalues --   -0.24633  -0.23889  -0.22380  -0.18688  -0.17403
  Beta  occ. eigenvalues --   -0.15185  -0.12810  -0.12520  -0.08476
  Beta virt. eigenvalues --    0.08021   0.08614   0.09303   0.09993   0.10226
  Beta virt. eigenvalues --    0.10715   0.10957   0.11469   0.12856   0.12991
  Beta virt. eigenvalues --    0.13583   0.14579   0.16056   0.16574   0.16994

 Mulliken charges and spin densities:
               1          2
     1  C   -0.111474  -0.161418
     2  C   -0.469894  -0.025301
     3  N   -0.151227   0.197126
     4  N    0.051564   0.102180
     5  C    0.468144  -0.880342
     6  C    0.259175  -0.155902
     7  C   -0.909804   0.722860
     8  C    0.119548  -0.600122
     9  C    0.826682  -0.767921
    10  C   -0.300515   0.188595
    11  N    0.008665   0.162621
    12  H    0.049305   0.073202
    13  H    0.089033   0.059555
    14  H    0.131936   0.002373
    15  H    0.169308   0.016104
    16  H   -0.073441   0.305438
    17  H   -0.120284   0.276793
    18  H   -0.688958   0.841951
    19  H   -0.329178   0.472756
    20  H   -0.018586   0.169455
 Sum of Mulliken charges =  -1.00000   1.00000

 Dipole moment (field-independent basis, Debye):
    X=              3.0613    Y=             -2.1345    Z=              2.6733  Tot=              4.5907
 Quadrupole moment (field-independent basis, Debye-Ang):
   XX=           -113.5419   YY=            -85.2742   ZZ=            -86.0064
   XY=              1.0630   XZ=              6.3425   YZ=              0.2553

 Summary of Natural Population Analysis:

                                       Natural Population
                Natural  -----------------------------------------------
    Atom  No    Charge         Core      Valence    Rydberg      Total
 -----------------------------------------------------------------------
      C    1   -0.21266      0.99963     2.20367    0.00935     3.21266
      C    2   -0.12858      0.99964     2.11802    0.01092     3.12858
      N    3   -0.04342      0.99977     2.52647    0.01718     3.54342
      N    4   -0.05875      0.99978     2.53864    0.02033     3.55875
      C    5   -0.05708      0.99956     2.04327    0.01425     3.05708
      C    6    0.13033      0.99951     1.85386    0.01629     2.86967
      C    7   -0.12228      0.99951     2.11270    0.01007     3.12228
      C    8   -0.06916      0.99957     2.05928    0.01031     3.06916
      C    9   -0.10983      0.99956     2.10024    0.01003     3.10983
      C   10    0.01863      0.99959     1.96683    0.01495     2.98137
      N   11   -0.22622      0.99968     2.71501    0.01153     3.72622
      H   12    0.09362      0.00000     0.40538    0.00100     0.40638
      H   13    0.11203      0.00000     0.38677    0.00120     0.38797
      H   14    0.08929      0.00000     0.40887    0.00183     0.41071
      H   15    0.10381      0.00000     0.39397    0.00221     0.39619
      H   16    0.09987      0.00000     0.39800    0.00214     0.40013
      H   17    0.10107      0.00000     0.39741    0.00152     0.39893
      H   18    0.09800      0.00000     0.40021    0.00179     0.40200
      H   19    0.09784      0.00000     0.40096    0.00120     0.40216
      H   20    0.08347      0.00000     0.41546    0.00106     0.41653
 =======================================================================
   * Total *    0.00000     10.99579    27.84505    0.15916    39.00000

 Normal termination of Gaussian 16 at Tue Dec  8 21:14:20 2020.
