 Gaussian 16, Revision A.03,

 -----------------------------------------------------------
 # opt freq B3LYP/6-31G(d) empiricaldispersion=gd3bj scf=xqc
 -----------------------------------------------------------

 ------------------------------
 CID_89030988_JID_1990_neutraal
 ------------------------------
 Symbolic Z-matrix:
 Charge =  0 Multiplicity = 1

 SCF Done:  E(RB3LYP) =  -511.679418472     A.U. after   15 cycles
 SCF Done:  E(RB3LYP) =  -511.685037514     A.U. after   13 cycles
 SCF Done:  E(RB3LYP) =  -511.685949576     A.U. after   14 cycles
 SCF Done:  E(RB3LYP) =  -511.688131851     A.U. after   13 cycles
 SCF Done:  E(RB3LYP) =  -511.688397229     A.U. after   12 cycles
 SCF Done:  E(RB3LYP) =  -511.688859079     A.U. after   12 cycles
 SCF Done:  E(RB3LYP) =  -511.688980822     A.U. after   11 cycles
 SCF Done:  E(RB3LYP) =  -511.689033216     A.U. after   12 cycles
 SCF Done:  E(RB3LYP) =  -511.689058231     A.U. after   10 cycles
 SCF Done:  E(RB3LYP) =  -511.689071525     A.U. after   10 cycles
 SCF Done:  E(RB3LYP) =  -511.689076592     A.U. after   10 cycles
 SCF Done:  E(RB3LYP) =  -511.689077566     A.U. after    8 cycles
 SCF Done:  E(RB3LYP) =  -511.689078821     A.U. after    9 cycles
 SCF Done:  E(RB3LYP) =  -511.689079164     A.U. after    8 cycles
 SCF Done:  E(RB3LYP) =  -511.689079227     A.U. after    7 cycles
 Optimization completed.
    -- Stationary point found.
 Normal termination of Gaussian 16 at Tue Dec  8 21:48:21 2020.

 --------------------------------------------------------------------
 #N Geom=AllCheck Guess=TCheck SCRF=Check GenChk RB3LYP/6-31G(d) Freq
 --------------------------------------------------------------------

 Structure from the checkpoint file:  "JID_1990.chk"
 ------------------------------
 CID_89030988_JID_1990_neutraal
 ------------------------------
 Charge =  0 Multiplicity = 1

 SCF Done:  E(RB3LYP) =  -511.689079227     A.U. after    1 cycles

  Exact polarizability: 130.015   8.321 110.516   0.004  -0.002  46.182
 Approx polarizability: 194.520  22.682 199.001   0.011  -0.003  70.885

                      1                      2                      3
                      A                      A                      A
 Frequencies --     55.4616                78.7952                98.3919
 Red. masses --      2.4501                 2.9682                 6.4709
 Frc consts  --      0.0044                 0.0109                 0.0369
 IR Inten    --      0.2012                 0.3349                10.2933

                      4                      5                      6
                      A                      A                      A
 Frequencies --    168.1432               207.9472               247.1484
 Red. masses --      3.6513                 1.3205                 2.8921
 Frc consts  --      0.0608                 0.0336                 0.1041
 IR Inten    --      1.4031                 0.2500                 4.6980

                      7                      8                      9
                      A                      A                      A
 Frequencies --    301.2530               318.4595               345.5956
 Red. masses --      1.1846                 3.6681                 5.1521
 Frc consts  --      0.0633                 0.2192                 0.3626
 IR Inten    --    181.3990                 5.8054                 8.1974

                     10                     11                     12
                      A                      A                      A
 Frequencies --    415.0247               449.5802               512.6491
 Red. masses --      5.0462                 4.5668                 4.2788
 Frc consts  --      0.5121                 0.5438                 0.6625
 IR Inten    --      1.6082                39.1626                18.2683

                     13                     14                     15
                      A                      A                      A
 Frequencies --    548.4915               591.4948               599.2505
 Red. masses --      3.6577                 7.7021                 2.4344
 Frc consts  --      0.6483                 1.5877                 0.5151
 IR Inten    --      9.5962                 1.4071                 0.0032

                     16                     17                     18
                      A                      A                      A
 Frequencies --    670.2168               696.5320               755.5793
 Red. masses --      5.7540                 1.0574                 4.4036
 Frc consts  --      1.5228                 0.3023                 1.4812
 IR Inten    --     12.1233                 8.1607                 0.9648

                     19                     20                     21
                      A                      A                      A
 Frequencies --    789.1279               829.2901               861.9904
 Red. masses --      2.6493                 2.4102                 1.2229
 Frc consts  --      0.9720                 0.9766                 0.5354
 IR Inten    --      0.2168                16.4665                 7.4959

                     22                     23                     24
                      A                      A                      A
 Frequencies --    899.9757               974.2752               979.0871
 Red. masses --      5.8747                 1.4272                 4.9242
 Frc consts  --      2.8035                 0.7982                 2.7812
 IR Inten    --      8.5027                 0.1766                90.5777

                     25                     26                     27
                      A                      A                      A
 Frequencies --   1028.4440              1045.7582              1099.1098
 Red. masses --      1.7817                 1.9893                 1.6539
 Frc consts  --      1.1103                 1.2818                 1.1772
 IR Inten    --     30.5066                25.8931                 0.0025

                     28                     29                     30
                      A                      A                      A
 Frequencies --   1110.8655              1119.0716              1238.2774
 Red. masses --      2.0625                 2.1535                 3.1601
 Frc consts  --      1.4996                 1.5890                 2.8549
 IR Inten    --      1.6567                22.9986               129.8254

                     31                     32                     33
                      A                      A                      A
 Frequencies --   1283.9280              1284.2458              1324.1446
 Red. masses --      1.1871                 2.1383                 4.0674
 Frc consts  --      1.1529                 2.0779                 4.2019
 IR Inten    --      0.0640                51.8298                 2.7317

                     34                     35                     36
                      A                      A                      A
 Frequencies --   1378.2269              1412.5628              1443.1221
 Red. masses --      1.7348                 2.2904                 1.2528
 Frc consts  --      1.9416                 2.6926                 1.5372
 IR Inten    --      2.8123                32.8102                 5.0859

                     37                     38                     39
                      A                      A                      A
 Frequencies --   1465.0642              1474.0225              1509.4666
 Red. masses --      2.3812                 1.0988                 2.3044
 Frc consts  --      3.0114                 1.4066                 3.0936
 IR Inten    --     35.0743                15.3139                 4.1321

                     40                     41                     42
                      A                      A                      A
 Frequencies --   1525.1040              1529.3198              1583.5077
 Red. masses --      1.0393                 1.0519                 4.9160
 Frc consts  --      1.4243                 1.4496                 7.2628
 IR Inten    --      5.3315                 9.2391               107.7782

                     43                     44                     45
                      A                      A                      A
 Frequencies --   1603.8031              1658.3100              1739.1029
 Red. masses --      3.6222                 2.5411                 9.2252
 Frc consts  --      5.4894                 4.1172                16.4390
 IR Inten    --     15.7889               408.5809               164.9253

                     46                     47                     48
                      A                      A                      A
 Frequencies --   3059.5105              3065.2832              3084.5815
 Red. masses --      1.0624                 1.0357                 1.0989
 Frc consts  --      5.8591                 5.7333                 6.1604
 IR Inten    --     14.4341                27.4805                 3.7207

                     49                     50                     51
                      A                      A                      A
 Frequencies --   3133.3567              3139.1246              3171.8685
 Red. masses --      1.1028                 1.1025                 1.0890
 Frc consts  --      6.3790                 6.4010                 6.4552
 IR Inten    --     24.6643                26.4618                17.4965

                     52                     53                     54
                      A                      A                      A
 Frequencies --   3200.8108              3536.4018              3699.1024
 Red. masses --      1.0948                 1.0481                 1.1028
 Frc consts  --      6.6085                 7.7229                 8.8905
 IR Inten    --     35.0733                94.4946                94.0256

 - Thermochemistry -
 -------------------
 Temperature   298.150 Kelvin.  Pressure   1.00000 Atm.
 Atom     1 has atomic number  6 and mass  12.00000

 Molecular mass:   151.07456 amu.
 Principal axes and moments of inertia in atomic units:
                           1         2         3
     Eigenvalues --   824.291712232.363423034.67618
           X            0.99990  -0.01390  -0.00000
           Y            0.01390   0.99990  -0.00000
           Z            0.00000   0.00000   1.00000
 This molecule is an asymmetric top.
 Rotational symmetry number  1.
 Warning -- assumption of classical behavior for rotation
           may cause significant error
 Rotational temperatures (Kelvin)      0.10508     0.03880     0.02854
 Rotational constants (GHZ):           2.18944     0.80844     0.59471
 Zero-point vibrational energy     420722.2 (Joules/Mol)
                                  100.55502 (Kcal/Mol)
 Warning -- explicit consideration of  15 degrees of freedom as
           vibrations may cause significant error
 Vibrational temperatures:     79.80   113.37   141.56   241.92   299.19
          (Kelvin)            355.59   433.44   458.19   497.23   597.13
                              646.85   737.59   789.16   851.03   862.19
                              964.29  1002.15  1087.11  1135.38  1193.16
                             1240.21  1294.86  1401.76  1408.69  1479.70
                             1504.61  1581.37  1598.29  1610.09  1781.60
                             1847.29  1847.74  1905.15  1982.96  2032.36
                             2076.33  2107.90  2120.79  2171.79  2194.28
                             2200.35  2278.31  2307.51  2385.94  2502.18
                             4401.95  4410.26  4438.02  4508.20  4516.50
                             4563.61  4605.25  5088.09  5322.18

 Zero-point correction=                           0.160245 (Hartree/Particle)
 Thermal correction to Energy=                    0.170459
 Thermal correction to Enthalpy=                  0.171404
 Thermal correction to Gibbs Free Energy=         0.124150
 Sum of electronic and zero-point Energies=           -511.528835
 Sum of electronic and thermal Energies=              -511.518620
 Sum of electronic and thermal Enthalpies=            -511.517676
 Sum of electronic and thermal Free Energies=         -511.564929

                     E (Thermal)             CV                S
                      KCal/Mol        Cal/Mol-Kelvin    Cal/Mol-Kelvin
 Total                  106.965             38.040             99.453
 Electronic               0.000              0.000              0.000
 Translational            0.889              2.981             40.948
 Rotational               0.889              2.981             30.103
 Vibrational            105.187             32.079             28.403
 Vibration     1          0.596              1.975              4.612
 Vibration     2          0.600              1.963              3.921
 Vibration     3          0.604              1.950              3.486
 Vibration     4          0.625              1.882              2.456
 Vibration     5          0.641              1.829              2.062
 Vibration     6          0.661              1.768              1.751
 Vibration     7          0.693              1.671              1.410
 Vibration     8          0.705              1.638              1.318
 Vibration     9          0.724              1.584              1.186
 Vibration    10          0.778              1.438              0.909
 Vibration    11          0.808              1.362              0.797
 Vibration    12          0.868              1.222              0.627
 Vibration    13          0.904              1.143              0.547
 Vibration    14          0.949              1.050              0.465
 Vibration    15          0.957              1.033              0.451

 Optimization completed.
    -- Stationary point found.
 Normal termination of Gaussian 16 at Tue Dec  8 21:51:52 2020.

 ----------------------------------------------------------------------
 # B3LYP/6-311++G(d,p) empiricaldispersion=gd3bj scf=xqc pop=npa geom=c
 heck
 ----------------------------------------------------------------------

 --------------------------------------
 CID_89030988_JID_1990_Energie_neutraal
 --------------------------------------
 Structure from the checkpoint file:  "JID_1990.chk"
 Charge =  0 Multiplicity = 1

 SCF Done:  E(RB3LYP) =  -511.835274297     A.U. after   15 cycles
 Normal termination of Gaussian 16 at Tue Dec  8 21:53:16 2020.

 ----------------------------------------------------------------------
 # B3LYP/6-311++G(d,p) empiricaldispersion=gd3bj scf=xqc pop=npa geom=c
 heck
 ----------------------------------------------------------------------

 ------------------------------------
 CID_89030988_JID_1990_Energie_kation
 ------------------------------------
 Structure from the checkpoint file:  "JID_1990.chk"
 Charge =  1 Multiplicity = 2

 SCF Done:  E(UB3LYP) =  -511.521960756     A.U. after   22 cycles
 Normal termination of Gaussian 16 at Tue Dec  8 21:55:35 2020.
 Gaussian 16:  ES64L-G16RevA.03 25-Dec-2016

 ----------------------------------------------------------------------
 # B3LYP/6-311++G(d,p) empiricaldispersion=gd3bj scf=xqc pop=npa geom=c
 heck
 ----------------------------------------------------------------------

 -----------------------------------
 CID_89030988_JID_1990_Energie_anion
 -----------------------------------
 Structure from the checkpoint file:  "JID_1990.chk"
 Charge = -1 Multiplicity = 2

                         Standard orientation:
 ---------------------------------------------------------------------
 Center     Atomic      Atomic             Coordinates (Angstroms)
 Number     Number       Type             X           Y           Z
 ---------------------------------------------------------------------
      1          6           0        3.685957   -0.426071   -0.000362
      2          6           0        2.240102   -0.913289    0.000127
      3          6           0        1.235756    0.224415    0.000163
      4          8           0        1.606333    1.400403    0.000254
      5          6           0       -0.204492   -0.127565    0.000074
      6          7           0       -0.520095   -1.429377    0.000130
      7          6           0       -1.805815   -1.768053    0.000079
      8          6           0       -2.805130   -0.784763   -0.000125
      9          7           0       -2.538317    0.514781   -0.000209
     10          6           0       -1.232913    0.871017   -0.000070
     11          7           0       -0.959220    2.188960    0.000005
     12          1           0        3.894877    0.187506   -0.881746
     13          1           0        4.374189   -1.277398    0.000270
     14          1           0        3.894955    0.188949    0.879985
     15          1           0        2.028095   -1.552506   -0.866142
     16          1           0        2.028597   -1.552077    0.866844
     17          1           0       -2.051161   -2.826539    0.000193
     18          1           0       -3.857441   -1.064852   -0.000186
     19          1           0       -1.731483    2.838174   -0.000214
     20          1           0        0.011344    2.480826    0.000171
 ---------------------------------------------------------------------

 SCF Done:  E(UB3LYP) =  -511.856964589     A.U. after   21 cycles

 The electronic state is 2-A.
 Alpha  occ. eigenvalues --  -18.92301 -14.17233 -14.13548 -14.12917 -10.08944
 Alpha  occ. eigenvalues --  -10.06445 -10.03177 -10.03142 -10.02988 -10.02486
 Alpha  occ. eigenvalues --  -10.02252  -0.86427  -0.81722  -0.76412  -0.71857
 Alpha  occ. eigenvalues --   -0.63182  -0.59237  -0.52244  -0.49278  -0.47415
 Alpha  occ. eigenvalues --   -0.40374  -0.37451  -0.36957  -0.33410  -0.31991
 Alpha  occ. eigenvalues --   -0.31675  -0.29471  -0.27348  -0.26702  -0.24443
 Alpha  occ. eigenvalues --   -0.23271  -0.23104  -0.21926  -0.19687  -0.18986
 Alpha  occ. eigenvalues --   -0.14719  -0.13538  -0.09941  -0.07277  -0.06772
 Alpha  occ. eigenvalues --    0.04431
 Alpha virt. eigenvalues --    0.09175   0.10097   0.10812   0.11998   0.12609
 Alpha virt. eigenvalues --    0.12655   0.13585   0.13859   0.15490   0.15619
 Alpha virt. eigenvalues --    0.17622   0.17628   0.17774   0.18534   0.19503

  Beta  occ. eigenvalues --  -18.91791 -14.17242 -14.13268 -14.12306 -10.08981
  Beta  occ. eigenvalues --  -10.06168 -10.03308 -10.03142 -10.02650 -10.02373
  Beta  occ. eigenvalues --  -10.02278  -0.85543  -0.81314  -0.75947  -0.71164
  Beta  occ. eigenvalues --   -0.63051  -0.58878  -0.51726  -0.48750  -0.47339
  Beta  occ. eigenvalues --   -0.40096  -0.37112  -0.36628  -0.33189  -0.31798
  Beta  occ. eigenvalues --   -0.31357  -0.29343  -0.26350  -0.26348  -0.24256
  Beta  occ. eigenvalues --   -0.23135  -0.22345  -0.21659  -0.18055  -0.17729
  Beta  occ. eigenvalues --   -0.12994  -0.12451  -0.09459  -0.06762  -0.05786
  Beta virt. eigenvalues --    0.09140   0.10067   0.10801   0.11485   0.11974
  Beta virt. eigenvalues --    0.12564   0.12766   0.13562   0.14689   0.15477
  Beta virt. eigenvalues --    0.15618   0.17610   0.17901   0.18503   0.19307

 Mulliken charges and spin densities:
               1          2
     1  C   -0.662027  -0.000221
     2  C   -0.141261  -0.017265
     3  C   -0.672521   0.145201
     4  O   -0.421477   0.166367
     5  C    0.536117   0.098564
     6  N   -0.076773   0.293570
     7  C    0.159369  -0.077717
     8  C   -0.282867   0.280990
     9  N   -0.205015   0.102584
    10  C   -0.254739  -0.003610
    11  N   -0.436296   0.003670
    12  H    0.142342   0.000213
    13  H    0.106363  -0.000505
    14  H    0.142450   0.000227
    15  H    0.141346   0.014596
    16  H    0.141265   0.014659
    17  H    0.116398   0.005522
    18  H    0.111756  -0.022865
    19  H    0.244266  -0.001848
    20  H    0.311304  -0.002131
 Sum of Mulliken charges =  -1.00000   1.00000

 Dipole moment (field-independent basis, Debye):
    X=              1.2988    Y=              0.1012    Z=             -0.0004  Tot=              1.3027
 Quadrupole moment (field-independent basis, Debye-Ang):
   XX=            -95.1099   YY=            -76.7432   ZZ=            -72.1024
   XY=             -3.8357   XZ=             -0.0012   YZ=             -0.0003

 Summary of Natural Population Analysis:

                                       Natural Population
                Natural  -----------------------------------------------
    Atom  No    Charge         Core      Valence    Rydberg      Total
 -----------------------------------------------------------------------
      C    1   -0.28502      0.99968     2.28008    0.00527     3.28502
      C    2   -0.23407      0.99961     2.22688    0.00759     3.23407
      C    3    0.30221      0.99964     1.67804    0.02012     2.69779
      O    4   -0.28299      0.99987     3.27616    0.00696     4.28299
      C    5    0.02079      0.99948     1.96489    0.01484     2.97921
      N    6   -0.12902      0.99968     2.61851    0.01083     3.62902
      C    7   -0.06100      0.99961     2.04592    0.01547     3.06100
      C    8    0.07482      0.99962     1.91080    0.01476     2.92518
      N    9   -0.23752      0.99968     2.72244    0.01540     3.73752
      C   10    0.19297      0.99955     1.79125    0.01623     2.80703
      N   11   -0.40196      0.99969     2.89302    0.00925     3.90196
      H   12    0.09701      0.00000     0.40182    0.00117     0.40299
      H   13    0.08545      0.00000     0.41357    0.00098     0.41455
      H   14    0.09704      0.00000     0.40179    0.00117     0.40296
      H   15    0.10736      0.00000     0.39144    0.00120     0.39264
      H   16    0.10735      0.00000     0.39145    0.00120     0.39265
      H   17    0.07832      0.00000     0.42005    0.00163     0.42168
      H   18    0.07273      0.00000     0.42539    0.00188     0.42727
      H   19    0.18225      0.00000     0.31402    0.00372     0.31775
      H   20    0.21330      0.00000     0.28517    0.00154     0.28670
 =======================================================================
   * Total *   -0.00000     10.99610    28.85267    0.15122    40.00000

 Normal termination of Gaussian 16 at Tue Dec  8 21:57:57 2020.
