 Gaussian 16, Revision A.03,

 -----------------------------------------------------------
 # opt freq B3LYP/6-31G(d) empiricaldispersion=gd3bj scf=xqc
 -----------------------------------------------------------

 -------------------------------
 CID_154270290_JID_3268_neutraal
 -------------------------------
 Symbolic Z-matrix:
 Charge =  0 Multiplicity = 1

 SCF Done:  E(RB3LYP) =  -509.906533480     A.U. after   13 cycles
 SCF Done:  E(RB3LYP) =  -509.908509946     A.U. after   10 cycles
 SCF Done:  E(RB3LYP) =  -509.908807744     A.U. after   10 cycles
 SCF Done:  E(RB3LYP) =  -509.908943250     A.U. after   10 cycles
 SCF Done:  E(RB3LYP) =  -509.908985738     A.U. after    9 cycles
 SCF Done:  E(RB3LYP) =  -509.909004410     A.U. after    9 cycles
 SCF Done:  E(RB3LYP) =  -509.909007679     A.U. after    8 cycles
 SCF Done:  E(RB3LYP) =  -509.909009074     A.U. after    8 cycles
 SCF Done:  E(RB3LYP) =  -509.909009673     A.U. after    8 cycles
 SCF Done:  E(RB3LYP) =  -509.909009768     A.U. after    7 cycles
 SCF Done:  E(RB3LYP) =  -509.909009808     A.U. after    7 cycles
 Optimization completed.
    -- Stationary point found.
 Normal termination of Gaussian 16 at Wed Dec  9 22:32:39 2020.

 --------------------------------------------------------------------
 #N Geom=AllCheck Guess=TCheck SCRF=Check GenChk RB3LYP/6-31G(d) Freq
 --------------------------------------------------------------------

 Structure from the checkpoint file:  "JID_3268.chk"
 -------------------------------
 CID_154270290_JID_3268_neutraal
 -------------------------------
 Charge =  0 Multiplicity = 1

 SCF Done:  E(RB3LYP) =  -509.909009808     A.U. after    1 cycles

  Exact polarizability: 158.982   7.643 130.038  -1.941  -5.858 115.429
 Approx polarizability: 193.615  15.048 186.567  -6.633 -13.950 178.477

                      1                      2                      3
                      A                      A                      A
 Frequencies --     21.9817                51.7383                58.1186
 Red. masses --      2.5621                 3.0180                 2.5384
 Frc consts  --      0.0007                 0.0048                 0.0051
 IR Inten    --      0.0157                 0.0211                 0.0310

                      4                      5                      6
                      A                      A                      A
 Frequencies --     81.0489               109.4642               138.3220
 Red. masses --      2.0907                 2.2164                 1.8155
 Frc consts  --      0.0081                 0.0156                 0.0205
 IR Inten    --      0.0445                 0.0635                 0.0022

                      7                      8                      9
                      A                      A                      A
 Frequencies --    154.1474               191.0662               199.1779
 Red. masses --      2.6534                 1.8969                 1.6503
 Frc consts  --      0.0371                 0.0408                 0.0386
 IR Inten    --      0.0105                 0.0894                 0.1038

                     10                     11                     12
                      A                      A                      A
 Frequencies --    224.7433               252.3219               261.8163
 Red. masses --      1.3037                 1.4753                 1.5393
 Frc consts  --      0.0388                 0.0553                 0.0622
 IR Inten    --      0.0032                 0.1341                 0.1223

                     13                     14                     15
                      A                      A                      A
 Frequencies --    303.8410               325.6600               344.6082
 Red. masses --      2.2880                 2.0905                 2.0553
 Frc consts  --      0.1244                 0.1306                 0.1438
 IR Inten    --      0.1280                 0.2900                 0.0849

                     16                     17                     18
                      A                      A                      A
 Frequencies --    361.6060               404.5642               440.9073
 Red. masses --      2.1200                 3.0000                 2.3899
 Frc consts  --      0.1633                 0.2893                 0.2737
 IR Inten    --      0.5359                 1.9683                 0.0434

                     19                     20                     21
                      A                      A                      A
 Frequencies --    486.4427               496.4776               533.3797
 Red. masses --      3.4869                 2.6166                 2.0985
 Frc consts  --      0.4861                 0.3800                 0.3517
 IR Inten    --      0.3376                 1.0797                 3.2580

                     22                     23                     24
                      A                      A                      A
 Frequencies --    578.9171               710.9515               731.5447
 Red. masses --      3.7306                 2.3530                 1.5834
 Frc consts  --      0.7367                 0.7007                 0.4993
 IR Inten    --      0.4911                 1.0949                 4.6975

                     25                     26                     27
                      A                      A                      A
 Frequencies --    778.5937               785.9666               807.0737
 Red. masses --      1.6849                 1.3468                 1.3082
 Frc consts  --      0.6018                 0.4902                 0.5020
 IR Inten    --      0.9079                 2.5089                 2.0195

                     28                     29                     30
                      A                      A                      A
 Frequencies --    836.6109               879.1462               881.2629
 Red. masses --      1.4963                 2.4077                 1.6276
 Frc consts  --      0.6170                 1.0964                 0.7448
 IR Inten    --      1.2765                 2.2324                 3.5892

                     31                     32                     33
                      A                      A                      A
 Frequencies --    905.6126               918.9869               944.4141
 Red. masses --      1.8431                 1.6376                 1.9127
 Frc consts  --      0.8906                 0.8149                 1.0051
 IR Inten    --      0.2635                 5.0604                 1.8999

                     34                     35                     36
                      A                      A                      A
 Frequencies --    952.9017               978.0197               990.1918
 Red. masses --      2.0666                 1.9372                 2.2118
 Frc consts  --      1.1056                 1.0917                 1.2777
 IR Inten    --      1.4490                 2.6140                 4.5340

                     37                     38                     39
                      A                      A                      A
 Frequencies --   1038.5642              1052.1353              1060.3143
 Red. masses --      1.5947                 2.4829                 1.5757
 Frc consts  --      1.0134                 1.6194                 1.0437
 IR Inten    --      3.4785                 0.3256                 0.6613

                     40                     41                     42
                      A                      A                      A
 Frequencies --   1076.8058              1088.7118              1090.8601
 Red. masses --      2.3698                 1.7815                 1.8925
 Frc consts  --      1.6190                 1.2441                 1.3269
 IR Inten    --      0.9406                 3.6982                 3.6158

                     43                     44                     45
                      A                      A                      A
 Frequencies --   1102.4386              1117.5157              1135.7653
 Red. masses --      1.6370                 1.6731                 1.8623
 Frc consts  --      1.1722                 1.2311                 1.4154
 IR Inten    --      1.2764                 1.1469                 0.1987

                     46                     47                     48
                      A                      A                      A
 Frequencies --   1148.0406              1188.5931              1193.2180
 Red. masses --      1.8122                 1.4102                 2.2539
 Frc consts  --      1.4072                 1.1738                 1.8907
 IR Inten    --      0.8189                 1.9228                 0.9023

                     49                     50                     51
                      A                      A                      A
 Frequencies --   1226.0905              1231.5342              1274.1729
 Red. masses --      1.2891                 1.6680                 1.3390
 Frc consts  --      1.1418                 1.4905                 1.2808
 IR Inten    --      2.1113                 1.8836                 1.5288

                     52                     53                     54
                      A                      A                      A
 Frequencies --   1294.9159              1295.7421              1310.1462
 Red. masses --      1.2098                 1.2172                 1.2912
 Frc consts  --      1.1952                 1.2040                 1.3058
 IR Inten    --      0.0248                 1.1630                 2.5457

                     55                     56                     57
                      A                      A                      A
 Frequencies --   1324.5152              1342.8584              1363.9240
 Red. masses --      1.2331                 1.2058                 1.2844
 Frc consts  --      1.2745                 1.2811                 1.4078
 IR Inten    --      4.0527                 2.0854                 7.8694

                     58                     59                     60
                      A                      A                      A
 Frequencies --   1374.4332              1379.8484              1388.6969
 Red. masses --      1.4197                 1.3755                 1.3776
 Frc consts  --      1.5802                 1.5430                 1.5652
 IR Inten    --      0.9628                 3.1167                 5.7723

                     61                     62                     63
                      A                      A                      A
 Frequencies --   1397.0120              1402.4166              1407.5558
 Red. masses --      1.4968                 1.8490                 1.4074
 Frc consts  --      1.7212                 2.1426                 1.6429
 IR Inten    --      0.4918                 0.7993                 0.0608

                     64                     65                     66
                      A                      A                      A
 Frequencies --   1425.7628              1432.5730              1435.5835
 Red. masses --      1.4318                 1.5441                 1.2612
 Frc consts  --      1.7149                 1.8671                 1.5314
 IR Inten    --      0.3742                 0.0699                 2.3678

                     67                     68                     69
                      A                      A                      A
 Frequencies --   1440.0109              1443.7304              1505.5762
 Red. masses --      1.2506                 1.2629                 1.0794
 Frc consts  --      1.5279                 1.5509                 1.4416
 IR Inten    --      0.4215                 6.7447                 1.0303

                     70                     71                     72
                      A                      A                      A
 Frequencies --   1513.6185              1514.6457              1517.2387
 Red. masses --      1.0717                 1.0738                 1.0765
 Frc consts  --      1.4466                 1.4514                 1.4600
 IR Inten    --      0.7457                 1.2526                 0.1034

                     73                     74                     75
                      A                      A                      A
 Frequencies --   1522.2122              1525.4856              1529.3109
 Red. masses --      1.0614                 1.0750                 1.0455
 Frc consts  --      1.4491                 1.4739                 1.4406
 IR Inten    --      0.4803                 4.2267                13.6429

                     76                     77                     78
                      A                      A                      A
 Frequencies --   1529.8761              1532.6540              1537.8207
 Red. masses --      1.0518                 1.0660                 1.0623
 Frc consts  --      1.4505                 1.4754                 1.4802
 IR Inten    --      1.7469                 1.1655                11.2970

                     79                     80                     81
                      A                      A                      A
 Frequencies --   1538.4735              1540.8990              1749.4768
 Red. masses --      1.0679                 1.0637                 7.0755
 Frc consts  --      1.4892                 1.4881                12.7592
 IR Inten    --      1.4395                 5.6380                 0.6344

                     82                     83                     84
                      A                      A                      A
 Frequencies --   3007.9039              3010.1122              3019.3041
 Red. masses --      1.0807                 1.0694                 1.0662
 Frc consts  --      5.7606                 5.7090                 5.7266
 IR Inten    --     25.1816                 8.1239                15.7306

                     85                     86                     87
                      A                      A                      A
 Frequencies --   3021.4608              3035.4103              3037.7398
 Red. masses --      1.0662                 1.0616                 1.0640
 Frc consts  --      5.7348                 5.7630                 5.7847
 IR Inten    --     61.3787                32.1527                13.8130

                     88                     89                     90
                      A                      A                      A
 Frequencies --   3039.5061              3044.0350              3044.5174
 Red. masses --      1.0643                 1.0409                 1.0374
 Frc consts  --      5.7930                 5.6826                 5.6653
 IR Inten    --     34.0827                28.6569                 6.5370

                     91                     92                     93
                      A                      A                      A
 Frequencies --   3048.7343              3056.1646              3060.6862
 Red. masses --      1.0397                 1.0816                 1.0801
 Frc consts  --      5.6937                 5.9521                 5.9617
 IR Inten    --     10.0790                81.2926                10.5356

                     94                     95                     96
                      A                      A                      A
 Frequencies --   3066.2909              3068.5263              3072.1411
 Red. masses --      1.0993                 1.0995                 1.0969
 Frc consts  --      6.0895                 6.0997                 6.0996
 IR Inten    --     17.8377                39.3347                13.9369

                     97                     98                     99
                      A                      A                      A
 Frequencies --   3077.3383              3079.5842              3108.1088
 Red. masses --      1.0964                 1.1022                 1.1012
 Frc consts  --      6.1177                 6.1590                 6.2677
 IR Inten    --     52.0803                72.4344                32.8185

                    100                    101                    102
                      A                      A                      A
 Frequencies --   3109.5856              3115.2774              3116.2744
 Red. masses --      1.1014                 1.1016                 1.1020
 Frc consts  --      6.2746                 6.2991                 6.3055
 IR Inten    --     60.3654                74.2150                44.1016

                    103                    104                    105
                      A                      A                      A
 Frequencies --   3119.9159              3121.9708              3131.5778
 Red. masses --      1.1008                 1.1031                 1.0887
 Frc consts  --      6.3129                 6.3348                 6.2907
 IR Inten    --     28.5548                37.8740                45.7040

 - Thermochemistry -
 -------------------
 Temperature   298.150 Kelvin.  Pressure   1.00000 Atm.
 Atom     1 has atomic number  6 and mass  12.00000

 Molecular mass:   180.18780 amu.
 Principal axes and moments of inertia in atomic units:
                           1         2         3
     Eigenvalues --  1569.323833891.346014648.15822
           X            1.00000   0.00221  -0.00141
           Y           -0.00221   1.00000   0.00061
           Z            0.00141  -0.00061   1.00000
 This molecule is an asymmetric top.
 Rotational symmetry number  1.
 Warning -- assumption of classical behavior for rotation
           may cause significant error
 Rotational temperatures (Kelvin)      0.05519     0.02226     0.01863
 Rotational constants (GHZ):           1.15001     0.46378     0.38827
 Zero-point vibrational energy     910810.2 (Joules/Mol)
                                  217.68885 (Kcal/Mol)
 Warning -- explicit consideration of  22 degrees of freedom as
           vibrations may cause significant error
 Vibrational temperatures:     31.63    74.44    83.62   116.61   157.49
          (Kelvin)            199.01   221.78   274.90   286.57   323.36
                              363.03   376.70   437.16   468.55   495.81
                              520.27   582.08   634.37   699.88   714.32
                              767.41   832.93  1022.90  1052.53  1120.22
                             1130.83  1161.20  1203.70  1264.90  1267.94
                             1302.97  1322.22  1358.80  1371.01  1407.15
                             1424.67  1494.26  1513.79  1525.56  1549.28
                             1566.41  1569.50  1586.16  1607.86  1634.11
                             1651.77  1710.12  1716.77  1764.07  1771.90
                             1833.25  1863.10  1864.28  1885.01  1905.68
                             1932.07  1962.38  1977.50  1985.29  1998.03
                             2009.99  2017.76  2025.16  2051.35  2061.15
                             2065.48  2071.85  2077.21  2166.19  2177.76
                             2179.24  2182.97  2190.12  2194.83  2200.34
                             2201.15  2205.15  2212.58  2213.52  2217.01
                             2517.11  4327.70  4330.88  4344.11  4347.21
                             4367.28  4370.63  4373.17  4379.69  4380.38
                             4386.45  4397.14  4403.64  4411.71  4414.92
                             4420.13  4427.60  4430.83  4471.88  4474.00
                             4482.19  4483.62  4488.86  4491.82  4505.64

 Zero-point correction=                           0.346909 (Hartree/Particle)
 Thermal correction to Energy=                    0.362059
 Thermal correction to Enthalpy=                  0.363003
 Thermal correction to Gibbs Free Energy=         0.304077
 Sum of electronic and zero-point Energies=           -509.562101
 Sum of electronic and thermal Energies=              -509.546951
 Sum of electronic and thermal Enthalpies=            -509.546007
 Sum of electronic and thermal Free Energies=         -509.604933

                     E (Thermal)             CV                S
                      KCal/Mol        Cal/Mol-Kelvin    Cal/Mol-Kelvin
 Total                  227.195             57.183            124.021
 Electronic               0.000              0.000              0.000
 Translational            0.889              2.981             41.473
 Rotational               0.889              2.981             31.718
 Vibrational            225.418             51.222             50.830
 Vibration     1          0.593              1.985              6.447
 Vibration     2          0.596              1.977              4.750
 Vibration     3          0.596              1.974              4.520
 Vibration     4          0.600              1.962              3.865
 Vibration     5          0.606              1.942              3.278
 Vibration     6          0.614              1.915              2.827
 Vibration     7          0.620              1.898              2.620
 Vibration     8          0.634              1.852              2.217
 Vibration     9          0.637              1.841              2.141
 Vibration    10          0.649              1.803              1.921
 Vibration    11          0.664              1.759              1.714
 Vibration    12          0.669              1.743              1.650
 Vibration    13          0.695              1.666              1.396
 Vibration    14          0.710              1.624              1.282
 Vibration    15          0.723              1.586              1.191
 Vibration    16          0.736              1.551              1.115
 Vibration    17          0.770              1.460              0.946
 Vibration    18          0.801              1.381              0.824
 Vibration    19          0.842              1.280              0.693
 Vibration    20          0.852              1.258              0.667
 Vibration    21          0.888              1.176              0.580
 Vibration    22          0.935              1.077              0.487

 Optimization completed.
    -- Stationary point found.
 Normal termination of Gaussian 16 at Wed Dec  9 22:45:05 2020.

 ----------------------------------------------------------------------
 # B3LYP/6-311++G(d,p) empiricaldispersion=gd3bj scf=xqc pop=npa geom=c
 heck
 ----------------------------------------------------------------------

 ---------------------------------------
 CID_154270290_JID_3268_Energie_neutraal
 ---------------------------------------
 Structure from the checkpoint file:  "JID_3268.chk"
 Charge =  0 Multiplicity = 1

 SCF Done:  E(RB3LYP) =  -510.046770103     A.U. after   14 cycles
 Normal termination of Gaussian 16 at Wed Dec  9 22:51:16 2020.

 ----------------------------------------------------------------------
 # B3LYP/6-311++G(d,p) empiricaldispersion=gd3bj scf=xqc pop=npa geom=c
 heck
 ----------------------------------------------------------------------

 -------------------------------------
 CID_154270290_JID_3268_Energie_kation
 -------------------------------------
 Structure from the checkpoint file:  "JID_3268.chk"
 Charge =  1 Multiplicity = 2

 SCF Done:  E(UB3LYP) =  -509.743111231     A.U. after   18 cycles
 Normal termination of Gaussian 16 at Wed Dec  9 23:02:35 2020.
 Gaussian 16:  ES64L-G16RevA.03 25-Dec-2016

 ----------------------------------------------------------------------
 # B3LYP/6-311++G(d,p) empiricaldispersion=gd3bj scf=xqc pop=npa geom=c
 heck
 ----------------------------------------------------------------------

 ------------------------------------
 CID_154270290_JID_3268_Energie_anion
 ------------------------------------
 Structure from the checkpoint file:  "JID_3268.chk"
 Charge = -1 Multiplicity = 2

                         Standard orientation:
 ---------------------------------------------------------------------
 Center     Atomic      Atomic             Coordinates (Angstroms)
 Number     Number       Type             X           Y           Z
 ---------------------------------------------------------------------
      1          6           0        3.890086   -0.988358   -0.097049
      2          6           0        2.666965   -1.417837   -0.913079
      3          6           0        1.371763   -1.538014   -0.094552
      4          6           0        0.886705   -0.240981    0.581609
      5          6           0       -0.225975   -0.529501    1.604455
      6          6           0       -1.487087   -1.092797    0.941517
      7          6           0       -1.875463   -0.327933   -0.302572
      8          6           0       -1.014889    0.500623   -0.907539
      9          6           0        0.392246    0.802052   -0.448242
     10          6           0        0.490108    2.259210    0.061629
     11          6           0        1.924670    2.773607    0.210318
     12          6           0       -3.274780   -0.544065   -0.829653
     13          6           0       -4.352039    0.156618    0.015427
     14          1           0        3.787730    0.033721    0.283045
     15          1           0        4.800828   -1.021628   -0.705480
     16          1           0        4.039979   -1.649755    0.765578
     17          1           0        2.523050   -0.718505   -1.746902
     18          1           0        2.869472   -2.393003   -1.375263
     19          1           0        0.577606   -1.920153   -0.748245
     20          1           0        1.525645   -2.298962    0.684731
     21          1           0        1.732530    0.185519    1.132741
     22          1           0        0.141395   -1.224609    2.369659
     23          1           0       -0.485494    0.401110    2.124847
     24          1           0       -1.340475   -2.151027    0.675226
     25          1           0       -2.317171   -1.088883    1.660177
     26          1           0       -1.342325    1.030337   -1.803577
     27          1           0        1.042666    0.748554   -1.334051
     28          1           0       -0.050048    2.908488   -0.640342
     29          1           0       -0.042936    2.344202    1.017503
     30          1           0        2.466211    2.703572   -0.741194
     31          1           0        1.936572    3.823141    0.525011
     32          1           0        2.490298    2.202407    0.954645
     33          1           0       -3.337231   -0.181540   -1.862806
     34          1           0       -3.492031   -1.622090   -0.861048
     35          1           0       -4.184922    1.239201    0.028412
     36          1           0       -5.352847   -0.031315   -0.389510
     37          1           0       -4.342366   -0.194538    1.053234
 ---------------------------------------------------------------------

 SCF Done:  E(UB3LYP) =  -510.029932956     A.U. after   33 cycles
 SCF Done:  E(UB3LYP) =  -510.029932956     a.u. after    1 cycles

 The electronic state is 2-A.
 Alpha  occ. eigenvalues --  -10.07199 -10.07028 -10.07001 -10.06820 -10.06765
 Alpha  occ. eigenvalues --  -10.06742 -10.06710 -10.06384 -10.06223 -10.06197
 Alpha  occ. eigenvalues --  -10.06163 -10.05992 -10.05749  -0.75061  -0.70256
 Alpha  occ. eigenvalues --   -0.68418  -0.66446  -0.62912  -0.62120  -0.57773
 Alpha  occ. eigenvalues --   -0.54041  -0.52050  -0.50477  -0.48463  -0.45797
 Alpha  occ. eigenvalues --   -0.39744  -0.38460  -0.36765  -0.35864  -0.35313
 Alpha  occ. eigenvalues --   -0.34348  -0.33722  -0.32159  -0.31937  -0.30338
 Alpha  occ. eigenvalues --   -0.30065  -0.29105  -0.28270  -0.27434  -0.26563
 Alpha  occ. eigenvalues --   -0.26386  -0.25705  -0.24784  -0.24501  -0.24277
 Alpha  occ. eigenvalues --   -0.23491  -0.22659  -0.20590  -0.20257  -0.19544
 Alpha  occ. eigenvalues --   -0.13700   0.04426
 Alpha virt. eigenvalues --    0.06077   0.06742   0.07215   0.07948   0.08484
 Alpha virt. eigenvalues --    0.08742   0.09010   0.09777   0.10057   0.10983
 Alpha virt. eigenvalues --    0.11094   0.11210   0.11730   0.12140   0.12481

  Beta  occ. eigenvalues --  -10.07194 -10.07028 -10.06988 -10.06815 -10.06753
  Beta  occ. eigenvalues --  -10.06723 -10.06698 -10.06371 -10.06198 -10.06166
  Beta  occ. eigenvalues --  -10.06150 -10.05964 -10.05731  -0.75040  -0.70230
  Beta  occ. eigenvalues --   -0.68390  -0.66415  -0.62876  -0.62084  -0.57728
  Beta  occ. eigenvalues --   -0.53995  -0.51990  -0.50428  -0.48409  -0.45761
  Beta  occ. eigenvalues --   -0.39707  -0.38422  -0.36741  -0.35845  -0.35288
  Beta  occ. eigenvalues --   -0.34314  -0.33692  -0.32126  -0.31903  -0.30309
  Beta  occ. eigenvalues --   -0.30031  -0.29078  -0.28231  -0.27398  -0.26522
  Beta  occ. eigenvalues --   -0.26350  -0.25675  -0.24750  -0.24475  -0.24244
  Beta  occ. eigenvalues --   -0.23462  -0.22637  -0.20563  -0.20231  -0.19519
  Beta  occ. eigenvalues --   -0.13662
  Beta virt. eigenvalues --    0.06365   0.06950   0.07280   0.07732   0.08433
  Beta virt. eigenvalues --    0.08804   0.09216   0.09412   0.10017   0.10378
  Beta virt. eigenvalues --    0.11321   0.11491   0.11572   0.11951   0.12408

 Mulliken charges and spin densities:
               1          2
     1  C    0.870360  -1.483143
     2  C   -1.085650   0.907071
     3  C    0.557006  -1.282088
     4  C    0.145661   0.714558
     5  C    0.747581  -1.473522
     6  C   -1.702550   1.364937
     7  C   -0.014023   0.598460
     8  C    0.060002  -0.695824
     9  C    1.195375  -1.024316
    10  C   -0.682730   0.309448
    11  C    0.404957  -1.014317
    12  C   -0.565662   0.257097
    13  C    1.128693  -1.771663
    14  H    0.088425   0.048265
    15  H   -0.417268   0.556645
    16  H   -0.067680   0.192485
    17  H   -0.022468   0.141409
    18  H   -0.208901   0.370644
    19  H    0.135078   0.017649
    20  H   -0.128276   0.283884
    21  H    0.352854  -0.159364
    22  H   -0.211841   0.369991
    23  H    0.066559   0.054953
    24  H   -0.012521   0.187229
    25  H   -0.058993   0.239998
    26  H   -0.233329   0.412104
    27  H    0.116514   0.031418
    28  H   -0.044610   0.191440
    29  H    0.126405  -0.003412
    30  H   -0.039901   0.173779
    31  H   -0.278502   0.431263
    32  H   -0.253559   0.389051
    33  H   -0.282582   0.439762
    34  H   -0.122653   0.252692
    35  H   -0.079632   0.220894
    36  H   -0.331260   0.474685
    37  H   -0.150879   0.275834
 Sum of Mulliken charges =  -1.00000   1.00000

 Dipole moment (field-independent basis, Debye):
    X=              0.4226    Y=             -0.0403    Z=              0.4530  Tot=              0.6208
 Quadrupole moment (field-independent basis, Debye-Ang):
   XX=           -179.2021   YY=           -132.3188   ZZ=           -121.0383
   XY=              0.4555   XZ=             -1.3737   YZ=              1.4502

 Summary of Natural Population Analysis:

                                       Natural Population
                Natural  -----------------------------------------------
    Atom  No    Charge         Core      Valence    Rydberg      Total
 -----------------------------------------------------------------------
      C    1   -0.28706      0.99967     2.28257    0.00483     3.28706
      C    2   -0.18861      0.99964     2.18125    0.00772     3.18861
      C    3   -0.18808      0.99961     2.17960    0.00887     3.18808
      C    4   -0.10897      0.99958     2.09855    0.01084     3.10897
      C    5   -0.18465      0.99962     2.17532    0.00971     3.18465
      C    6   -0.20547      0.99958     2.19719    0.00870     3.20547
      C    7   -0.00410      0.99947     1.99432    0.01031     3.00410
      C    8   -0.09246      0.99944     2.08268    0.01034     3.09246
      C    9   -0.12370      0.99956     2.11244    0.01171     3.12370
      C   10   -0.18253      0.99961     2.17450    0.00842     3.18253
      C   11   -0.28553      0.99966     2.28110    0.00477     3.28553
      C   12   -0.19875      0.99960     2.18983    0.00932     3.19875
      C   13   -0.28072      0.99966     2.27642    0.00464     3.28072
      H   14    0.09681      0.00000     0.40198    0.00121     0.40319
      H   15    0.09886      0.00000     0.40010    0.00105     0.40114
      H   16    0.09515      0.00000     0.40377    0.00108     0.40485
      H   17    0.09264      0.00000     0.40598    0.00138     0.40736
      H   18    0.09451      0.00000     0.40454    0.00095     0.40549
      H   19    0.09985      0.00000     0.39858    0.00157     0.40015
      H   20    0.09432      0.00000     0.40450    0.00118     0.40568
      H   21    0.09940      0.00000     0.39840    0.00220     0.40060
      H   22    0.09833      0.00000     0.40068    0.00099     0.40167
      H   23    0.09620      0.00000     0.40243    0.00137     0.40380
      H   24    0.10126      0.00000     0.39739    0.00135     0.39874
      H   25    0.10303      0.00000     0.39580    0.00117     0.39697
      H   26    0.09459      0.00000     0.40415    0.00126     0.40541
      H   27    0.09932      0.00000     0.39841    0.00227     0.40068
      H   28    0.09560      0.00000     0.40334    0.00106     0.40440
      H   29    0.09427      0.00000     0.40447    0.00126     0.40573
      H   30    0.09606      0.00000     0.40270    0.00124     0.40394
      H   31    0.09854      0.00000     0.40061    0.00085     0.40146
      H   32    0.09594      0.00000     0.40283    0.00122     0.40406
      H   33    0.09856      0.00000     0.40019    0.00126     0.40144
      H   34    0.09644      0.00000     0.40218    0.00137     0.40356
      H   35    0.09717      0.00000     0.40167    0.00116     0.40283
      H   36    0.09825      0.00000     0.40038    0.00136     0.40175
      H   37    0.09554      0.00000     0.40330    0.00116     0.40446
 =======================================================================
   * Total *    0.00000     12.99470    37.86415    0.14114    51.00000

 Normal termination of Gaussian 16 at Wed Dec  9 23:23:24 2020.
