 Gaussian 16, Revision A.03,

 -----------------------------------------------------------
 # opt freq B3LYP/6-31G(d) empiricaldispersion=gd3bj scf=xqc
 -----------------------------------------------------------

 ------------------------------
 CID_14116451_JID_9342_neutraal
 ------------------------------
 Symbolic Z-matrix:
 Charge =  0 Multiplicity = 1

 SCF Done:  E(RB3LYP) =  -825.215055394     A.U. after   15 cycles
 SCF Done:  E(RB3LYP) =  -825.218968633     A.U. after   13 cycles
 SCF Done:  E(RB3LYP) =  -825.219135451     A.U. after   12 cycles
 SCF Done:  E(RB3LYP) =  -825.219783716     A.U. after   12 cycles
 SCF Done:  E(RB3LYP) =  -825.219976677     A.U. after   12 cycles
 SCF Done:  E(RB3LYP) =  -825.220128951     A.U. after   11 cycles
 SCF Done:  E(RB3LYP) =  -825.220242270     A.U. after   11 cycles
 SCF Done:  E(RB3LYP) =  -825.220329343     A.U. after   11 cycles
 SCF Done:  E(RB3LYP) =  -825.220368701     A.U. after   11 cycles
 SCF Done:  E(RB3LYP) =  -825.220383990     A.U. after   11 cycles
 SCF Done:  E(RB3LYP) =  -825.220399425     A.U. after    8 cycles
 SCF Done:  E(RB3LYP) =  -825.220399710     A.U. after    8 cycles
 SCF Done:  E(RB3LYP) =  -825.220399789     A.U. after    7 cycles
 SCF Done:  E(RB3LYP) =  -825.220399828     A.U. after    7 cycles
 Optimization completed.
    -- Stationary point found.
 Normal termination of Gaussian 16 at Sun Dec 13 12:38:55 2020.

 --------------------------------------------------------------------
 #N Geom=AllCheck Guess=TCheck SCRF=Check GenChk RB3LYP/6-31G(d) Freq
 --------------------------------------------------------------------

 Structure from the checkpoint file:  "JID_9342.chk"
 ------------------------------
 CID_14116451_JID_9342_neutraal
 ------------------------------
 Charge =  0 Multiplicity = 1

 SCF Done:  E(RB3LYP) =  -825.220399827     A.U. after    1 cycles

  Exact polarizability: 209.417 -17.622 174.433   3.622  -0.516 127.570
 Approx polarizability: 282.992 -39.437 294.386  12.027  -8.528 215.351

                      1                      2                      3
                      A                      A                      A
 Frequencies --     17.5663                31.7601                34.6193
 Red. masses --      5.1225                 4.7895                 4.0591
 Frc consts  --      0.0009                 0.0028                 0.0029
 IR Inten    --      0.0354                 0.5279                 0.5611

                      4                      5                      6
                      A                      A                      A
 Frequencies --     53.8070                84.4938               104.5457
 Red. masses --      5.0058                 5.4420                 5.3300
 Frc consts  --      0.0085                 0.0229                 0.0343
 IR Inten    --      1.0263                 0.7346                 1.9892

                      7                      8                      9
                      A                      A                      A
 Frequencies --    126.4398               144.2289               196.8334
 Red. masses --      4.4664                 4.2353                 4.8598
 Frc consts  --      0.0421                 0.0519                 0.1109
 IR Inten    --      0.4902                 3.0841                 0.6459

                     10                     11                     12
                      A                      A                      A
 Frequencies --    223.5367               228.1348               273.2699
 Red. masses --      4.9262                 4.3993                 3.7754
 Frc consts  --      0.1450                 0.1349                 0.1661
 IR Inten    --      1.8041                 4.9651                 7.2916

                     13                     14                     15
                      A                      A                      A
 Frequencies --    329.2832               350.8016               361.7592
 Red. masses --      3.4610                 2.1067                 1.2485
 Frc consts  --      0.2211                 0.1527                 0.0963
 IR Inten    --     23.5885                 1.9706               102.1548

                     16                     17                     18
                      A                      A                      A
 Frequencies --    376.9802               409.1591               418.7884
 Red. masses --      6.2844                 4.2618                 2.8782
 Frc consts  --      0.5262                 0.4204                 0.2974
 IR Inten    --      2.8373                12.0758                 3.2489

                     19                     20                     21
                      A                      A                      A
 Frequencies --    419.8467               456.8523               508.8722
 Red. masses --      3.0499                 4.1852                 2.8694
 Frc consts  --      0.3168                 0.5147                 0.4378
 IR Inten    --      1.4391                 0.8913                 1.4262

                     22                     23                     24
                      A                      A                      A
 Frequencies --    556.5145               591.9630               603.3175
 Red. masses --      3.4922                 4.1707                 4.8730
 Frc consts  --      0.6372                 0.8611                 1.0450
 IR Inten    --      7.8811                 8.3698                49.3599

                     25                     26                     27
                      A                      A                      A
 Frequencies --    634.8385               635.3879               678.5629
 Red. masses --      6.3971                 6.3502                 3.9051
 Frc consts  --      1.5190                 1.5105                 1.0594
 IR Inten    --      0.2722                 0.8434                 8.8569

                     28                     29                     30
                      A                      A                      A
 Frequencies --    686.4546               715.5075               718.0675
 Red. masses --      2.6022                 1.5303                 1.8409
 Frc consts  --      0.7225                 0.4616                 0.5593
 IR Inten    --     14.1066                30.0486                32.8027

                     31                     32                     33
                      A                      A                      A
 Frequencies --    751.0014               768.0278               769.8323
 Red. masses --      4.4799                 1.6937                 1.7310
 Frc consts  --      1.4887                 0.5886                 0.6044
 IR Inten    --      5.3789                42.7322                81.6447

                     34                     35                     36
                      A                      A                      A
 Frequencies --    810.4359               822.5929               865.4705
 Red. masses --      2.8652                 3.1268                 1.2633
 Frc consts  --      1.1088                 1.2466                 0.5575
 IR Inten    --      7.2568                 6.5303                 0.3587

                     37                     38                     39
                      A                      A                      A
 Frequencies --    867.0868               874.3343               911.2906
 Red. masses --      1.2491                 2.5370                 1.9996
 Frc consts  --      0.5533                 1.1427                 0.9784
 IR Inten    --      2.1497                 4.9471                48.8222

                     40                     41                     42
                      A                      A                      A
 Frequencies --    934.0638               945.6961               972.9488
 Red. masses --      1.4611                 1.4353                 1.3497
 Frc consts  --      0.7511                 0.7563                 0.7528
 IR Inten    --      1.3644                 3.6558                 1.0934

                     43                     44                     45
                      A                      A                      A
 Frequencies --    976.5650               999.3970               999.7289
 Red. masses --      1.3454                 1.2506                 1.2579
 Frc consts  --      0.7560                 0.7359                 0.7407
 IR Inten    --      1.6142                 0.5429                 0.3522

                     46                     47                     48
                      A                      A                      A
 Frequencies --   1016.0070              1022.5467              1023.3833
 Red. masses --      2.9318                 5.2156                 6.1215
 Frc consts  --      1.7831                 3.2131                 3.7773
 IR Inten    --     19.2870                 1.1107                 1.0803

                     49                     50                     51
                      A                      A                      A
 Frequencies --   1050.1293              1058.9632              1061.5871
 Red. masses --      2.0401                 2.2640                 2.0662
 Frc consts  --      1.3255                 1.4958                 1.3719
 IR Inten    --     15.7460                 3.1487                 6.4964

                     52                     53                     54
                      A                      A                      A
 Frequencies --   1108.4810              1112.6463              1117.1332
 Red. masses --      2.3105                 1.6824                 1.9319
 Frc consts  --      1.6727                 1.2271                 1.4205
 IR Inten    --     32.3557                 2.4931                 1.7170

                     55                     56                     57
                      A                      A                      A
 Frequencies --   1138.5395              1186.4827              1194.3961
 Red. masses --      2.6390                 2.7167                 1.1063
 Frc consts  --      2.0155                 2.2533                 0.9299
 IR Inten    --      7.3467                17.3955                 0.1596

                     58                     59                     60
                      A                      A                      A
 Frequencies --   1195.1505              1212.2679              1213.7974
 Red. masses --      1.1020                 1.1978                 1.2862
 Frc consts  --      0.9274                 1.0371                 1.1165
 IR Inten    --      0.3934                 9.4860                 1.6125

                     61                     62                     63
                      A                      A                      A
 Frequencies --   1218.2999              1242.4912              1260.5477
 Red. masses --      1.5329                 1.4073                 1.2034
 Frc consts  --      1.3405                 1.2801                 1.1266
 IR Inten    --      6.2142                55.7643                19.0368

                     64                     65                     66
                      A                      A                      A
 Frequencies --   1311.3506              1344.9935              1348.7180
 Red. masses --      1.2996                 2.0108                 1.9748
 Frc consts  --      1.3167                 2.1432                 2.1165
 IR Inten    --     29.7267                19.9493                 3.6924

                     67                     68                     69
                      A                      A                      A
 Frequencies --   1367.4582              1369.6833              1381.2945
 Red. masses --      2.5746                 2.0757                 1.6776
 Frc consts  --      2.8365                 2.2943                 1.8858
 IR Inten    --      5.6405                 1.7471               167.0442

                     70                     71                     72
                      A                      A                      A
 Frequencies --   1397.5239              1410.0259              1421.4778
 Red. masses --      1.5798                 1.4032                 2.0640
 Frc consts  --      1.8179                 1.6437                 2.4572
 IR Inten    --     22.5006                 2.6351               124.1003

                     73                     74                     75
                      A                      A                      A
 Frequencies --   1435.2190              1494.5371              1495.1760
 Red. masses --      1.4634                 1.1372                 2.0340
 Frc consts  --      1.7760                 1.4966                 2.6790
 IR Inten    --     90.9990                 4.9028                 6.9816

                     76                     77                     78
                      A                      A                      A
 Frequencies --   1503.4998              1514.7311              1543.6244
 Red. masses --      2.1335                 1.5698                 1.4759
 Frc consts  --      2.8416                 2.1221                 2.0720
 IR Inten    --     25.5946                81.9304                23.7371

                     79                     80                     81
                      A                      A                      A
 Frequencies --   1546.6670              1548.2607              1641.8291
 Red. masses --      1.9111                 1.6188                 5.5771
 Frc consts  --      2.6935                 2.2862                 8.8576
 IR Inten    --      2.5901                11.6727                 6.5891

                     82                     83                     84
                      A                      A                      A
 Frequencies --   1647.3785              1665.6460              1667.9358
 Red. masses --      5.4949                 5.5668                 5.5307
 Frc consts  --      8.7861                 9.0996                 9.0654
 IR Inten    --      0.2323                 5.8394                 1.3658

                     85                     86                     87
                      A                      A                      A
 Frequencies --   1759.2240              2997.2956              3039.3140
 Red. masses --      8.1351                 1.0841                 1.0696
 Frc consts  --     14.8339                 5.7384                 5.8212
 IR Inten    --    394.7527                53.3124                28.1030

                     88                     89                     90
                      A                      A                      A
 Frequencies --   3059.8026              3104.4818              3110.8324
 Red. masses --      1.0607                 1.1023                 1.0961
 Frc consts  --      5.8509                 6.2595                 6.2497
 IR Inten    --     24.1266                22.4529                25.1553

                     91                     92                     93
                      A                      A                      A
 Frequencies --   3173.8078              3183.4227              3187.8885
 Red. masses --      1.0874                 1.0851                 1.0866
 Frc consts  --      6.4535                 6.4793                 6.5060
 IR Inten    --      8.8145                 0.0500                 0.5285

                     94                     95                     96
                      A                      A                      A
 Frequencies --   3194.1043              3197.7709              3205.3301
 Red. masses --      1.0890                 1.0910                 1.0931
 Frc consts  --      6.5461                 6.5732                 6.6168
 IR Inten    --     12.3279                20.7042                34.3816

                     97                     98                     99
                      A                      A                      A
 Frequencies --   3208.8561              3214.8446              3215.7817
 Red. masses --      1.0938                 1.0945                 1.0963
 Frc consts  --      6.6358                 6.6651                 6.6794
 IR Inten    --     23.5688                14.5602                10.4559

                    100                    101                    102
                      A                      A                      A
 Frequencies --   3224.2974              3553.5645              3742.8734
 Red. masses --      1.0936                 1.0763                 1.0661
 Frc consts  --      6.6985                 8.0076                 8.7997
 IR Inten    --      6.4176               177.6074                19.3059

 - Thermochemistry -
 -------------------
 Temperature   298.150 Kelvin.  Pressure   1.00000 Atm.
 Atom     1 has atomic number  6 and mass  12.00000

 Molecular mass:   255.12593 amu.
 Principal axes and moments of inertia in atomic units:
                           1         2         3
     Eigenvalues --  2529.328519761.29579**********
           X            1.00000   0.00251  -0.00149
           Y           -0.00248   0.99976   0.02170
           Z            0.00154  -0.02170   0.99976
 This molecule is an asymmetric top.
 Rotational symmetry number  1.
 Warning -- assumption of classical behavior for rotation
           may cause significant error
 Rotational temperatures (Kelvin)      0.03424     0.00887     0.00792
 Rotational constants (GHZ):           0.71353     0.18489     0.16497
 Zero-point vibrational energy     790157.6 (Joules/Mol)
                                  188.85220 (Kcal/Mol)
 Warning -- explicit consideration of  24 degrees of freedom as
           vibrations may cause significant error
 Vibrational temperatures:     25.27    45.70    49.81    77.42   121.57
          (Kelvin)            150.42   181.92   207.51   283.20   321.62
                              328.24   393.17   473.77   504.73   520.49
                              542.39   588.69   602.54   604.07   657.31
                              732.15   800.70   851.70   868.04   913.39
                              914.18   976.30   987.66  1029.46  1033.14
                             1080.52  1105.02  1107.62  1166.04  1183.53
                             1245.22  1247.54  1257.97  1311.14  1343.91
                             1360.65  1399.86  1405.06  1437.91  1438.39
                             1461.81  1471.22  1472.42  1510.90  1523.61
                             1527.39  1594.86  1600.85  1607.31  1638.10
                             1707.08  1718.47  1719.56  1744.18  1746.38
                             1752.86  1787.67  1813.65  1886.74  1935.15
                             1940.50  1967.47  1970.67  1987.37  2010.73
                             2028.71  2045.19  2064.96  2150.31  2151.22
                             2163.20  2179.36  2220.93  2225.31  2227.60
                             2362.23  2370.21  2396.49  2399.79  2531.13
                             4312.44  4372.89  4402.37  4466.66  4475.79
                             4566.40  4580.24  4586.66  4595.60  4600.88
                             4611.76  4616.83  4625.44  4626.79  4639.04
                             5112.79  5385.16

 Zero-point correction=                           0.300955 (Hartree/Particle)
 Thermal correction to Energy=                    0.317615
 Thermal correction to Enthalpy=                  0.318559
 Thermal correction to Gibbs Free Energy=         0.254130
 Sum of electronic and zero-point Energies=           -824.919445
 Sum of electronic and thermal Energies=              -824.902785
 Sum of electronic and thermal Enthalpies=            -824.901841
 Sum of electronic and thermal Free Energies=         -824.966270

                     E (Thermal)             CV                S
                      KCal/Mol        Cal/Mol-Kelvin    Cal/Mol-Kelvin
 Total                  199.306             64.830            135.602
 Electronic               0.000              0.000              0.000
 Translational            0.889              2.981             42.510
 Rotational               0.889              2.981             33.957
 Vibrational            197.529             58.868             59.135
 Vibration     1          0.593              1.986              6.892
 Vibration     2          0.594              1.983              5.716
 Vibration     3          0.594              1.983              5.545
 Vibration     4          0.596              1.976              4.672
 Vibration     5          0.601              1.960              3.784
 Vibration     6          0.605              1.946              3.368
 Vibration     7          0.611              1.927              2.999
 Vibration     8          0.616              1.909              2.747
 Vibration     9          0.636              1.844              2.162
 Vibration    10          0.649              1.805              1.930
 Vibration    11          0.651              1.798              1.894
 Vibration    12          0.676              1.723              1.575
 Vibration    13          0.712              1.617              1.264
 Vibration    14          0.728              1.574              1.163
 Vibration    15          0.736              1.551              1.115
 Vibration    16          0.748              1.519              1.051
 Vibration    17          0.774              1.450              0.930
 Vibration    18          0.782              1.429              0.896
 Vibration    19          0.783              1.427              0.892
 Vibration    20          0.815              1.346              0.775
 Vibration    21          0.864              1.230              0.636
 Vibration    22          0.912              1.125              0.531
 Vibration    23          0.949              1.049              0.464
 Vibration    24          0.962              1.025              0.444

 Optimization completed.
    -- Stationary point found.
 Normal termination of Gaussian 16 at Sun Dec 13 12:56:00 2020.

 ----------------------------------------------------------------------
 # B3LYP/6-311++G(d,p) empiricaldispersion=gd3bj scf=xqc pop=npa geom=c
 heck
 ----------------------------------------------------------------------

 --------------------------------------
 CID_14116451_JID_9342_Energie_neutraal
 --------------------------------------
 Structure from the checkpoint file:  "JID_9342.chk"
 Charge =  0 Multiplicity = 1

 SCF Done:  E(RB3LYP) =  -825.454548236     A.U. after   15 cycles
 Normal termination of Gaussian 16 at Sun Dec 13 13:03:44 2020.

 ----------------------------------------------------------------------
 # B3LYP/6-311++G(d,p) empiricaldispersion=gd3bj scf=xqc pop=npa geom=c
 heck
 ----------------------------------------------------------------------

 ------------------------------------
 CID_14116451_JID_9342_Energie_kation
 ------------------------------------
 Structure from the checkpoint file:  "JID_9342.chk"
 Charge =  1 Multiplicity = 2

 SCF Done:  E(UB3LYP) =  -825.150215946     A.U. after   33 cycles
 SCF Done:  E(UB3LYP) =  -825.150215946     a.u. after    1 cycles
 Normal termination of Gaussian 16 at Sun Dec 13 13:27:55 2020.
 Gaussian 16:  ES64L-G16RevA.03 25-Dec-2016

 ----------------------------------------------------------------------
 # B3LYP/6-311++G(d,p) empiricaldispersion=gd3bj scf=xqc pop=npa geom=c
 heck
 ----------------------------------------------------------------------

 -----------------------------------
 CID_14116451_JID_9342_Energie_anion
 -----------------------------------
 Structure from the checkpoint file:  "JID_9342.chk"
 Charge = -1 Multiplicity = 2

                         Standard orientation:
 ---------------------------------------------------------------------
 Center     Atomic      Atomic             Coordinates (Angstroms)
 Number     Number       Type             X           Y           Z
 ---------------------------------------------------------------------
      1          6           0       -4.218250    2.064575    0.757482
      2          6           0       -3.243172    1.412734    1.513442
      3          6           0       -2.626824    0.261275    1.023016
      4          6           0       -2.980741   -0.252325   -0.230978
      5          6           0       -3.963007    0.404626   -0.979913
      6          6           0       -4.576610    1.557976   -0.493019
      7          6           0       -2.295680   -1.481443   -0.797607
      8          6           0       -1.019509   -1.150186   -1.591724
      9          6           0        0.028870   -0.317076   -0.848576
     10          7           0        0.558420   -1.027460    0.313562
     11          6           0        1.864883   -1.134946    0.711533
     12          8           0        2.231323   -2.045759    1.451047
     13          6           0        2.838693   -0.089999    0.246505
     14          6           0        4.160800   -0.492378    0.019743
     15          6           0        5.122851    0.435823   -0.368589
     16          6           0        4.779528    1.783143   -0.506900
     17          6           0        3.471325    2.196540   -0.253032
     18          6           0        2.503052    1.263322    0.117413
     19          8           0       -1.918212   -2.413117    0.223961
     20          1           0       -4.698816    2.959890    1.141358
     21          1           0       -2.958997    1.801228    2.487398
     22          1           0       -1.860022   -0.237394    1.607556
     23          1           0       -4.251218    0.006002   -1.950263
     24          1           0       -5.339827    2.055495   -1.084812
     25          1           0       -2.992394   -1.973214   -1.494131
     26          1           0       -0.574800   -2.096486   -1.921754
     27          1           0       -1.321470   -0.595596   -2.488057
     28          1           0        0.848735   -0.087125   -1.534434
     29          1           0       -0.419665    0.640064   -0.552260
     30          1           0       -0.031364   -1.775900    0.664973
     31          1           0        4.413774   -1.537702    0.162145
     32          1           0        6.143142    0.112471   -0.554902
     33          1           0        5.531730    2.509273   -0.802625
     34          1           0        3.204669    3.246284   -0.338696
     35          1           0        1.491692    1.593002    0.332130
     36          1           0       -2.676266   -2.527022    0.818603
 ---------------------------------------------------------------------

 SCF Done:  E(UB3LYP) =  -825.449704423     A.U. after   33 cycles
 SCF Done:  E(UB3LYP) =  -825.449704425     a.u. after    2 cycles

 The electronic state is 2-A.
 Alpha  occ. eigenvalues --  -19.04705 -18.96929 -14.21796 -10.15479 -10.14538
 Alpha  occ. eigenvalues --  -10.11078 -10.09657 -10.09082 -10.08948 -10.08899
 Alpha  occ. eigenvalues --  -10.08844 -10.08843 -10.08810 -10.07738 -10.07580
 Alpha  occ. eigenvalues --  -10.07457 -10.07221 -10.07202 -10.07147  -0.94969
 Alpha  occ. eigenvalues --   -0.92094  -0.81161  -0.77421  -0.75657  -0.70364
 Alpha  occ. eigenvalues --   -0.66313  -0.66177  -0.65405  -0.64861  -0.59471
 Alpha  occ. eigenvalues --   -0.53543  -0.52981  -0.52322  -0.50881  -0.49211
 Alpha  occ. eigenvalues --   -0.47251  -0.44924  -0.42617  -0.41441  -0.39619
 Alpha  occ. eigenvalues --   -0.38397  -0.37649  -0.36669  -0.36104  -0.35207
 Alpha  occ. eigenvalues --   -0.34302  -0.33717  -0.33525  -0.32556  -0.31581
 Alpha  occ. eigenvalues --   -0.31288  -0.29726  -0.29031  -0.28177  -0.28041
 Alpha  occ. eigenvalues --   -0.27391  -0.26247  -0.25925  -0.25238  -0.24418
 Alpha  occ. eigenvalues --   -0.23947  -0.20671  -0.17149  -0.16468  -0.16282
 Alpha  occ. eigenvalues --   -0.15997  -0.14899  -0.13842   0.03761
 Alpha virt. eigenvalues --    0.05043   0.06222   0.06500   0.06772   0.06871
 Alpha virt. eigenvalues --    0.07147   0.08053   0.08315   0.08531   0.08967
 Alpha virt. eigenvalues --    0.09220   0.10013   0.10559   0.11526   0.11993

  Beta  occ. eigenvalues --  -19.04694 -18.96837 -14.21775 -10.15413 -10.14523
  Beta  occ. eigenvalues --  -10.11073 -10.09655 -10.09069 -10.08932 -10.08882
  Beta  occ. eigenvalues --  -10.08836 -10.08822 -10.08797 -10.07756 -10.07578
  Beta  occ. eigenvalues --  -10.07393 -10.07132 -10.07055 -10.07055  -0.94940
  Beta  occ. eigenvalues --   -0.91926  -0.81083  -0.77389  -0.75479  -0.70325
  Beta  occ. eigenvalues --   -0.66249  -0.66103  -0.65185  -0.64723  -0.59425
  Beta  occ. eigenvalues --   -0.53298  -0.52895  -0.52264  -0.50819  -0.49169
  Beta  occ. eigenvalues --   -0.47142  -0.44878  -0.42547  -0.41376  -0.39571
  Beta  occ. eigenvalues --   -0.38291  -0.37581  -0.36611  -0.36047  -0.35116
  Beta  occ. eigenvalues --   -0.34249  -0.33667  -0.33402  -0.32526  -0.31504
  Beta  occ. eigenvalues --   -0.31218  -0.29593  -0.28971  -0.28033  -0.27849
  Beta  occ. eigenvalues --   -0.27338  -0.26066  -0.25747  -0.25102  -0.24316
  Beta  occ. eigenvalues --   -0.23918  -0.20640  -0.17104  -0.16422  -0.15837
  Beta  occ. eigenvalues --   -0.15491  -0.14625  -0.13485
  Beta virt. eigenvalues --    0.05940   0.06541   0.06698   0.06759   0.06992
  Beta virt. eigenvalues --    0.07050   0.07700   0.08174   0.08342   0.08715
  Beta virt. eigenvalues --    0.09380   0.09565   0.10127   0.10647   0.11661

 Mulliken charges and spin densities:
               1          2
     1  C    1.147713  -1.477012
     2  C   -0.619530   0.262218
     3  C   -0.971420   0.638527
     4  C   -0.615967   1.188307
     5  C   -1.076366   0.926923
     6  C    1.140764  -1.434975
     7  C    2.297384  -2.300072
     8  C   -0.670455  -0.199507
     9  C    0.054886  -0.281843
    10  N   -0.069471   0.008671
    11  C   -0.474395  -0.114244
    12  O   -0.343751   0.031435
    13  C    0.442250   0.272966
    14  C   -0.194300   0.114560
    15  C   -0.222147  -0.019064
    16  C   -0.309426   0.092760
    17  C   -0.061328  -0.095150
    18  C   -0.012535   0.040095
    19  O   -0.240691   0.003587
    20  H   -0.253148   0.413336
    21  H   -0.122239   0.303202
    22  H    0.130645   0.048821
    23  H   -0.629987   0.799730
    24  H   -0.753910   0.944222
    25  H   -0.366505   0.588242
    26  H    0.207204  -0.002653
    27  H   -0.028507   0.198384
    28  H    0.172281   0.023050
    29  H    0.255255  -0.145862
    30  H    0.432451  -0.071880
    31  H    0.185413   0.006094
    32  H    0.132761   0.002527
    33  H    0.113642  -0.003328
    34  H    0.101918   0.055293
    35  H    0.116404   0.023080
    36  H    0.105109   0.159562
 Sum of Mulliken charges =  -1.00000   1.00000

 Dipole moment (field-independent basis, Debye):
    X=              4.3168    Y=              0.7733    Z=             -0.1671  Tot=              4.3887
 Quadrupole moment (field-independent basis, Debye-Ang):
   XX=           -211.7670   YY=           -152.1695   ZZ=           -144.9389
   XY=             14.4090   XZ=            -19.6609   YZ=              3.7413

 Summary of Natural Population Analysis:

                                       Natural Population
                Natural  -----------------------------------------------
    Atom  No    Charge         Core      Valence    Rydberg      Total
 -----------------------------------------------------------------------
      C    1   -0.10279      0.99956     2.09278    0.01045     3.10279
      C    2   -0.09737      0.99956     2.08848    0.00933     3.09737
      C    3   -0.10672      0.99950     2.09697    0.01025     3.10672
      C    4   -0.03735      0.99948     2.02520    0.01266     3.03735
      C    5   -0.09608      0.99950     2.08580    0.01077     3.09608
      C    6   -0.09588      0.99956     2.08581    0.01051     3.09588
      C    7    0.05930      0.99951     1.92616    0.01504     2.94070
      C    8   -0.19535      0.99960     2.18614    0.00961     3.19535
      C    9   -0.09224      0.99961     2.08353    0.00910     3.09224
      N   10   -0.32767      0.99967     2.81936    0.00865     3.82767
      C   11    0.34529      0.99962     1.63290    0.02219     2.65471
      O   12   -0.31900      0.99988     3.31381    0.00531     4.31900
      C   13   -0.04812      0.99946     2.03900    0.00966     3.04812
      C   14   -0.07524      0.99954     2.06703    0.00867     3.07524
      C   15   -0.11007      0.99957     2.10139    0.00910     3.11007
      C   16   -0.07412      0.99957     2.06542    0.00912     3.07412
      C   17   -0.11279      0.99957     2.10354    0.00967     3.11279
      C   18   -0.08336      0.99954     2.07603    0.00780     3.08336
      O   19   -0.37720      0.99989     3.37104    0.00626     4.37720
      H   20    0.10208      0.00000     0.39679    0.00113     0.39792
      H   21    0.10095      0.00000     0.39822    0.00083     0.39905
      H   22    0.10897      0.00000     0.38907    0.00196     0.39103
      H   23    0.10448      0.00000     0.39313    0.00239     0.39552
      H   24    0.10427      0.00000     0.39367    0.00206     0.39573
      H   25    0.08787      0.00000     0.40954    0.00259     0.41213
      H   26    0.10414      0.00000     0.39475    0.00111     0.39586
      H   27    0.10541      0.00000     0.39377    0.00082     0.39459
      H   28    0.10459      0.00000     0.39441    0.00100     0.39541
      H   29    0.09247      0.00000     0.40611    0.00142     0.40753
      H   30    0.20607      0.00000     0.29089    0.00304     0.29393
      H   31    0.10662      0.00000     0.39234    0.00105     0.39338
      H   32    0.09460      0.00000     0.40442    0.00098     0.40540
      H   33    0.09257      0.00000     0.40646    0.00097     0.40743
      H   34    0.09689      0.00000     0.40215    0.00095     0.40311
      H   35    0.10040      0.00000     0.39780    0.00180     0.39960
      H   36    0.23437      0.00000     0.26305    0.00258     0.26563
 =======================================================================
   * Total *    0.00000     18.99220    48.78697    0.22083    68.00000

 Normal termination of Gaussian 16 at Sun Dec 13 14:59:29 2020.
