 Gaussian 16, Revision A.03,

 -----------------------------------------------------------
 # opt freq B3LYP/6-31G(d) empiricaldispersion=gd3bj scf=xqc
 -----------------------------------------------------------

 ------------------------------
 CID_81907821_JID_3487_neutraal
 ------------------------------
 Symbolic Z-matrix:
 Charge =  0 Multiplicity = 1

 SCF Done:  E(RB3LYP) =  -595.142808065     A.U. after   13 cycles
 SCF Done:  E(RB3LYP) =  -595.148287613     A.U. after   12 cycles
 SCF Done:  E(RB3LYP) =  -595.148968255     A.U. after   12 cycles
 SCF Done:  E(RB3LYP) =  -595.149553786     A.U. after   11 cycles
 SCF Done:  E(RB3LYP) =  -595.149813743     A.U. after   11 cycles
 SCF Done:  E(RB3LYP) =  -595.149950206     A.U. after   10 cycles
 SCF Done:  E(RB3LYP) =  -595.150042298     A.U. after   10 cycles
 SCF Done:  E(RB3LYP) =  -595.150061652     A.U. after   11 cycles
 SCF Done:  E(RB3LYP) =  -595.150124156     A.U. after   10 cycles
 SCF Done:  E(RB3LYP) =  -595.150149701     A.U. after    9 cycles
 SCF Done:  E(RB3LYP) =  -595.150171935     A.U. after   10 cycles
 SCF Done:  E(RB3LYP) =  -595.150176533     A.U. after    9 cycles
 SCF Done:  E(RB3LYP) =  -595.150178456     A.U. after    8 cycles
 SCF Done:  E(RB3LYP) =  -595.150179825     A.U. after    8 cycles
 SCF Done:  E(RB3LYP) =  -595.150180101     A.U. after    7 cycles
 SCF Done:  E(RB3LYP) =  -595.150180169     A.U. after    6 cycles
 Optimization completed.
    -- Stationary point found.
 Normal termination of Gaussian 16 at Wed Dec  9 23:32:15 2020.

 --------------------------------------------------------------------
 #N Geom=AllCheck Guess=TCheck SCRF=Check GenChk RB3LYP/6-31G(d) Freq
 --------------------------------------------------------------------

 Structure from the checkpoint file:  "JID_3487.chk"
 ------------------------------
 CID_81907821_JID_3487_neutraal
 ------------------------------
 Charge =  0 Multiplicity = 1

 SCF Done:  E(RB3LYP) =  -595.150180169     A.U. after    1 cycles

  Exact polarizability: 124.120   2.977 123.048  -4.030   3.496 103.450
 Approx polarizability: 158.815   3.625 167.265 -14.272   8.861 161.393

                      1                      2                      3
                      A                      A                      A
 Frequencies --     35.5995                70.0288                79.6785
 Red. masses --      3.3293                 4.0000                 3.0495
 Frc consts  --      0.0025                 0.0116                 0.0114
 IR Inten    --      0.1949                 3.3297                 2.9533

                      4                      5                      6
                      A                      A                      A
 Frequencies --    105.9267               122.2358               151.7582
 Red. masses --      3.2622                 3.3362                 3.3051
 Frc consts  --      0.0216                 0.0294                 0.0448
 IR Inten    --      1.2009                 0.6329                 3.7753

                      7                      8                      9
                      A                      A                      A
 Frequencies --    161.1002               176.5816               208.9338
 Red. masses --      3.1782                 1.0860                 2.6672
 Frc consts  --      0.0486                 0.0200                 0.0686
 IR Inten    --      3.6925                 0.9594                 3.5000

                     10                     11                     12
                      A                      A                      A
 Frequencies --    225.6357               234.5650               241.6533
 Red. masses --      1.6049                 1.1092                 1.7062
 Frc consts  --      0.0481                 0.0360                 0.0587
 IR Inten    --      0.2915                16.9355                 2.7758

                     13                     14                     15
                      A                      A                      A
 Frequencies --    266.2948               278.4664               293.9315
 Red. masses --      1.3226                 1.6145                 1.2293
 Frc consts  --      0.0553                 0.0738                 0.0626
 IR Inten    --      7.0836                 5.9024                 9.0213

                     16                     17                     18
                      A                      A                      A
 Frequencies --    314.1205               328.3482               344.3732
 Red. masses --      2.3996                 2.4322                 2.4397
 Frc consts  --      0.1395                 0.1545                 0.1705
 IR Inten    --      2.8781                 2.9940                 4.5490

                     19                     20                     21
                      A                      A                      A
 Frequencies --    382.6378               414.3681               440.7060
 Red. masses --      2.4249                 2.1432                 2.2127
 Frc consts  --      0.2092                 0.2168                 0.2532
 IR Inten    --      0.8329                 7.1212                 2.5260

                     22                     23                     24
                      A                      A                      A
 Frequencies --    512.8710               518.3728               534.0585
 Red. masses --      3.0027                 2.4947                 2.8580
 Frc consts  --      0.4654                 0.3950                 0.4803
 IR Inten    --      4.1861                31.9139                23.1222

                     25                     26                     27
                      A                      A                      A
 Frequencies --    617.1718               699.6242               743.0135
 Red. masses --      3.8339                 1.6925                 3.2050
 Frc consts  --      0.8604                 0.4881                 1.0425
 IR Inten    --     14.3846                38.7439                 3.9327

                     28                     29                     30
                      A                      A                      A
 Frequencies --    760.5818               799.9755               821.1149
 Red. masses --      3.5757                 6.1806                 1.2320
 Frc consts  --      1.2187                 2.3304                 0.4894
 IR Inten    --      8.1569                26.4761                 4.7587

                     31                     32                     33
                      A                      A                      A
 Frequencies --    866.7924               875.7323               908.2929
 Red. masses --      1.2950                 2.0740                 2.0309
 Frc consts  --      0.5733                 0.9371                 0.9872
 IR Inten    --     80.2166                 9.7925                 3.4571

                     34                     35                     36
                      A                      A                      A
 Frequencies --    938.0152               963.2646               970.9277
 Red. masses --      2.0324                 1.4309                 1.7048
 Frc consts  --      1.0536                 0.7823                 0.9469
 IR Inten    --     13.5815                 1.5115                22.0483

                     37                     38                     39
                      A                      A                      A
 Frequencies --   1030.5209              1043.2484              1056.1272
 Red. masses --      1.3463                 2.3508                 1.5994
 Frc consts  --      0.8424                 1.5074                 1.0511
 IR Inten    --      4.3565                 2.9172                11.7105

                     40                     41                     42
                      A                      A                      A
 Frequencies --   1091.1476              1116.2250              1127.4358
 Red. masses --      2.5359                 1.8898                 1.7859
 Frc consts  --      1.7789                 1.3873                 1.3375
 IR Inten    --     11.6761                15.5553                30.9591

                     43                     44                     45
                      A                      A                      A
 Frequencies --   1134.1013              1154.9995              1177.7323
 Red. masses --      1.5803                 1.4781                 1.6718
 Frc consts  --      1.1976                 1.1618                 1.3663
 IR Inten    --      7.9624                13.2939                46.5698

                     46                     47                     48
                      A                      A                      A
 Frequencies --   1191.0380              1247.2744              1262.6879
 Red. masses --      2.2060                 2.4812                 2.8471
 Frc consts  --      1.8437                 2.2742                 2.6745
 IR Inten    --     31.7853                 4.0639                44.0724

                     49                     50                     51
                      A                      A                      A
 Frequencies --   1275.1464              1281.6956              1354.1036
 Red. masses --      1.9008                 2.5771                 1.7783
 Frc consts  --      1.8210                 2.4943                 1.9211
 IR Inten    --      0.8687                12.9317               110.8547

                     52                     53                     54
                      A                      A                      A
 Frequencies --   1361.5750              1368.8172              1408.4570
 Red. masses --      1.2834                 1.2552                 1.3954
 Frc consts  --      1.4018                 1.3856                 1.6309
 IR Inten    --      8.5856                19.8943                81.6179

                     55                     56                     57
                      A                      A                      A
 Frequencies --   1418.8814              1426.6645              1430.1165
 Red. masses --      1.2813                 1.2379                 1.3411
 Frc consts  --      1.5199                 1.4845                 1.6160
 IR Inten    --     13.8066                 5.2961                52.6184

                     58                     59                     60
                      A                      A                      A
 Frequencies --   1437.8081              1454.1771              1462.6336
 Red. masses --      1.3530                 1.3785                 1.2907
 Frc consts  --      1.6480                 1.7175                 1.6268
 IR Inten    --      4.4855                31.2846                28.4209

                     61                     62                     63
                      A                      A                      A
 Frequencies --   1465.4284              1498.6916              1512.0786
 Red. masses --      1.4384                 1.2017                 1.1019
 Frc consts  --      1.8199                 1.5902                 1.4843
 IR Inten    --     33.1073                25.6796                 3.5416

                     64                     65                     66
                      A                      A                      A
 Frequencies --   1517.4298              1519.9065              1524.2523
 Red. masses --      1.0461                 1.0858                 1.0533
 Frc consts  --      1.4192                 1.4778                 1.4419
 IR Inten    --      9.1510                 4.3725                 3.6958

                     67                     68                     69
                      A                      A                      A
 Frequencies --   1529.2137              1532.3900              1538.0615
 Red. masses --      1.0672                 1.0667                 1.0828
 Frc consts  --      1.4704                 1.4758                 1.5092
 IR Inten    --      3.6689                 7.9100                13.3796

                     70                     71                     72
                      A                      A                      A
 Frequencies --   1541.4095              1546.4137              1551.8014
 Red. masses --      1.0687                 1.1259                 1.0587
 Frc consts  --      1.4961                 1.5864                 1.5020
 IR Inten    --      0.4929                37.4619                33.6012

                     73                     74                     75
                      A                      A                      A
 Frequencies --   1556.3249              1697.1348              1764.1416
 Red. masses --      1.0995                 1.0876                 6.7953
 Frc consts  --      1.5690                 1.8457                12.4602
 IR Inten    --      5.8101                35.1507               316.9723

                     76                     77                     78
                      A                      A                      A
 Frequencies --   2960.5034              3033.9183              3038.8385
 Red. masses --      1.0746                 1.0414                 1.0350
 Frc consts  --      5.5491                 5.6477                 5.6313
 IR Inten    --     80.1978                53.7599                28.3180

                     79                     80                     81
                      A                      A                      A
 Frequencies --   3050.2820              3051.2371              3065.6316
 Red. masses --      1.0380                 1.0366                 1.0655
 Frc consts  --      5.6903                 5.6863                 5.9001
 IR Inten    --     33.4689                22.8112                16.5491

                     82                     83                     84
                      A                      A                      A
 Frequencies --   3093.4115              3096.2467              3105.2550
 Red. masses --      1.0957                 1.0641                 1.0899
 Frc consts  --      6.1774                 6.0103                 6.1923
 IR Inten    --     40.1751                18.1179                16.5588

                     85                     86                     87
                      A                      A                      A
 Frequencies --   3105.3916              3106.5231              3115.2268
 Red. masses --      1.1006                 1.0998                 1.1005
 Frc consts  --      6.2536                 6.2536                 6.2924
 IR Inten    --     34.1525                11.7298                42.5601

                     88                     89                     90
                      A                      A                      A
 Frequencies --   3115.7161              3128.7188              3133.3222
 Red. masses --      1.0984                 1.1008                 1.1034
 Frc consts  --      6.2825                 6.3487                 6.3823
 IR Inten    --     46.9178                 9.1573                 9.9183

                     91                     92                     93
                      A                      A                      A
 Frequencies --   3133.7577              3148.2322              3150.9492
 Red. masses --      1.1027                 1.1015                 1.1014
 Frc consts  --      6.3800                 6.4321                 6.4429
 IR Inten    --     29.9365                13.9345                20.6886

                     94                     95                     96
                      A                      A                      A
 Frequencies --   3476.9625              3558.1744              3605.5840
 Red. masses --      1.0499                 1.0923                 1.0755
 Frc consts  --      7.4784                 8.1482                 8.2379
 IR Inten    --      0.9650                 0.0304                25.6179

 - Thermochemistry -
 -------------------
 Temperature   298.150 Kelvin.  Pressure   1.00000 Atm.
 Atom     1 has atomic number  6 and mass  12.00000

 Molecular mass:   187.16846 amu.
 Principal axes and moments of inertia in atomic units:
                           1         2         3
     Eigenvalues --  1863.315462935.009563789.25609
           X            0.99969  -0.01215   0.02160
           Y            0.01205   0.99992   0.00443
           Z           -0.02166  -0.00417   0.99976
 This molecule is an asymmetric top.
 Rotational symmetry number  1.
 Warning -- assumption of classical behavior for rotation
           may cause significant error
 Rotational temperatures (Kelvin)      0.04648     0.02951     0.02286
 Rotational constants (GHZ):           0.96856     0.61490     0.47628
 Zero-point vibrational energy     815182.8 (Joules/Mol)
                                  194.83337 (Kcal/Mol)
 Warning -- explicit consideration of  25 degrees of freedom as
           vibrations may cause significant error
 Vibrational temperatures:     51.22   100.76   114.64   152.40   175.87
          (Kelvin)            218.35   231.79   254.06   300.61   324.64
                              337.49   347.69   383.14   400.65   422.90
                              451.95   472.42   495.48   550.53   596.18
                              634.08   737.91   745.82   768.39   887.97
                             1006.60  1069.03  1094.31  1150.99  1181.40
                             1247.12  1259.98  1306.83  1349.59  1385.92
                             1396.95  1482.69  1501.00  1519.53  1569.92
                             1606.00  1622.13  1631.72  1661.79  1694.49
                             1713.64  1794.55  1816.73  1834.65  1844.07
                             1948.25  1959.00  1969.42  2026.46  2041.45
                             2052.65  2057.62  2068.69  2092.24  2104.40
                             2108.42  2156.28  2175.54  2183.24  2186.81
                             2193.06  2200.20  2204.77  2212.93  2217.74
                             2224.94  2232.70  2239.20  2441.80  2538.21
                             4259.50  4365.13  4372.21  4388.68  4390.05
                             4410.76  4450.73  4454.81  4467.77  4467.97
                             4469.59  4482.12  4482.82  4501.53  4508.15
                             4508.78  4529.60  4533.51  5002.57  5119.42
                             5187.63

 Zero-point correction=                           0.310487 (Hartree/Particle)
 Thermal correction to Energy=                    0.326454
 Thermal correction to Enthalpy=                  0.327398
 Thermal correction to Gibbs Free Energy=         0.268221
 Sum of electronic and zero-point Energies=           -594.839693
 Sum of electronic and thermal Energies=              -594.823726
 Sum of electronic and thermal Enthalpies=            -594.822782
 Sum of electronic and thermal Free Energies=         -594.881960

                     E (Thermal)             CV                S
                      KCal/Mol        Cal/Mol-Kelvin    Cal/Mol-Kelvin
 Total                  204.853             59.306            124.550
 Electronic               0.000              0.000              0.000
 Translational            0.889              2.981             41.586
 Rotational               0.889              2.981             31.405
 Vibrational            203.076             53.344             51.559
 Vibration     1          0.594              1.982              5.490
 Vibration     2          0.598              1.968              4.153
 Vibration     3          0.600              1.963              3.899
 Vibration     4          0.605              1.944              3.342
 Vibration     5          0.610              1.931              3.065
 Vibration     6          0.619              1.901              2.650
 Vibration     7          0.622              1.890              2.537
 Vibration     8          0.628              1.871              2.364
 Vibration     9          0.642              1.827              2.053
 Vibration    10          0.650              1.802              1.913
 Vibration    11          0.654              1.788              1.844
 Vibration    12          0.658              1.777              1.791
 Vibration    13          0.672              1.735              1.620
 Vibration    14          0.679              1.713              1.543
 Vibration    15          0.689              1.685              1.451
 Vibration    16          0.702              1.647              1.341
 Vibration    17          0.712              1.619              1.268
 Vibration    18          0.723              1.587              1.192
 Vibration    19          0.752              1.507              1.029
 Vibration    20          0.778              1.439              0.911
 Vibration    21          0.801              1.381              0.824
 Vibration    22          0.868              1.221              0.627
 Vibration    23          0.873              1.209              0.614
 Vibration    24          0.889              1.175              0.578
 Vibration    25          0.977              0.996              0.421

                           ! Non-Optimized Parameters !
 Normal termination of Gaussian 16 at Wed Dec  9 23:43:40 2020.

 ----------------------------------------------------------------------
 # B3LYP/6-311++G(d,p) empiricaldispersion=gd3bj scf=xqc pop=npa geom=c
 heck
 ----------------------------------------------------------------------

 --------------------------------------
 CID_81907821_JID_3487_Energie_neutraal
 --------------------------------------
 Structure from the checkpoint file:  "JID_3487.chk"
 Charge =  0 Multiplicity = 1

 SCF Done:  E(RB3LYP) =  -595.333702109     A.U. after   14 cycles
 Normal termination of Gaussian 16 at Wed Dec  9 23:49:06 2020.

 ----------------------------------------------------------------------
 # B3LYP/6-311++G(d,p) empiricaldispersion=gd3bj scf=xqc pop=npa geom=c
 heck
 ----------------------------------------------------------------------

 ------------------------------------
 CID_81907821_JID_3487_Energie_kation
 ------------------------------------
 Structure from the checkpoint file:  "JID_3487.chk"
 Charge =  1 Multiplicity = 2

 SCF Done:  E(UB3LYP) =  -595.038031694     A.U. after   26 cycles
 Normal termination of Gaussian 16 at Thu Dec 10 00:03:12 2020.
 Gaussian 16:  ES64L-G16RevA.03 25-Dec-2016

 ----------------------------------------------------------------------
 # B3LYP/6-311++G(d,p) empiricaldispersion=gd3bj scf=xqc pop=npa geom=c
 heck
 ----------------------------------------------------------------------

 -----------------------------------
 CID_81907821_JID_3487_Energie_anion
 -----------------------------------
 Structure from the checkpoint file:  "JID_3487.chk"
 Charge = -1 Multiplicity = 2

                         Standard orientation:
 ---------------------------------------------------------------------
 Center     Atomic      Atomic             Coordinates (Angstroms)
 Number     Number       Type             X           Y           Z
 ---------------------------------------------------------------------
      1          6           0       -1.756596    2.654150   -0.621048
      2          6           0       -0.584504    1.886976   -0.011062
      3          7           0       -0.716755    0.437102   -0.219903
      4          6           0        0.406907   -0.279900   -0.824008
      5          6           0        1.584974   -0.652058    0.115849
      6          6           0        1.101037   -1.492796    1.306565
      7          6           0        2.576763   -1.479140   -0.722368
      8          6           0        2.295508    0.597624    0.675914
      9          7           0        2.762608    1.505768   -0.379564
     10          6           0       -1.676756   -0.192020    0.554132
     11          8           0       -2.192409    0.337900    1.537437
     12          7           0       -2.048914   -1.477185    0.164589
     13          6           0       -2.274811   -1.861841   -1.225974
     14          1           0       -1.824926    2.466394   -1.698585
     15          1           0       -1.629815    3.732020   -0.466067
     16          1           0       -2.696106    2.350986   -0.150700
     17          1           0        0.355350    2.191099   -0.475802
     18          1           0       -0.523771    2.099857    1.061706
     19          1           0        0.045623   -1.204289   -1.276808
     20          1           0        0.794439    0.344457   -1.633224
     21          1           0        0.569886   -2.387603    0.967642
     22          1           0        1.951763   -1.811429    1.921117
     23          1           0        0.419038   -0.924183    1.946750
     24          1           0        2.897374   -0.939380   -1.621549
     25          1           0        3.469334   -1.729446   -0.136298
     26          1           0        2.120954   -2.420459   -1.050893
     27          1           0        1.592375    1.152748    1.303941
     28          1           0        3.104466    0.252485    1.344348
     29          1           0        3.083614    2.376402    0.038928
     30          1           0        3.572746    1.105210   -0.848756
     31          1           0       -2.741777   -1.820115    0.817010
     32          1           0       -1.561471   -2.622705   -1.568940
     33          1           0       -3.283741   -2.272362   -1.338153
     34          1           0       -2.189799   -0.988653   -1.879017
 ---------------------------------------------------------------------

 SCF Done:  E(UB3LYP) =  -595.321800703     A.U. after   31 cycles

 The electronic state is 2-A.
 Alpha  occ. eigenvalues --  -18.98054 -14.23024 -14.22644 -14.19225 -10.18857
 Alpha  occ. eigenvalues --  -10.10309 -10.09737 -10.09533 -10.08839 -10.08242
 Alpha  occ. eigenvalues --  -10.06342 -10.05832 -10.05540  -0.94534  -0.83432
 Alpha  occ. eigenvalues --   -0.80821  -0.78438  -0.70741  -0.65486  -0.60727
 Alpha  occ. eigenvalues --   -0.59036  -0.58240  -0.56084  -0.54086  -0.46076
 Alpha  occ. eigenvalues --   -0.44785  -0.41149  -0.39359  -0.38846  -0.38241
 Alpha  occ. eigenvalues --   -0.37102  -0.34904  -0.34276  -0.34109  -0.33044
 Alpha  occ. eigenvalues --   -0.32043  -0.30615  -0.30031  -0.29712  -0.29141
 Alpha  occ. eigenvalues --   -0.27886  -0.27724  -0.26907  -0.26032  -0.25250
 Alpha  occ. eigenvalues --   -0.24168  -0.23106  -0.22333  -0.17617  -0.14928
 Alpha  occ. eigenvalues --   -0.14791  -0.13397   0.04193
 Alpha virt. eigenvalues --    0.05831   0.07312   0.07925   0.08322   0.09046
 Alpha virt. eigenvalues --    0.09267   0.10087   0.10860   0.11276   0.11672
 Alpha virt. eigenvalues --    0.11911   0.12487   0.12736   0.13260   0.13764

  Beta  occ. eigenvalues --  -18.98052 -14.23020 -14.22636 -14.19175 -10.18857
  Beta  occ. eigenvalues --  -10.10262 -10.09723 -10.09526 -10.08819 -10.08242
  Beta  occ. eigenvalues --  -10.06335 -10.05794 -10.05529  -0.94530  -0.83423
  Beta  occ. eigenvalues --   -0.80802  -0.78365  -0.70707  -0.65470  -0.60670
  Beta  occ. eigenvalues --   -0.58987  -0.58189  -0.56012  -0.54058  -0.46044
  Beta  occ. eigenvalues --   -0.44750  -0.41120  -0.39307  -0.38804  -0.38206
  Beta  occ. eigenvalues --   -0.37049  -0.34869  -0.34250  -0.34071  -0.33007
  Beta  occ. eigenvalues --   -0.32023  -0.30583  -0.29990  -0.29681  -0.29118
  Beta  occ. eigenvalues --   -0.27862  -0.27699  -0.26883  -0.26012  -0.25232
  Beta  occ. eigenvalues --   -0.24151  -0.23079  -0.22303  -0.17608  -0.14895
  Beta  occ. eigenvalues --   -0.14766  -0.13378
  Beta virt. eigenvalues --    0.06538   0.07185   0.07624   0.08478   0.08809
  Beta virt. eigenvalues --    0.09674   0.09801   0.10308   0.10979   0.11616
  Beta virt. eigenvalues --    0.12110   0.12174   0.12570   0.13031   0.13509

 Mulliken charges and spin densities:
               1          2
     1  C   -0.053717  -0.467064
     2  C   -0.614612   0.424075
     3  N   -0.001076   0.178884
     4  C    0.824428  -1.369841
     5  C   -1.419482   2.109174
     6  C    0.877162  -1.547179
     7  C    0.264570  -0.804591
     8  C    0.213394  -0.883311
     9  N   -0.502272   0.161040
    10  C   -0.465951   0.248421
    11  O   -0.317658   0.000186
    12  N   -0.367972   0.184609
    13  C    0.889254  -1.285992
    14  H   -0.001746   0.137165
    15  H    0.047166   0.079505
    16  H    0.160468   0.014318
    17  H    0.291713  -0.107044
    18  H    0.102648   0.082022
    19  H    1.064540  -0.914460
    20  H    0.141211   0.069244
    21  H    0.141336   0.016700
    22  H    0.024489   0.134007
    23  H    0.223071  -0.022193
    24  H   -0.101581   0.229005
    25  H   -0.254030   0.410364
    26  H   -0.406374   0.554439
    27  H   -0.088043   0.261096
    28  H   -0.241678   0.408930
    29  H   -0.258262   0.501222
    30  H   -0.064602   0.300190
    31  H    0.200435   0.100999
    32  H   -0.480255   0.648913
    33  H   -0.799844   0.958258
    34  H   -0.026732   0.188912
 Sum of Mulliken charges =  -1.00000   1.00000

 Dipole moment (field-independent basis, Debye):
    X=             -2.0373    Y=              1.7579    Z=              1.3205  Tot=              2.9974
 Quadrupole moment (field-independent basis, Debye-Ang):
   XX=           -157.6648   YY=           -130.7671   ZZ=           -119.0889
   XY=            -11.0604   XZ=             -0.4147   YZ=             -8.6007

 Summary of Natural Population Analysis:

                                       Natural Population
                Natural  -----------------------------------------------
    Atom  No    Charge         Core      Valence    Rydberg      Total
 -----------------------------------------------------------------------
      C    1   -0.28783      0.99966     2.28411    0.00406     3.28783
      C    2   -0.09277      0.99962     2.08241    0.01074     3.09277
      N    3   -0.27670      0.99964     2.76481    0.01225     3.77670
      C    4   -0.08183      0.99954     2.06944    0.01285     3.08183
      C    5   -0.05477      0.99956     2.04146    0.01374     3.05477
      C    6   -0.28820      0.99962     2.28169    0.00689     3.28820
      C    7   -0.28914      0.99962     2.28178    0.00773     3.28914
      C    8   -0.08839      0.99956     2.07618    0.01265     3.08839
      N    9   -0.42816      0.99977     2.91743    0.01096     3.92816
      C   10    0.41372      0.99965     1.56185    0.02477     2.58628
      O   11   -0.34342      0.99988     3.33880    0.00475     4.34342
      N   12   -0.33673      0.99968     2.82650    0.01054     3.83673
      C   13   -0.18202      0.99964     2.17409    0.00829     3.18202
      H   14    0.09547      0.00000     0.40332    0.00121     0.40453
      H   15    0.09564      0.00000     0.40363    0.00074     0.40436
      H   16    0.10395      0.00000     0.39506    0.00099     0.39605
      H   17    0.10770      0.00000     0.39032    0.00198     0.39230
      H   18    0.09772      0.00000     0.40108    0.00120     0.40228
      H   19    0.10162      0.00000     0.39610    0.00228     0.39838
      H   20    0.10721      0.00000     0.39101    0.00178     0.39279
      H   21    0.10450      0.00000     0.39437    0.00113     0.39550
      H   22    0.09897      0.00000     0.40015    0.00087     0.40103
      H   23    0.10436      0.00000     0.39468    0.00096     0.39564
      H   24    0.10125      0.00000     0.39746    0.00129     0.39875
      H   25    0.10195      0.00000     0.39681    0.00124     0.39805
      H   26    0.10204      0.00000     0.39667    0.00129     0.39796
      H   27    0.09322      0.00000     0.40482    0.00196     0.40678
      H   28    0.08342      0.00000     0.41485    0.00173     0.41658
      H   29    0.17869      0.00000     0.31858    0.00273     0.32131
      H   30    0.17790      0.00000     0.31893    0.00317     0.32210
      H   31    0.19089      0.00000     0.30709    0.00202     0.30911
      H   32    0.09278      0.00000     0.40542    0.00180     0.40722
      H   33    0.09831      0.00000     0.39980    0.00189     0.40169
      H   34    0.09865      0.00000     0.39978    0.00157     0.40135
 =======================================================================
   * Total *   -0.00000     12.99545    38.83050    0.17406    52.00000

 Normal termination of Gaussian 16 at Thu Dec 10 00:19:49 2020.
