 Gaussian 16, Revision A.03,

 -----------------------------------------------------------
 # opt freq B3LYP/6-31G(d) empiricaldispersion=gd3bj scf=xqc
 -----------------------------------------------------------

 -------------------------------
 CID_143747602_JID_5734_neutraal
 -------------------------------
 Symbolic Z-matrix:
 Charge =  0 Multiplicity = 1

 SCF Done:  E(RB3LYP) =  -703.577380545     A.U. after   15 cycles
 SCF Done:  E(RB3LYP) =  -703.583670057     A.U. after   14 cycles
 SCF Done:  E(RB3LYP) =  -703.583894554     A.U. after   13 cycles
 SCF Done:  E(RB3LYP) =  -703.590097588     A.U. after   13 cycles
 SCF Done:  E(RB3LYP) =  -703.591140133     A.U. after   12 cycles
 SCF Done:  E(RB3LYP) =  -703.591467176     A.U. after   12 cycles
 SCF Done:  E(RB3LYP) =  -703.592081540     A.U. after   12 cycles
 SCF Done:  E(RB3LYP) =  -703.592228962     A.U. after   11 cycles
 SCF Done:  E(RB3LYP) =  -703.592283368     A.U. after   11 cycles
 SCF Done:  E(RB3LYP) =  -703.592336394     A.U. after   12 cycles
 SCF Done:  E(RB3LYP) =  -703.594404801     A.U. after   11 cycles
 SCF Done:  E(RB3LYP) =  -703.594411756     A.U. after   10 cycles
 SCF Done:  E(RB3LYP) =  -703.594412198     A.U. after    8 cycles
 SCF Done:  E(RB3LYP) =  -703.594412306     A.U. after    7 cycles
 SCF Done:  E(RB3LYP) =  -703.594412329     A.U. after    7 cycles
 Optimization completed.
    -- Stationary point found.
 Normal termination of Gaussian 16 at Thu Dec 10 17:00:02 2020.

 --------------------------------------------------------------------
 #N Geom=AllCheck Guess=TCheck SCRF=Check GenChk RB3LYP/6-31G(d) Freq
 --------------------------------------------------------------------

 Structure from the checkpoint file:  "JID_5734.chk"
 -------------------------------
 CID_143747602_JID_5734_neutraal
 -------------------------------
 Charge =  0 Multiplicity = 1

 SCF Done:  E(RB3LYP) =  -703.594412329     A.U. after    1 cycles

  Exact polarizability: 153.919  -9.151 135.669 -22.288  -9.653  90.508
 Approx polarizability: 219.221 -19.880 218.682 -46.509 -16.194 141.762

                      1                      2                      3
                      A                      A                      A
 Frequencies --     19.6292                39.3995                57.5439
 Red. masses --      4.3250                 4.1103                 4.3977
 Frc consts  --      0.0010                 0.0038                 0.0086
 IR Inten    --      0.2820                 0.5765                 0.3748

                      4                      5                      6
                      A                      A                      A
 Frequencies --     74.1004                95.2018               113.4500
 Red. masses --      4.4681                 4.2432                 3.2632
 Frc consts  --      0.0145                 0.0227                 0.0247
 IR Inten    --      1.1990                 0.7118                 0.4198

                      7                      8                      9
                      A                      A                      A
 Frequencies --    146.3448               186.3854               246.4946
 Red. masses --      3.9843                 3.9757                 3.5261
 Frc consts  --      0.0503                 0.0814                 0.1262
 IR Inten    --      2.4612                 1.7582                 4.5405

                     10                     11                     12
                      A                      A                      A
 Frequencies --    280.8094               304.7386               332.4526
 Red. masses --      2.1391                 2.1169                 3.0697
 Frc consts  --      0.0994                 0.1158                 0.1999
 IR Inten    --     25.2442                20.2019                16.6267

                     13                     14                     15
                      A                      A                      A
 Frequencies --    362.5260               376.1644               400.2739
 Red. masses --      2.5708                 2.4018                 1.7788
 Frc consts  --      0.1991                 0.2002                 0.1679
 IR Inten    --      7.4630                 5.1351                14.8446

                     16                     17                     18
                      A                      A                      A
 Frequencies --    418.2235               427.8002               470.9534
 Red. masses --      2.2938                 2.1047                 3.3684
 Frc consts  --      0.2364                 0.2269                 0.4402
 IR Inten    --     12.5592                 2.3458                 3.8779

                     19                     20                     21
                      A                      A                      A
 Frequencies --    484.2494               523.4468               578.0261
 Red. masses --      3.4684                 3.6807                 6.0066
 Frc consts  --      0.4792                 0.5942                 1.1824
 IR Inten    --     11.2413                15.9951                 0.8571

                     22                     23                     24
                      A                      A                      A
 Frequencies --    591.2492               666.2541               698.0670
 Red. masses --      4.3228                 5.6267                 2.1583
 Frc consts  --      0.8903                 1.4716                 0.6197
 IR Inten    --      2.4779                13.4034                 4.0446

                     25                     26                     27
                      A                      A                      A
 Frequencies --    728.8100               756.4169               767.8935
 Red. masses --      1.5837                 5.1468                 2.8156
 Frc consts  --      0.4956                 1.7350                 0.9782
 IR Inten    --    116.4810                31.2460                17.9492

                     28                     29                     30
                      A                      A                      A
 Frequencies --    770.6131               779.8613               852.6926
 Red. masses --      1.9691                 2.9736                 2.0780
 Frc consts  --      0.6889                 1.0655                 0.8902
 IR Inten    --    122.3117                48.6854                 0.7392

                     31                     32                     33
                      A                      A                      A
 Frequencies --    865.7256               928.9630               933.7095
 Red. masses --      2.1244                 2.1888                 1.4928
 Frc consts  --      0.9381                 1.1129                 0.7668
 IR Inten    --     22.1750               106.4557                18.0292

                     34                     35                     36
                      A                      A                      A
 Frequencies --    940.8642               964.9214               965.7497
 Red. masses --      1.4878                 1.2339                 1.3521
 Frc consts  --      0.7760                 0.6769                 0.7430
 IR Inten    --      7.0076                 0.5038                35.3463

                     37                     38                     39
                      A                      A                      A
 Frequencies --    987.8485              1020.2702              1029.3569
 Red. masses --      2.2265                 5.2483                 1.1327
 Frc consts  --      1.2801                 3.2188                 0.7071
 IR Inten    --     19.8295                36.1380                39.5742

                     40                     41                     42
                      A                      A                      A
 Frequencies --   1041.3747              1069.4184              1099.4956
 Red. masses --      3.4010                 2.0247                 1.7019
 Frc consts  --      2.1731                 1.3643                 1.2122
 IR Inten    --    116.0479                 6.0569                 4.7041

                     43                     44                     45
                      A                      A                      A
 Frequencies --   1175.5219              1183.4640              1194.4095
 Red. masses --      1.2476                 2.8721                 1.1339
 Frc consts  --      1.0158                 2.3701                 0.9531
 IR Inten    --     17.0455               295.5519                 2.3996

                     46                     47                     48
                      A                      A                      A
 Frequencies --   1199.9108              1277.6980              1311.8410
 Red. masses --      2.3313                 3.6344                 1.2290
 Frc consts  --      1.9777                 3.4957                 1.2461
 IR Inten    --    106.2983                21.3322                14.0322

                     49                     50                     51
                      A                      A                      A
 Frequencies --   1318.0986              1333.5849              1337.6484
 Red. masses --      2.3770                 1.3316                 1.8976
 Frc consts  --      2.4332                 1.3953                 2.0005
 IR Inten    --     39.9860                10.2557                33.8634

                     52                     53                     54
                      A                      A                      A
 Frequencies --   1365.3039              1376.7337              1386.0623
 Red. masses --      1.5696                 3.6209                 1.5679
 Frc consts  --      1.7238                 4.0436                 1.7747
 IR Inten    --     92.3225                12.8994                91.5081

                     55                     56                     57
                      A                      A                      A
 Frequencies --   1415.2371              1474.2895              1510.2999
 Red. masses --      1.6987                 1.1787                 2.5248
 Frc consts  --      2.0046                 1.5094                 3.3931
 IR Inten    --    113.0121                 7.0941                 8.1320

                     58                     59                     60
                      A                      A                      A
 Frequencies --   1520.0868              1551.0957              1646.8936
 Red. masses --      1.1236                 2.7151                 5.7053
 Frc consts  --      1.5297                 3.8487                 9.1172
 IR Inten    --     28.2952                66.1918                 6.1936

                     61                     62                     63
                      A                      A                      A
 Frequencies --   1655.0551              1686.7245              1728.4894
 Red. masses --      2.4810                 1.5978                 1.1620
 Frc consts  --      4.0041                 2.6783                 2.0455
 IR Inten    --      6.4632                94.8502                14.5867

                     64                     65                     66
                      A                      A                      A
 Frequencies --   1734.5124              1843.0576              3094.1893
 Red. masses --      4.0571                 8.1375                 1.0592
 Frc consts  --      7.1916                16.2863                 5.9749
 IR Inten    --      0.6216               408.6918                38.8302

                     67                     68                     69
                      A                      A                      A
 Frequencies --   3148.6871              3161.8543              3172.3700
 Red. masses --      1.0985                 1.0710                 1.0878
 Frc consts  --      6.4166                 6.3085                 6.4501
 IR Inten    --      0.4177                16.4457                 9.8750

                     70                     71                     72
                      A                      A                      A
 Frequencies --   3176.7690              3193.6068              3202.6981
 Red. masses --      1.0874                 1.0880                 1.0923
 Frc consts  --      6.4658                 6.5380                 6.6009
 IR Inten    --     11.9814                 5.0913                23.9450

                     73                     74                     75
                      A                      A                      A
 Frequencies --   3216.1024              3247.8220              3431.5744
 Red. masses --      1.0972                 1.1167                 1.0473
 Frc consts  --      6.6867                 6.9404                 7.2662
 IR Inten    --     15.7133                11.9097                 5.3545

                     76                     77                     78
                      A                      A                      A
 Frequencies --   3516.9040              3520.0756              3622.3730
 Red. masses --      1.0530                 1.0924                 1.0956
 Frc consts  --      7.6736                 7.9748                 8.4704
 IR Inten    --     11.7948                 4.7762                13.5634

 - Thermochemistry -
 -------------------
 Temperature   298.150 Kelvin.  Pressure   1.00000 Atm.
 Atom     1 has atomic number  6 and mass  12.00000

 Molecular mass:   207.10078 amu.
 Principal axes and moments of inertia in atomic units:
                           1         2         3
     Eigenvalues --  1827.631624310.347935280.29258
           X            0.99984   0.01737  -0.00482
           Y           -0.01744   0.99973  -0.01565
           Z            0.00455   0.01573   0.99987
 This molecule is an asymmetric top.
 Rotational symmetry number  1.
 Warning -- assumption of classical behavior for rotation
           may cause significant error
 Rotational temperatures (Kelvin)      0.04739     0.02009     0.01640
 Rotational constants (GHZ):           0.98748     0.41870     0.34179
 Zero-point vibrational energy     600099.6 (Joules/Mol)
                                  143.42724 (Kcal/Mol)
 Warning -- explicit consideration of  22 degrees of freedom as
           vibrations may cause significant error
 Vibrational temperatures:     28.24    56.69    82.79   106.61   136.97
          (Kelvin)            163.23   210.56   268.17   354.65   404.02
                              438.45   478.33   521.59   541.22   575.90
                              601.73   615.51   677.60   696.73   753.12
                              831.65   850.68   958.59  1004.36  1048.60
                             1088.32  1104.83  1108.74  1122.05  1226.83
                             1245.59  1336.57  1343.40  1353.69  1388.31
                             1389.50  1421.29  1467.94  1481.02  1498.31
                             1538.65  1581.93  1691.31  1702.74  1718.49
                             1726.40  1838.32  1887.45  1896.45  1918.73
                             1924.58  1964.37  1980.81  1994.23  2036.21
                             2121.17  2172.98  2187.07  2231.68  2369.51
                             2381.26  2426.82  2486.91  2495.58  2651.75
                             4451.85  4530.26  4549.20  4564.33  4570.66
                             4594.89  4607.97  4627.25  4672.89  4937.27
                             5060.04  5064.60  5211.79

 Zero-point correction=                           0.228566 (Hartree/Particle)
 Thermal correction to Energy=                    0.243191
 Thermal correction to Enthalpy=                  0.244135
 Thermal correction to Gibbs Free Energy=         0.185322
 Sum of electronic and zero-point Energies=           -703.365846
 Sum of electronic and thermal Energies=              -703.351221
 Sum of electronic and thermal Enthalpies=            -703.350277
 Sum of electronic and thermal Free Energies=         -703.409090

                     E (Thermal)             CV                S
                      KCal/Mol        Cal/Mol-Kelvin    Cal/Mol-Kelvin
 Total                  152.605             54.732            123.783
 Electronic               0.000              0.000              0.000
 Translational            0.889              2.981             41.888
 Rotational               0.889              2.981             32.098
 Vibrational            150.827             48.770             49.797
 Vibration     1          0.593              1.986              6.671
 Vibration     2          0.594              1.981              5.289
 Vibration     3          0.596              1.974              4.540
 Vibration     4          0.599              1.966              4.041
 Vibration     5          0.603              1.953              3.550
 Vibration     6          0.607              1.938              3.209
 Vibration     7          0.617              1.907              2.719
 Vibration     8          0.632              1.858              2.263
 Vibration     9          0.661              1.769              1.756
 Vibration    10          0.680              1.709              1.529
 Vibration    11          0.696              1.665              1.391
 Vibration    12          0.714              1.611              1.248
 Vibration    13          0.736              1.549              1.111
 Vibration    14          0.747              1.521              1.055
 Vibration    15          0.766              1.470              0.962
 Vibration    16          0.781              1.431              0.898
 Vibration    17          0.789              1.410              0.866
 Vibration    18          0.828              1.314              0.735
 Vibration    19          0.840              1.285              0.699
 Vibration    20          0.878              1.198              0.602
 Vibration    21          0.935              1.079              0.489
 Vibration    22          0.949              1.050              0.465

                           ! Non-Optimized Parameters !
 Normal termination of Gaussian 16 at Thu Dec 10 17:09:38 2020.

 ----------------------------------------------------------------------
 # B3LYP/6-311++G(d,p) empiricaldispersion=gd3bj scf=xqc pop=npa geom=c
 heck
 ----------------------------------------------------------------------

 ---------------------------------------
 CID_143747602_JID_5734_Energie_neutraal
 ---------------------------------------
 Structure from the checkpoint file:  "JID_5734.chk"
 Charge =  0 Multiplicity = 1

 SCF Done:  E(RB3LYP) =  -703.806970338     A.U. after   15 cycles
 Normal termination of Gaussian 16 at Thu Dec 10 17:14:00 2020.

 ----------------------------------------------------------------------
 # B3LYP/6-311++G(d,p) empiricaldispersion=gd3bj scf=xqc pop=npa geom=c
 heck
 ----------------------------------------------------------------------

 -------------------------------------
 CID_143747602_JID_5734_Energie_kation
 -------------------------------------
 Structure from the checkpoint file:  "JID_5734.chk"
 Charge =  1 Multiplicity = 2

 SCF Done:  E(UB3LYP) =  -703.513797261     A.U. after   27 cycles
 Normal termination of Gaussian 16 at Thu Dec 10 17:25:07 2020.
 Gaussian 16:  ES64L-G16RevA.03 25-Dec-2016

 ----------------------------------------------------------------------
 # B3LYP/6-311++G(d,p) empiricaldispersion=gd3bj scf=xqc pop=npa geom=c
 heck
 ----------------------------------------------------------------------

 ------------------------------------
 CID_143747602_JID_5734_Energie_anion
 ------------------------------------
 Structure from the checkpoint file:  "JID_5734.chk"
 Charge = -1 Multiplicity = 2

                         Standard orientation:
 ---------------------------------------------------------------------
 Center     Atomic      Atomic             Coordinates (Angstroms)
 Number     Number       Type             X           Y           Z
 ---------------------------------------------------------------------
      1          6           0       -4.053011   -1.152486    0.614847
      2          6           0       -3.133411   -1.394082   -0.318951
      3          6           0       -2.659778   -0.355812   -1.293972
      4          8           0       -1.305805    0.043101   -0.978782
      5          6           0       -1.209302    1.017306   -0.028676
      6          8           0       -2.129592    1.703232    0.355517
      7          7           0        0.107363    1.113980    0.387830
      8          6           0        1.062390    0.059773    0.239945
      9          6           0        0.838091   -1.216465    0.755119
     10          6           0        1.822463   -2.198624    0.662857
     11          6           0        3.045064   -1.887419    0.063973
     12          6           0        3.276415   -0.616283   -0.456724
     13          6           0        2.285328    0.371118   -0.386043
     14          7           0        2.492960    1.674339   -0.858184
     15          7           0        0.394820    2.140208    1.322649
     16          1           0       -4.515824   -0.173557    0.708816
     17          1           0       -4.368168   -1.916579    1.320583
     18          1           0       -2.654746   -2.370487   -0.385423
     19          1           0       -2.593136   -0.753614   -2.309946
     20          1           0       -3.305356    0.524125   -1.282421
     21          1           0       -0.120719   -1.429119    1.218309
     22          1           0        1.641361   -3.191559    1.062195
     23          1           0        3.823977   -2.641263   -0.007249
     24          1           0        4.226504   -0.383487   -0.931789
     25          1           0        3.260878    1.753322   -1.514874
     26          1           0        1.646680    2.089813   -1.237477
     27          1           0        0.550579    1.702140    2.231661
     28          1           0        1.279660    2.557757    1.033415
 ---------------------------------------------------------------------

 SCF Done:  E(UB3LYP) =  -703.795154766     A.U. after   33 cycles
 SCF Done:  E(UB3LYP) =  -703.795154766     a.u. after    1 cycles

 The electronic state is 2-A.
 Alpha  occ. eigenvalues --  -19.06761 -19.00256 -14.27623 -14.24093 -14.22032
 Alpha  occ. eigenvalues --  -10.22398 -10.14057 -10.11881 -10.11117 -10.09356
 Alpha  occ. eigenvalues --  -10.08800 -10.08033 -10.07744 -10.07216 -10.07168
 Alpha  occ. eigenvalues --   -1.01524  -0.92654  -0.90138  -0.82236  -0.75191
 Alpha  occ. eigenvalues --   -0.72744  -0.70197  -0.64957  -0.63572  -0.60707
 Alpha  occ. eigenvalues --   -0.53994  -0.51176  -0.49627  -0.47001  -0.45577
 Alpha  occ. eigenvalues --   -0.43525  -0.42400  -0.41044  -0.39603  -0.38985
 Alpha  occ. eigenvalues --   -0.37369  -0.36356  -0.35685  -0.34517  -0.33659
 Alpha  occ. eigenvalues --   -0.33300  -0.31915  -0.29596  -0.28196  -0.27664
 Alpha  occ. eigenvalues --   -0.26387  -0.26001  -0.22174  -0.21262  -0.20136
 Alpha  occ. eigenvalues --   -0.19494  -0.18752  -0.16752  -0.14797  -0.11823
 Alpha  occ. eigenvalues --    0.04297
 Alpha virt. eigenvalues --    0.06050   0.06650   0.07114   0.07643   0.07932
 Alpha virt. eigenvalues --    0.08034   0.08548   0.09269   0.09896   0.10350
 Alpha virt. eigenvalues --    0.11018   0.11640   0.12031   0.12687   0.13236

  Beta  occ. eigenvalues --  -19.06759 -19.00254 -14.27622 -14.24069 -14.21968
  Beta  occ. eigenvalues --  -10.22399 -10.14050 -10.11881 -10.11108 -10.09336
  Beta  occ. eigenvalues --  -10.08777 -10.08018 -10.07721 -10.07185 -10.07161
  Beta  occ. eigenvalues --   -1.01519  -0.92646  -0.90117  -0.82161  -0.75140
  Beta  occ. eigenvalues --   -0.72705  -0.70154  -0.64916  -0.63513  -0.60672
  Beta  occ. eigenvalues --   -0.53952  -0.51118  -0.49580  -0.46967  -0.45538
  Beta  occ. eigenvalues --   -0.43489  -0.42350  -0.40983  -0.39559  -0.38951
  Beta  occ. eigenvalues --   -0.37352  -0.36317  -0.35633  -0.34487  -0.33615
  Beta  occ. eigenvalues --   -0.33255  -0.31894  -0.29554  -0.28167  -0.27625
  Beta  occ. eigenvalues --   -0.26363  -0.25963  -0.22122  -0.21241  -0.20113
  Beta  occ. eigenvalues --   -0.19443  -0.18708  -0.16733  -0.14739  -0.11779
  Beta virt. eigenvalues --    0.06373   0.06805   0.07361   0.07604   0.07842
  Beta virt. eigenvalues --    0.08144   0.08609   0.08983   0.09508   0.10161
  Beta virt. eigenvalues --    0.10986   0.11173   0.12015   0.12020   0.12989

 Mulliken charges and spin densities:
               1          2
     1  C    0.008492  -0.459527
     2  C   -0.254203   0.590856
     3  C    0.382026  -0.892777
     4  O   -0.026031   0.018304
     5  C    0.469421  -0.238821
     6  O   -0.290989   0.016099
     7  N    0.040189  -0.154469
     8  C   -0.069157  -0.378409
     9  C   -0.195694   0.379493
    10  C   -0.147595  -0.192257
    11  C    1.952524  -2.166350
    12  C    0.260163  -0.386950
    13  C   -0.703171   0.599297
    14  N   -0.415130   0.024427
    15  N   -0.355288   0.117697
    16  H    0.107611   0.033900
    17  H   -0.166466   0.281461
    18  H   -0.168321   0.330967
    19  H   -0.039493   0.208536
    20  H    0.127425   0.053191
    21  H    0.163391  -0.022239
    22  H   -0.468087   0.639179
    23  H   -0.120020   0.271151
    24  H   -1.008494   1.185749
    25  H   -0.431237   0.710145
    26  H   -0.012190   0.288917
    27  H    0.171833   0.073562
    28  H    0.188492   0.068870
 Sum of Mulliken charges =  -1.00000   1.00000

 Dipole moment (field-independent basis, Debye):
    X=             -5.6243    Y=             -0.6397    Z=              2.3140  Tot=              6.1153
 Quadrupole moment (field-independent basis, Debye-Ang):
   XX=           -165.5953   YY=           -137.2023   ZZ=           -117.9852
   XY=             -2.8404   XZ=             15.3576   YZ=              4.3572

 Summary of Natural Population Analysis:

                                       Natural Population
                Natural  -----------------------------------------------
    Atom  No    Charge         Core      Valence    Rydberg      Total
 -----------------------------------------------------------------------
      C    1   -0.17213      0.99956     2.16581    0.00676     3.17213
      C    2   -0.10537      0.99957     2.09502    0.01078     3.10537
      C    3   -0.03443      0.99954     2.02162    0.01328     3.03443
      O    4   -0.28396      0.99987     3.27555    0.00854     4.28396
      C    5    0.46793      0.99966     1.50705    0.02536     2.53207
      O    6   -0.31783      0.99987     3.31274    0.00522     4.31783
      N    7   -0.18956      0.99959     2.67570    0.01427     3.68956
      C    8    0.04775      0.99941     1.93884    0.01400     2.95225
      C    9   -0.09153      0.99951     2.08154    0.01047     3.09153
      C   10   -0.11915      0.99956     2.10958    0.01000     3.11915
      C   11   -0.08840      0.99957     2.07914    0.00970     3.08840
      C   12   -0.11806      0.99952     2.10765    0.01089     3.11806
      C   13    0.08398      0.99944     1.90379    0.01279     2.91602
      N   14   -0.40246      0.99972     2.89186    0.01088     3.90246
      N   15   -0.30295      0.99976     2.79339    0.00980     3.80295
      H   16    0.09542      0.00000     0.40343    0.00115     0.40458
      H   17    0.09344      0.00000     0.40540    0.00116     0.40656
      H   18    0.09691      0.00000     0.40165    0.00144     0.40309
      H   19    0.09577      0.00000     0.40305    0.00117     0.40423
      H   20    0.09934      0.00000     0.39938    0.00128     0.40066
      H   21    0.10414      0.00000     0.39436    0.00150     0.39586
      H   22    0.10137      0.00000     0.39737    0.00126     0.39863
      H   23    0.10068      0.00000     0.39819    0.00113     0.39932
      H   24    0.10523      0.00000     0.39202    0.00275     0.39477
      H   25    0.19391      0.00000     0.29525    0.01084     0.30609
      H   26    0.18906      0.00000     0.30845    0.00250     0.31094
      H   27    0.16918      0.00000     0.32906    0.00176     0.33082
      H   28    0.18174      0.00000     0.31606    0.00220     0.31826
 =======================================================================
   * Total *   -0.00000     14.99415    39.80295    0.20290    55.00000

 Normal termination of Gaussian 16 at Thu Dec 10 17:38:37 2020.
