 Gaussian 16, Revision A.03,

 -----------------------------------------------------------
 # opt freq B3LYP/6-31G(d) empiricaldispersion=gd3bj scf=xqc
 -----------------------------------------------------------

 -------------------------------
 CID_81701609_JID_10203_neutraal
 -------------------------------
 Symbolic Z-matrix:
 Charge =  0 Multiplicity = 1

 SCF Done:  E(RB3LYP) =  -896.537259354     A.U. after   14 cycles
 SCF Done:  E(RB3LYP) =  -896.541349085     A.U. after   12 cycles
 SCF Done:  E(RB3LYP) =  -896.542025183     A.U. after   12 cycles
 SCF Done:  E(RB3LYP) =  -896.542367885     A.U. after   12 cycles
 SCF Done:  E(RB3LYP) =  -896.542594932     A.U. after   12 cycles
 SCF Done:  E(RB3LYP) =  -896.542676979     A.U. after   10 cycles
 SCF Done:  E(RB3LYP) =  -896.542705760     A.U. after   10 cycles
 SCF Done:  E(RB3LYP) =  -896.542710556     A.U. after   10 cycles
 SCF Done:  E(RB3LYP) =  -896.542713033     A.U. after    9 cycles
 SCF Done:  E(RB3LYP) =  -896.542714584     A.U. after   10 cycles
 SCF Done:  E(RB3LYP) =  -896.542714706     A.U. after    7 cycles
 SCF Done:  E(RB3LYP) =  -896.542714747     A.U. after    7 cycles
 Optimization completed.
    -- Stationary point found.
 Normal termination of Gaussian 16 at Mon Dec 14 17:30:08 2020.

 --------------------------------------------------------------------
 #N Geom=AllCheck Guess=TCheck SCRF=Check GenChk RB3LYP/6-31G(d) Freq
 --------------------------------------------------------------------

 Structure from the checkpoint file:  "JID_10203.chk"
 -------------------------------
 CID_81701609_JID_10203_neutraal
 -------------------------------
 Charge =  0 Multiplicity = 1

 SCF Done:  E(RB3LYP) =  -896.542714747     A.U. after    1 cycles

  Exact polarizability: 257.376   5.425 184.924 -14.244   7.344 134.435
 Approx polarizability: 350.296   1.637 287.432 -32.898  18.612 228.805

                      1                      2                      3
                      A                      A                      A
 Frequencies --     17.5284                29.8690                45.6396
 Red. masses --      5.5559                 3.8302                 4.5376
 Frc consts  --      0.0010                 0.0020                 0.0056
 IR Inten    --      0.1358                 0.2373                 0.7520

                      4                      5                      6
                      A                      A                      A
 Frequencies --     53.5929                83.1224                91.3060
 Red. masses --      3.9202                 4.2733                 4.4861
 Frc consts  --      0.0066                 0.0174                 0.0220
 IR Inten    --      1.0496                 1.6944                 0.1794

                      7                      8                      9
                      A                      A                      A
 Frequencies --    114.9705               123.5111               158.7506
 Red. masses --      4.6446                 4.9636                 4.3868
 Frc consts  --      0.0362                 0.0446                 0.0651
 IR Inten    --      1.8442                 1.1092                 1.5022

                     10                     11                     12
                      A                      A                      A
 Frequencies --    185.6300               233.9980               239.9883
 Red. masses --      4.5270                 3.6034                 2.9847
 Frc consts  --      0.0919                 0.1162                 0.1013
 IR Inten    --      0.9419                 2.8135                 1.9104

                     13                     14                     15
                      A                      A                      A
 Frequencies --    258.3994               269.6345               299.0321
 Red. masses --      1.3964                 2.2050                 2.7107
 Frc consts  --      0.0549                 0.0945                 0.1428
 IR Inten    --      0.8844                44.5374                28.9283

                     16                     17                     18
                      A                      A                      A
 Frequencies --    308.8330               342.0213               357.0760
 Red. masses --      2.0413                 3.1753                 4.5020
 Frc consts  --      0.1147                 0.2188                 0.3382
 IR Inten    --     45.6025                13.0454                 4.9364

                     19                     20                     21
                      A                      A                      A
 Frequencies --    383.6324               400.2507               419.4847
 Red. masses --      2.5275                 2.4811                 3.1605
 Frc consts  --      0.2192                 0.2342                 0.3277
 IR Inten    --      6.3116                62.0487                 0.1529

                     22                     23                     24
                      A                      A                      A
 Frequencies --    443.1138               451.1355               464.0143
 Red. masses --      1.4496                 3.5004                 2.5546
 Frc consts  --      0.1677                 0.4197                 0.3241
 IR Inten    --     33.1039                11.6209                52.3234

                     25                     26                     27
                      A                      A                      A
 Frequencies --    515.6591               528.4219               541.6155
 Red. masses --      2.6380                 3.0832                 3.2840
 Frc consts  --      0.4133                 0.5072                 0.5676
 IR Inten    --     14.4345                 7.8289                38.1979

                     28                     29                     30
                      A                      A                      A
 Frequencies --    561.3991               587.3541               631.4297
 Red. masses --      3.8862                 2.2745                 3.0193
 Frc consts  --      0.7216                 0.4623                 0.7093
 IR Inten    --      5.0900               132.4000                61.8247

                     31                     32                     33
                      A                      A                      A
 Frequencies --    634.4404               638.3704               665.9604
 Red. masses --      5.5281                 3.6131                 4.4863
 Frc consts  --      1.3110                 0.8675                 1.1723
 IR Inten    --      4.4735                14.5825                 7.6084

                     34                     35                     36
                      A                      A                      A
 Frequencies --    704.4709               731.9688               757.8280
 Red. masses --      2.0782                 2.8596                 4.3737
 Frc consts  --      0.6077                 0.9027                 1.4799
 IR Inten    --     12.8011               101.5908                23.0727

                     37                     38                     39
                      A                      A                      A
 Frequencies --    760.9365               782.3759               796.1544
 Red. masses --      1.7485                 4.2928                 4.3301
 Frc consts  --      0.5965                 1.5482                 1.6171
 IR Inten    --     42.6263                 0.5755                33.5872

                     40                     41                     42
                      A                      A                      A
 Frequencies --    822.1345               834.9470               870.8849
 Red. masses --      1.2619                 1.5260                 1.6166
 Frc consts  --      0.5025                 0.6268                 0.7224
 IR Inten    --      0.9393                27.2047                 7.5341

                     43                     44                     45
                      A                      A                      A
 Frequencies --    877.8811               937.5890               945.9182
 Red. masses --      3.5013                 2.1490                 1.3266
 Frc consts  --      1.5898                 1.1130                 0.6994
 IR Inten    --      1.4939                35.2626                 0.2906

                     46                     47                     48
                      A                      A                      A
 Frequencies --    949.4306               954.2409               969.9072
 Red. masses --      1.6899                 1.6442                 5.4927
 Frc consts  --      0.8975                 0.8821                 3.0444
 IR Inten    --      5.5952                11.8902               113.6498

                     49                     50                     51
                      A                      A                      A
 Frequencies --    973.5807              1011.0567              1018.1418
 Red. masses --      1.2251                 4.6402                 1.8406
 Frc consts  --      0.6842                 2.7947                 1.1242
 IR Inten    --      0.3493                 5.4190                 8.9306

                     52                     53                     54
                      A                      A                      A
 Frequencies --   1059.7157              1076.0930              1102.0869
 Red. masses --      2.2719                 6.6885                 2.4487
 Frc consts  --      1.5032                 4.5633                 1.7523
 IR Inten    --      2.1920                41.8158                13.0788

                     55                     56                     57
                      A                      A                      A
 Frequencies --   1123.0733              1137.6707              1162.8751
 Red. masses --      2.0408                 2.1647                 1.5993
 Frc consts  --      1.5166                 1.6508                 1.2742
 IR Inten    --     68.4537                17.6965                 8.1117

                     58                     59                     60
                      A                      A                      A
 Frequencies --   1184.6760              1186.2522              1191.5813
 Red. masses --      1.6039                 1.2766                 1.0823
 Frc consts  --      1.3262                 1.0584                 0.9054
 IR Inten    --     25.4471                 1.3556                 2.0577

                     61                     62                     63
                      A                      A                      A
 Frequencies --   1215.8757              1218.7029              1237.0258
 Red. masses --      1.2203                 1.3625                 2.0066
 Frc consts  --      1.0629                 1.1923                 1.8091
 IR Inten    --      5.4896                 8.4896                 3.5268

                     64                     65                     66
                      A                      A                      A
 Frequencies --   1253.1393              1299.5715              1306.9865
 Red. masses --      1.1773                 2.1608                 3.3779
 Frc consts  --      1.0892                 2.1502                 3.3997
 IR Inten    --     17.2614                65.6464               119.1741

                     67                     68                     69
                      A                      A                      A
 Frequencies --   1323.9545              1351.8061              1362.8685
 Red. masses --      1.4960                 1.6841                 2.4202
 Frc consts  --      1.5450                 1.8132                 2.6485
 IR Inten    --    135.3474               196.1151               103.9425

                     70                     71                     72
                      A                      A                      A
 Frequencies --   1375.5532              1377.5636              1403.7624
 Red. masses --      3.4450                 2.2705                 1.5998
 Frc consts  --      3.8406                 2.5386                 1.8574
 IR Inten    --     17.3142                15.9834                 9.4304

                     73                     74                     75
                      A                      A                      A
 Frequencies --   1443.6040              1481.4638              1487.9563
 Red. masses --      2.1800                 1.9490                 3.4224
 Frc consts  --      2.6767                 2.5202                 4.4643
 IR Inten    --     21.5015                60.6759                12.0171

                     76                     77                     78
                      A                      A                      A
 Frequencies --   1500.3814              1521.7920              1533.6213
 Red. masses --      1.2297                 1.0476                 1.0897
 Frc consts  --      1.6309                 1.4295                 1.5101
 IR Inten    --     12.0303                 5.6214                47.8609

                     79                     80                     81
                      A                      A                      A
 Frequencies --   1541.2743              1543.4338              1559.2216
 Red. masses --      1.3529                 1.4241                 2.4149
 Frc consts  --      1.8936                 1.9988                 3.4591
 IR Inten    --     31.4795                52.0250               122.9327

                     82                     83                     84
                      A                      A                      A
 Frequencies --   1564.9921              1631.8616              1644.8826
 Red. masses --      2.3753                 6.4491                 4.9415
 Frc consts  --      3.4276                10.1185                 7.8774
 IR Inten    --    127.3129                 7.1350                 7.8775

                     85                     86                     87
                      A                      A                      A
 Frequencies --   1652.8252              1672.9642              1673.9932
 Red. masses --      1.3064                 5.5791                 5.5549
 Frc consts  --      2.1027                 9.2000                 9.1714
 IR Inten    --     76.6961               170.0839                43.3245

                     88                     89                     90
                      A                      A                      A
 Frequencies --   1720.9163              2985.8641              3029.2341
 Red. masses --      4.6766                 1.0725                 1.0347
 Frc consts  --      8.1602                 5.6335                 5.5942
 IR Inten    --    102.3868                50.0538                62.9711

                     91                     92                     93
                      A                      A                      A
 Frequencies --   3089.6935              3090.5956              3165.3411
 Red. masses --      1.1067                 1.0894                 1.0999
 Frc consts  --      6.2244                 6.1307                 6.4932
 IR Inten    --     36.6379                13.9996                20.8700

                     94                     95                     96
                      A                      A                      A
 Frequencies --   3167.6652              3181.1697              3189.8373
 Red. masses --      1.0866                 1.0866                 1.0921
 Frc consts  --      6.4237                 6.4785                 6.5472
 IR Inten    --     15.3559                 2.8507                34.2482

                     97                     98                     99
                      A                      A                      A
 Frequencies --   3204.9301              3208.5696              3213.8865
 Red. masses --      1.0886                 1.0949                 1.0904
 Frc consts  --      6.5880                 6.6411                 6.6357
 IR Inten    --      6.7043                42.6366                 2.2880

                    100                    101                    102
                      A                      A                      A
 Frequencies --   3219.2089              3231.9541              3558.8468
 Red. masses --      1.0928                 1.0918                 1.0465
 Frc consts  --      6.6726                 6.7196                 7.8092
 IR Inten    --     10.1575                12.2300                27.8072

                    103                    104                    105
                      A                      A                      A
 Frequencies --   3581.9327              3662.9678              3785.5110
 Red. masses --      1.0758                 1.0992                 1.0679
 Frc consts  --      8.1323                 8.6895                 9.0162
 IR Inten    --     12.3889                21.2656                91.7861

 - Thermochemistry -
 -------------------
 Temperature   298.150 Kelvin.  Pressure   1.00000 Atm.
 Atom     1 has atomic number  6 and mass  12.00000

 Molecular mass:   271.13208 amu.
 Principal axes and moments of inertia in atomic units:
                           1         2         3
     Eigenvalues --  3572.23694********************
           X            0.99997  -0.00598  -0.00404
           Y            0.00599   0.99998   0.00220
           Z            0.00403  -0.00222   0.99999
 This molecule is an asymmetric top.
 Rotational symmetry number  1.
 Warning -- assumption of classical behavior for rotation
           may cause significant error
 Rotational temperatures (Kelvin)      0.02425     0.00744     0.00609
 Rotational constants (GHZ):           0.50521     0.15502     0.12685
 Zero-point vibrational energy     798339.0 (Joules/Mol)
                                  190.80760 (Kcal/Mol)
 Warning -- explicit consideration of  29 degrees of freedom as
           vibrations may cause significant error
 Vibrational temperatures:     25.22    42.97    65.67    77.11   119.59
          (Kelvin)            131.37   165.42   177.70   228.41   267.08
                              336.67   345.29   371.78   387.94   430.24
                              444.34   492.09   513.75   551.96   575.87
                              603.54   637.54   649.08   667.61   741.92
                              760.28   779.26   807.73   845.07   908.49
                              912.82   918.47   958.17  1013.58  1053.14
                             1090.35  1094.82  1125.66  1145.49  1182.87
                             1201.30  1253.01  1263.08  1348.98  1360.97
                             1366.02  1372.94  1395.48  1400.77  1454.69
                             1464.88  1524.69  1548.26  1585.66  1615.85
                             1636.85  1673.12  1704.48  1706.75  1714.42
                             1749.37  1753.44  1779.80  1802.99  1869.79
                             1880.46  1904.88  1944.95  1960.86  1979.11
                             1982.01  2019.70  2077.02  2131.50  2140.84
                             2158.71  2189.52  2206.54  2217.55  2220.66
                             2243.37  2251.67  2347.88  2366.62  2378.05
                             2407.02  2408.50  2476.01  4295.99  4358.39
                             4445.38  4446.68  4554.22  4557.56  4576.99
                             4589.46  4611.18  4616.42  4624.07  4631.72
                             4650.06  5120.39  5153.60  5270.19  5446.51

 Zero-point correction=                           0.304071 (Hartree/Particle)
 Thermal correction to Energy=                    0.322749
 Thermal correction to Enthalpy=                  0.323693
 Thermal correction to Gibbs Free Energy=         0.255311
 Sum of electronic and zero-point Energies=           -896.238643
 Sum of electronic and thermal Energies=              -896.219966
 Sum of electronic and thermal Enthalpies=            -896.219021
 Sum of electronic and thermal Free Energies=         -896.287404

                     E (Thermal)             CV                S
                      KCal/Mol        Cal/Mol-Kelvin    Cal/Mol-Kelvin
 Total                  202.528             71.860            143.923
 Electronic               0.000              0.000              0.000
 Translational            0.889              2.981             42.691
 Rotational               0.889              2.981             34.736
 Vibrational            200.751             65.898             66.496
 Vibration     1          0.593              1.986              6.896
 Vibration     2          0.594              1.984              5.838
 Vibration     3          0.595              1.979              4.998
 Vibration     4          0.596              1.976              4.680
 Vibration     5          0.600              1.961              3.816
 Vibration     6          0.602              1.955              3.632
 Vibration     7          0.608              1.937              3.183
 Vibration     8          0.610              1.929              3.045
 Vibration     9          0.621              1.893              2.565
 Vibration    10          0.632              1.859              2.271
 Vibration    11          0.654              1.789              1.848
 Vibration    12          0.657              1.779              1.803
 Vibration    13          0.667              1.749              1.673
 Vibration    14          0.674              1.729              1.599
 Vibration    15          0.692              1.676              1.422
 Vibration    16          0.698              1.657              1.369
 Vibration    17          0.721              1.591              1.203
 Vibration    18          0.732              1.561              1.135
 Vibration    19          0.753              1.505              1.025
 Vibration    20          0.766              1.470              0.962
 Vibration    21          0.782              1.428              0.894
 Vibration    22          0.803              1.376              0.817
 Vibration    23          0.810              1.358              0.792
 Vibration    24          0.822              1.330              0.755
 Vibration    25          0.871              1.215              0.620
 Vibration    26          0.883              1.187              0.591
 Vibration    27          0.897              1.158              0.562
 Vibration    28          0.917              1.115              0.521
 Vibration    29          0.944              1.059              0.472

 Optimization completed.
    -- Stationary point found.
 Normal termination of Gaussian 16 at Mon Dec 14 17:46:14 2020.

 ----------------------------------------------------------------------
 # B3LYP/6-311++G(d,p) empiricaldispersion=gd3bj scf=xqc pop=npa geom=c
 heck
 ----------------------------------------------------------------------

 ---------------------------------------
 CID_81701609_JID_10203_Energie_neutraal
 ---------------------------------------
 Structure from the checkpoint file:  "JID_10203.chk"
 Charge =  0 Multiplicity = 1

 SCF Done:  E(RB3LYP) =  -896.803812034     A.U. after   15 cycles
 Normal termination of Gaussian 16 at Mon Dec 14 17:53:25 2020.

 ----------------------------------------------------------------------
 # B3LYP/6-311++G(d,p) empiricaldispersion=gd3bj scf=xqc pop=npa geom=c
 heck
 ----------------------------------------------------------------------

 -------------------------------------
 CID_81701609_JID_10203_Energie_kation
 -------------------------------------
 Structure from the checkpoint file:  "JID_10203.chk"
 Charge =  1 Multiplicity = 2

 SCF Done:  E(UB3LYP) =  -896.545741353     A.U. after   26 cycles
 Normal termination of Gaussian 16 at Mon Dec 14 18:10:55 2020.
 Gaussian 16:  ES64L-G16RevA.03 25-Dec-2016

 ----------------------------------------------------------------------
 # B3LYP/6-311++G(d,p) empiricaldispersion=gd3bj scf=xqc pop=npa geom=c
 heck
 ----------------------------------------------------------------------

 ------------------------------------
 CID_81701609_JID_10203_Energie_anion
 ------------------------------------
 Structure from the checkpoint file:  "JID_10203.chk"
 Charge = -1 Multiplicity = 2

                         Standard orientation:
 ---------------------------------------------------------------------
 Center     Atomic      Atomic             Coordinates (Angstroms)
 Number     Number       Type             X           Y           Z
 ---------------------------------------------------------------------
      1          6           0        0.093860    4.110303    0.065897
      2          8           0        0.306471    2.747564   -0.263480
      3          6           0       -0.738046    1.884103   -0.148998
      4          6           0       -0.463340    0.539717   -0.485334
      5          6           0       -1.482686   -0.397198   -0.390222
      6          6           0       -2.778726   -0.043645    0.021105
      7          6           0       -3.031210    1.292886    0.339958
      8          6           0       -2.022384    2.253900    0.258890
      9          6           0       -3.842138   -1.064652    0.109537
     10          7           0       -3.720293   -2.131328   -0.612632
     11          8           0       -4.809691   -3.012722   -0.348622
     12          7           0       -4.935909   -0.796298    0.916291
     13          6           0        0.930097    0.124369   -0.883437
     14          7           0        1.755169   -0.057612    0.305098
     15          6           0        3.063607   -0.517396    0.209230
     16          6           0        3.715220   -0.992900    1.364586
     17          6           0        5.034851   -1.423104    1.309972
     18          6           0        5.746873   -1.392862    0.106974
     19          6           0        5.106877   -0.925762   -1.039481
     20          6           0        3.780400   -0.495590   -1.000439
     21          1           0        1.053314    4.606464   -0.086438
     22          1           0       -0.213639    4.224763    1.113217
     23          1           0       -0.662261    4.567940   -0.585168
     24          1           0       -1.282718   -1.433978   -0.641201
     25          1           0       -4.032928    1.600016    0.623816
     26          1           0       -2.251514    3.283936    0.503733
     27          1           0       -4.613361   -3.751128   -0.942711
     28          1           0       -4.724083   -0.299243    1.771660
     29          1           0       -5.531934   -1.603550    1.054339
     30          1           0        0.879735   -0.794267   -1.491039
     31          1           0        1.382188    0.904817   -1.503135
     32          1           0        1.241757   -0.428720    1.094459
     33          1           0        3.171805   -1.014296    2.306947
     34          1           0        5.512196   -1.786609    2.216388
     35          1           0        6.778158   -1.729754    0.066880
     36          1           0        5.640511   -0.898509   -1.986155
     37          1           0        3.306253   -0.142967   -1.909498
 ---------------------------------------------------------------------

 SCF Done:  E(UB3LYP) =  -896.794406410     A.U. after   33 cycles
 SCF Done:  E(UB3LYP) =  -896.794770766     a.u. after    8 cycles

 The electronic state is 2-A.
 Alpha  occ. eigenvalues --  -19.06358 -19.06287 -14.23810 -14.23598 -14.22577
 Alpha  occ. eigenvalues --  -10.14144 -10.13907 -10.13248 -10.12967 -10.11861
 Alpha  occ. eigenvalues --  -10.09580 -10.09571 -10.08870 -10.08829 -10.08722
 Alpha  occ. eigenvalues --  -10.08597 -10.08406 -10.08268 -10.08232 -10.07927
 Alpha  occ. eigenvalues --   -0.98075  -0.97797  -0.85296  -0.83639  -0.77065
 Alpha  occ. eigenvalues --   -0.75946  -0.73111  -0.69026  -0.66724  -0.66239
 Alpha  occ. eigenvalues --   -0.64754  -0.61490  -0.59006  -0.53415  -0.52836
 Alpha  occ. eigenvalues --   -0.51642  -0.50534  -0.46948  -0.45243  -0.44523
 Alpha  occ. eigenvalues --   -0.43627  -0.42716  -0.41116  -0.39627  -0.39093
 Alpha  occ. eigenvalues --   -0.37854  -0.37258  -0.36103  -0.35865  -0.34923
 Alpha  occ. eigenvalues --   -0.34763  -0.34194  -0.33289  -0.32485  -0.32225
 Alpha  occ. eigenvalues --   -0.31084  -0.29154  -0.28930  -0.28057  -0.27794
 Alpha  occ. eigenvalues --   -0.26828  -0.26254  -0.24772  -0.23677  -0.22142
 Alpha  occ. eigenvalues --   -0.21561  -0.18844  -0.17556  -0.16529  -0.14810
 Alpha  occ. eigenvalues --   -0.12110  -0.11777   0.03983
 Alpha virt. eigenvalues --    0.05509   0.05849   0.06138   0.06523   0.06787
 Alpha virt. eigenvalues --    0.07184   0.07567   0.07691   0.08235   0.08593
 Alpha virt. eigenvalues --    0.08919   0.09484   0.09928   0.10543   0.10876

  Beta  occ. eigenvalues --  -19.06332 -19.06266 -14.23732 -14.23586 -14.22535
  Beta  occ. eigenvalues --  -10.14085 -10.13888 -10.13247 -10.12923 -10.11860
  Beta  occ. eigenvalues --  -10.09575 -10.09567 -10.08871 -10.08820 -10.08719
  Beta  occ. eigenvalues --  -10.08595 -10.08354 -10.08262 -10.08190 -10.07927
  Beta  occ. eigenvalues --   -0.98022  -0.97726  -0.85280  -0.83569  -0.77029
  Beta  occ. eigenvalues --   -0.75910  -0.73004  -0.68982  -0.66708  -0.66158
  Beta  occ. eigenvalues --   -0.64728  -0.61416  -0.58970  -0.53389  -0.52725
  Beta  occ. eigenvalues --   -0.51616  -0.50506  -0.46881  -0.45200  -0.44459
  Beta  occ. eigenvalues --   -0.43562  -0.42660  -0.41092  -0.39592  -0.39060
  Beta  occ. eigenvalues --   -0.37776  -0.37215  -0.36073  -0.35830  -0.34865
  Beta  occ. eigenvalues --   -0.34733  -0.34180  -0.33260  -0.32430  -0.32096
  Beta  occ. eigenvalues --   -0.31002  -0.29136  -0.28843  -0.27986  -0.27756
  Beta  occ. eigenvalues --   -0.26786  -0.26240  -0.24615  -0.23631  -0.22057
  Beta  occ. eigenvalues --   -0.21535  -0.18751  -0.17539  -0.16436  -0.14615
  Beta  occ. eigenvalues --   -0.12094  -0.11492
  Beta virt. eigenvalues --    0.05480   0.06196   0.06488   0.06679   0.06738
  Beta virt. eigenvalues --    0.06891   0.07596   0.07709   0.08047   0.08280
  Beta virt. eigenvalues --    0.09022   0.09153   0.09532   0.10423   0.10780

 Mulliken charges and spin densities:
               1          2
     1  C    0.878192  -1.165307
     2  O   -0.162013   0.053472
     3  C   -0.085062  -0.297138
     4  C    0.289912   0.345601
     5  C   -1.035674   0.284439
     6  C    1.975194  -0.771044
     7  C   -0.499753  -0.108307
     8  C    0.218181  -0.309781
     9  C   -0.401313  -0.179060
    10  N   -0.312868  -0.050400
    11  O   -0.113651   0.042330
    12  N   -0.212041  -0.103090
    13  C   -0.426857  -0.192966
    14  N    0.147727   0.013214
    15  C   -0.111114  -0.455601
    16  C   -0.746214   0.455172
    17  C   -0.200102  -0.020920
    18  C   -0.046721  -0.277192
    19  C   -0.470027   0.284360
    20  C    0.974569  -0.338721
    21  H   -0.262040   0.429454
    22  H   -0.220548   0.384948
    23  H   -0.269817   0.426402
    24  H    0.096874   0.130939
    25  H   -0.201079   0.385416
    26  H   -0.529513   0.701883
    27  H    0.179568   0.087631
    28  H   -0.253510   0.497179
    29  H    0.112414   0.187022
    30  H    0.143004   0.007473
    31  H    0.185324   0.017386
    32  H    0.196581  -0.012658
    33  H   -0.151095   0.293582
    34  H    0.054347   0.099416
    35  H    0.071018   0.051553
    36  H    0.068520   0.092288
    37  H    0.119587   0.011025
 Sum of Mulliken charges =  -1.00000   1.00000

 Dipole moment (field-independent basis, Debye):
    X=              5.5739    Y=             -4.4443    Z=             -2.9627  Tot=              7.7200
 Quadrupole moment (field-independent basis, Debye-Ang):
   XX=           -209.1637   YY=           -178.0001   ZZ=           -145.1560
   XY=              2.4911   XZ=              5.7557   YZ=             -3.1141

 Summary of Natural Population Analysis:

                                       Natural Population
                Natural  -----------------------------------------------
    Atom  No    Charge         Core      Valence    Rydberg      Total
 -----------------------------------------------------------------------
      C    1   -0.10034      0.99960     2.09178    0.00897     3.10034
      O    2   -0.26963      0.99985     3.26024    0.00953     4.26963
      C    3    0.18034      0.99934     1.80704    0.01328     2.81966
      C    4   -0.04712      0.99947     2.03743    0.01022     3.04712
      C    5   -0.07507      0.99949     2.06592    0.00966     3.07507
      C    6   -0.05219      0.99947     2.04169    0.01104     3.05219
      C    7   -0.07530      0.99954     2.06548    0.01028     3.07530
      C    8   -0.14248      0.99952     2.13369    0.00926     3.14248
      C    9    0.19302      0.99959     1.78860    0.01879     2.80698
      N   10   -0.11790      0.99962     2.60602    0.01227     3.61790
      O   11   -0.30523      0.99990     3.29929    0.00604     4.30523
      N   12   -0.40377      0.99971     2.89413    0.00994     3.90377
      C   13   -0.09348      0.99959     2.08372    0.01017     3.09348
      N   14   -0.30251      0.99967     2.79359    0.00925     3.80251
      C   15    0.09483      0.99950     1.89543    0.01023     2.90517
      C   16   -0.12083      0.99953     2.11234    0.00896     3.12083
      C   17   -0.09599      0.99957     2.08652    0.00989     3.09599
      C   18   -0.13293      0.99957     2.12267    0.01069     3.13293
      C   19   -0.09307      0.99958     2.08374    0.00976     3.09307
      C   20   -0.13538      0.99953     2.12792    0.00793     3.13538
      H   21    0.09409      0.00000     0.40489    0.00102     0.40591
      H   22    0.08668      0.00000     0.41161    0.00170     0.41332
      H   23    0.08657      0.00000     0.41145    0.00198     0.41343
      H   24    0.10954      0.00000     0.38882    0.00164     0.39046
      H   25    0.10651      0.00000     0.39206    0.00143     0.39349
      H   26    0.10852      0.00000     0.38968    0.00180     0.39148
      H   27    0.23383      0.00000     0.26284    0.00334     0.26617
      H   28    0.19407      0.00000     0.30095    0.00498     0.30593
      H   29    0.19776      0.00000     0.30020    0.00204     0.30224
      H   30    0.08758      0.00000     0.40978    0.00264     0.41242
      H   31    0.10403      0.00000     0.39431    0.00165     0.39597
      H   32    0.18642      0.00000     0.31075    0.00283     0.31358
      H   33    0.10093      0.00000     0.39805    0.00102     0.39907
      H   34    0.09884      0.00000     0.40037    0.00079     0.40116
      H   35    0.09844      0.00000     0.40078    0.00078     0.40156
      H   36    0.09781      0.00000     0.40140    0.00079     0.40219
      H   37    0.10342      0.00000     0.39558    0.00099     0.39658
 =======================================================================
   * Total *   -0.00000     19.99164    51.77077    0.23759    72.00000

 Normal termination of Gaussian 16 at Mon Dec 14 20:50:06 2020.
