 Gaussian 16, Revision A.03,

 -----------------------------------------------------------
 # opt freq B3LYP/6-31G(d) empiricaldispersion=gd3bj scf=xqc
 -----------------------------------------------------------

 ------------------------------
 CID_69777095_JID_1053_neutraal
 ------------------------------
 Symbolic Z-matrix:
 Charge =  0 Multiplicity = 1

 SCF Done:  E(RB3LYP) =  -564.804869337     A.U. after   15 cycles
 SCF Done:  E(RB3LYP) =  -564.810498805     A.U. after   12 cycles
 SCF Done:  E(RB3LYP) =  -564.811993686     A.U. after   12 cycles
 SCF Done:  E(RB3LYP) =  -564.812829797     A.U. after   12 cycles
 SCF Done:  E(RB3LYP) =  -564.813124470     A.U. after   12 cycles
 SCF Done:  E(RB3LYP) =  -564.813484708     A.U. after   11 cycles
 SCF Done:  E(RB3LYP) =  -564.813863620     A.U. after   12 cycles
 SCF Done:  E(RB3LYP) =  -564.814053746     A.U. after   12 cycles
 SCF Done:  E(RB3LYP) =  -564.814241362     A.U. after   11 cycles
 SCF Done:  E(RB3LYP) =  -564.814499605     A.U. after   12 cycles
 SCF Done:  E(RB3LYP) =  -564.814855898     A.U. after   12 cycles
 SCF Done:  E(RB3LYP) =  -564.814861174     A.U. after   12 cycles
 SCF Done:  E(RB3LYP) =  -564.814861271     A.U. after   10 cycles
 SCF Done:  E(RB3LYP) =  -564.814861319     A.U. after    9 cycles
 SCF Done:  E(RB3LYP) =  -564.814861328     A.U. after    9 cycles
 SCF Done:  E(RB3LYP) =  -564.814861366     A.U. after    8 cycles
 Optimization completed.
    -- Stationary point found.
 Normal termination of Gaussian 16 at Tue Dec  8 19:17:16 2020.

 --------------------------------------------------------------------
 #N Geom=AllCheck Guess=TCheck SCRF=Check GenChk RB3LYP/6-31G(d) Freq
 --------------------------------------------------------------------

 Structure from the checkpoint file:  "JID_1053.chk"
 ------------------------------
 CID_69777095_JID_1053_neutraal
 ------------------------------
 Charge =  0 Multiplicity = 1

 SCF Done:  E(RB3LYP) =  -564.814861366     A.U. after    1 cycles

  Exact polarizability: 112.341   0.048  87.558   4.024  -0.294  43.908
 Approx polarizability: 146.595   0.435 149.131   5.653   2.087  66.274

                      1                      2                      3
                      A                      A                      A
 Frequencies --     13.2870                70.4619               101.5185
 Red. masses --      7.1100                 4.3052                 1.0248
 Frc consts  --      0.0007                 0.0126                 0.0062
 IR Inten    --      2.4528                 6.3763                 6.5542

                      4                      5                      6
                      A                      A                      A
 Frequencies --    123.7014               160.8456               191.2485
 Red. masses --      4.3100                 4.3034                 1.1388
 Frc consts  --      0.0389                 0.0656                 0.0245
 IR Inten    --      2.4319                 4.7508                34.1846

                      7                      8                      9
                      A                      A                      A
 Frequencies --    247.6154               266.5655               288.8748
 Red. masses --      4.0208                 4.2953                 3.3392
 Frc consts  --      0.1453                 0.1798                 0.1642
 IR Inten    --      9.9236                10.7656                 3.8589

                     10                     11                     12
                      A                      A                      A
 Frequencies --    355.9974               375.2003               408.8227
 Red. masses --      8.2252                 3.2868                 1.2948
 Frc consts  --      0.6142                 0.2726                 0.1275
 IR Inten    --     10.6759                22.7694               259.4077

                     13                     14                     15
                      A                      A                      A
 Frequencies --    500.1206               523.3413               603.0277
 Red. masses --      1.1373                 3.6275                 3.8227
 Frc consts  --      0.1676                 0.5854                 0.8190
 IR Inten    --     19.9924                 3.1830                 8.8142

                     16                     17                     18
                      A                      A                      A
 Frequencies --    632.8576               663.3251               695.2043
 Red. masses --      7.0675                 4.9861                 6.1986
 Frc consts  --      1.6677                 1.2926                 1.7651
 IR Inten    --     10.9585                 5.2424                17.0631

                     19                     20                     21
                      A                      A                      A
 Frequencies --    752.8072               775.4834               809.7262
 Red. masses --     10.7445                 4.4461                 6.1687
 Frc consts  --      3.5876                 1.5753                 2.3830
 IR Inten    --     30.9030                47.0763                21.5516

                     22                     23                     24
                      A                      A                      A
 Frequencies --    836.2382               855.5568               963.1620
 Red. masses --      1.5046                 1.2912                 5.4885
 Frc consts  --      0.6199                 0.5568                 2.9999
 IR Inten    --    194.4293                14.5377                 9.2452

                     25                     26                     27
                      A                      A                      A
 Frequencies --   1025.0753              1086.9817              1130.2387
 Red. masses --      2.2191                 2.2345                 1.8153
 Frc consts  --      1.3738                 1.5555                 1.3662
 IR Inten    --     51.6847                52.5678                36.8662

                     28                     29                     30
                      A                      A                      A
 Frequencies --   1160.1695              1219.8410              1242.3043
 Red. masses --      1.3067                 1.4419                 2.9035
 Frc consts  --      1.0363                 1.2641                 2.6401
 IR Inten    --      7.5268                 3.0739                80.2202

                     31                     32                     33
                      A                      A                      A
 Frequencies --   1263.8686              1337.9813              1373.4840
 Red. masses --      2.3659                 4.8903                 3.9107
 Frc consts  --      2.2267                 5.1581                 4.3466
 IR Inten    --      5.2777               146.0622               505.2601

                     34                     35                     36
                      A                      A                      A
 Frequencies --   1419.1638              1455.8035              1474.8554
 Red. masses --      7.4947                 1.8606                 2.0209
 Frc consts  --      8.8935                 2.3233                 2.5900
 IR Inten    --     37.5271                65.7355                75.6275

                     37                     38                     39
                      A                      A                      A
 Frequencies --   1516.7081              1533.5545              1575.5097
 Red. masses --      1.1010                 1.1571                 4.0905
 Frc consts  --      1.4923                 1.6034                 5.9823
 IR Inten    --      6.4720                 1.0150                20.9221

                     40                     41                     42
                      A                      A                      A
 Frequencies --   1641.9507              1651.7461              1698.7276
 Red. masses --      1.3238                 2.5563                 1.4008
 Frc consts  --      2.1028                 4.1091                 2.3817
 IR Inten    --    154.6835                15.8318                66.1885

                     43                     44                     45
                      A                      A                      A
 Frequencies --   1861.8009              3049.5208              3126.9120
 Red. masses --     10.3126                 1.0442                 1.0926
 Frc consts  --     21.0613                 5.7212                 6.2944
 IR Inten    --    317.8710                60.0839                14.0871

                     46                     47                     48
                      A                      A                      A
 Frequencies --   3178.1116              3309.6241              3483.0536
 Red. masses --      1.1040                 1.0972                 1.0526
 Frc consts  --      6.5696                 7.0813                 7.5236
 IR Inten    --      3.5466                 0.1163                 2.8177

                     49                     50                     51
                      A                      A                      A
 Frequencies --   3585.4988              3602.8620              3723.7239
 Red. masses --      1.0904                 1.0460                 1.1036
 Frc consts  --      8.2588                 7.9994                 9.0161
 IR Inten    --      9.9955                52.1610                44.4882

 - Thermochemistry -
 -------------------
 Temperature   298.150 Kelvin.  Pressure   1.00000 Atm.
 Atom     1 has atomic number  6 and mass  12.00000

 Molecular mass:   156.06473 amu.
 Principal axes and moments of inertia in atomic units:
                           1         2         3
     Eigenvalues --   680.659312665.120193273.81379
           X            0.99997   0.00092   0.00794
           Y           -0.00084   0.99994  -0.01052
           Z           -0.00794   0.01051   0.99991
 This molecule is an asymmetric top.
 Rotational symmetry number  1.
 Warning -- assumption of classical behavior for rotation
           may cause significant error
 Rotational temperatures (Kelvin)      0.12725     0.03250     0.02646
 Rotational constants (GHZ):           2.65146     0.67717     0.55127
 Zero-point vibrational energy     388451.7 (Joules/Mol)
                                   92.84220 (Kcal/Mol)
 Warning -- explicit consideration of  15 degrees of freedom as
           vibrations may cause significant error
 Vibrational temperatures:     19.12   101.38   146.06   177.98   231.42
          (Kelvin)            275.16   356.26   383.53   415.63   512.20
                              539.83   588.20   719.56   752.97   867.62
                              910.54   954.38  1000.24  1083.12  1115.75
                             1165.02  1203.16  1230.96  1385.78  1474.85
                             1563.92  1626.16  1669.23  1755.08  1787.40
                             1818.43  1925.06  1976.14  2041.86  2094.58
                             2121.99  2182.20  2206.44  2266.81  2362.40
                             2376.49  2444.09  2678.72  4387.58  4498.93
                             4572.59  4761.81  5011.34  5158.73  5183.71
                             5357.61

 Zero-point correction=                           0.147953 (Hartree/Particle)
 Thermal correction to Energy=                    0.159098
 Thermal correction to Enthalpy=                  0.160042
 Thermal correction to Gibbs Free Energy=         0.109495
 Sum of electronic and zero-point Energies=           -564.666908
 Sum of electronic and thermal Energies=              -564.655764
 Sum of electronic and thermal Enthalpies=            -564.654820
 Sum of electronic and thermal Free Energies=         -564.705367

                     E (Thermal)             CV                S
                      KCal/Mol        Cal/Mol-Kelvin    Cal/Mol-Kelvin
 Total                   99.835             39.601            106.386
 Electronic               0.000              0.000              0.000
 Translational            0.889              2.981             41.045
 Rotational               0.889              2.981             30.164
 Vibrational             98.058             33.639             35.177
 Vibration     1          0.593              1.987              7.446
 Vibration     2          0.598              1.968              4.140
 Vibration     3          0.604              1.948              3.425
 Vibration     4          0.610              1.929              3.042
 Vibration     5          0.622              1.890              2.540
 Vibration     6          0.634              1.852              2.216
 Vibration     7          0.661              1.767              1.747
 Vibration     8          0.672              1.734              1.618
 Vibration     9          0.685              1.694              1.481
 Vibration    10          0.732              1.563              1.140
 Vibration    11          0.746              1.523              1.058
 Vibration    12          0.773              1.451              0.931
 Vibration    13          0.856              1.250              0.658
 Vibration    14          0.878              1.198              0.602
 Vibration    15          0.961              1.025              0.444

 Optimization completed.
    -- Stationary point found.
 Normal termination of Gaussian 16 at Tue Dec  8 19:20:15 2020.

 ----------------------------------------------------------------------
 # B3LYP/6-311++G(d,p) empiricaldispersion=gd3bj scf=xqc pop=npa geom=c
 heck
 ----------------------------------------------------------------------

 --------------------------------------
 CID_69777095_JID_1053_Energie_neutraal
 --------------------------------------
 Structure from the checkpoint file:  "JID_1053.chk"
 Charge =  0 Multiplicity = 1

 SCF Done:  E(RB3LYP) =  -564.992146725     A.U. after   14 cycles
 Normal termination of Gaussian 16 at Tue Dec  8 19:21:04 2020.

 ----------------------------------------------------------------------
 # B3LYP/6-311++G(d,p) empiricaldispersion=gd3bj scf=xqc pop=npa geom=c
 heck
 ----------------------------------------------------------------------

 ------------------------------------
 CID_69777095_JID_1053_Energie_kation
 ------------------------------------
 Structure from the checkpoint file:  "JID_1053.chk"
 Charge =  1 Multiplicity = 2

 SCF Done:  E(UB3LYP) =  -564.698726091     A.U. after   23 cycles
 Normal termination of Gaussian 16 at Tue Dec  8 19:23:08 2020.
 Gaussian 16:  ES64L-G16RevA.03 25-Dec-2016

 ----------------------------------------------------------------------
 # B3LYP/6-311++G(d,p) empiricaldispersion=gd3bj scf=xqc pop=npa geom=c
 heck
 ----------------------------------------------------------------------

 -----------------------------------
 CID_69777095_JID_1053_Energie_anion
 -----------------------------------
 Structure from the checkpoint file:  "JID_1053.chk"
 Charge = -1 Multiplicity = 2

                         Standard orientation:
 ---------------------------------------------------------------------
 Center     Atomic      Atomic             Coordinates (Angstroms)
 Number     Number       Type             X           Y           Z
 ---------------------------------------------------------------------
      1          6           0       -3.501917   -0.015679   -0.144024
      2          7           0       -2.088874   -0.271686    0.017207
      3          6           0       -1.085194    0.648197    0.006030
      4          6           0        0.085363   -0.075349    0.166893
      5          6           0       -0.302873   -1.428368    0.251033
      6          7           0       -1.626693   -1.543882    0.138543
      7          8           0        1.308548    0.565942    0.284490
      8          6           0        2.445336   -0.101202   -0.090539
      9          8           0        2.490151   -1.241823   -0.492490
     10          7           0        3.516032    0.742321    0.039485
     11          7           0       -1.325705    2.028597   -0.064553
     12          1           0       -3.743342    0.943389    0.321633
     13          1           0       -3.791475    0.011676   -1.201989
     14          1           0       -4.045523   -0.820883    0.351578
     15          1           0        0.319946   -2.301597    0.359009
     16          1           0        3.414817    1.566573    0.613383
     17          1           0        4.422706    0.300149    0.020402
     18          1           0       -0.466797    2.535889    0.127718
     19          1           0       -1.667524    2.318806   -0.978859
 ---------------------------------------------------------------------

 SCF Done:  E(UB3LYP) =  -564.986081553     A.U. after   28 cycles

 The electronic state is 2-A.
 Alpha  occ. eigenvalues --  -19.07542 -18.99975 -14.28177 -14.23018 -14.21997
 Alpha  occ. eigenvalues --  -14.21798 -10.22435 -10.13337 -10.11631 -10.11142
 Alpha  occ. eigenvalues --  -10.08391  -1.01599  -0.94808  -0.92560  -0.81383
 Alpha  occ. eigenvalues --   -0.80919  -0.73730  -0.66553  -0.60576  -0.55683
 Alpha  occ. eigenvalues --   -0.48814  -0.46703  -0.45272  -0.42179  -0.40694
 Alpha  occ. eigenvalues --   -0.39335  -0.37980  -0.36593  -0.35976  -0.34080
 Alpha  occ. eigenvalues --   -0.33022  -0.30640  -0.30045  -0.28792  -0.24567
 Alpha  occ. eigenvalues --   -0.21376  -0.19292  -0.18613  -0.18078  -0.14014
 Alpha  occ. eigenvalues --   -0.10992   0.04068
 Alpha virt. eigenvalues --    0.06090   0.07953   0.09385   0.10087   0.10572
 Alpha virt. eigenvalues --    0.11379   0.12197   0.12930   0.13277   0.13554
 Alpha virt. eigenvalues --    0.14134   0.14981   0.16945   0.17289   0.17737

  Beta  occ. eigenvalues --  -19.07516 -18.99969 -14.28178 -14.22935 -14.21993
  Beta  occ. eigenvalues --  -14.21718 -10.22429 -10.13332 -10.11628 -10.11109
  Beta  occ. eigenvalues --  -10.08391  -1.01569  -0.94796  -0.92537  -0.81276
  Beta  occ. eigenvalues --   -0.80806  -0.73706  -0.66494  -0.60530  -0.55637
  Beta  occ. eigenvalues --   -0.48750  -0.46642  -0.45187  -0.42104  -0.40622
  Beta  occ. eigenvalues --   -0.39275  -0.37936  -0.36561  -0.35937  -0.34044
  Beta  occ. eigenvalues --   -0.32998  -0.30612  -0.30014  -0.28763  -0.24540
  Beta  occ. eigenvalues --   -0.21318  -0.19265  -0.18576  -0.18032  -0.14001
  Beta  occ. eigenvalues --   -0.10959
  Beta virt. eigenvalues --    0.06846   0.07634   0.09024   0.10148   0.10539
  Beta virt. eigenvalues --    0.11152   0.11614   0.12584   0.13064   0.13741
  Beta virt. eigenvalues --    0.13929   0.14295   0.14902   0.16936   0.17505

 Mulliken charges and spin densities:
               1          2
     1  C    0.456162  -0.836895
     2  N    0.157091  -0.001802
     3  C   -0.013947   0.234177
     4  C    0.494253  -0.684873
     5  C    0.416095  -0.594782
     6  N   -0.395663   0.093912
     7  O   -0.179666  -0.010443
     8  C    0.555719  -0.394058
     9  O   -0.307757  -0.033751
    10  N   -0.359378  -0.009963
    11  N   -0.377798  -0.014784
    12  H   -0.125124   0.302829
    13  H   -0.246163   0.423959
    14  H    0.052692   0.099202
    15  H    0.192779   0.001412
    16  H   -0.406089   0.682432
    17  H   -0.288313   0.568023
    18  H   -0.241144   0.523502
    19  H   -0.383749   0.651903
 Sum of Mulliken charges =  -1.00000   1.00000

 Dipole moment (field-independent basis, Debye):
    X=             -2.8585    Y=             -4.1232    Z=              1.2131  Tot=              5.1617
 Quadrupole moment (field-independent basis, Debye-Ang):
   XX=           -124.9539   YY=           -107.8087   ZZ=            -86.2383
   XY=             -2.0338   XZ=             -4.3837   YZ=             -0.3019

 Summary of Natural Population Analysis:

                                       Natural Population
                Natural  -----------------------------------------------
    Atom  No    Charge         Core      Valence    Rydberg      Total
 -----------------------------------------------------------------------
      C    1   -0.17627      0.99964     2.16839    0.00824     3.17627
      N    2   -0.11656      0.99963     2.60405    0.01288     3.61656
      C    3    0.16093      0.99945     1.82531    0.01431     2.83907
      C    4    0.07699      0.99924     1.90945    0.01432     2.92301
      C    5   -0.02539      0.99958     2.01147    0.01433     3.02539
      N    6   -0.16427      0.99974     2.65334    0.01119     3.66427
      O    7   -0.27616      0.99984     3.26615    0.01016     4.27616
      C    8    0.45860      0.99972     1.51643    0.02525     2.54140
      O    9   -0.32461      0.99987     3.31892    0.00582     4.32461
      N   10   -0.40467      0.99971     2.89673    0.00822     3.90467
      N   11   -0.40899      0.99973     2.89936    0.00990     3.90899
      H   12    0.10660      0.00000     0.39220    0.00120     0.39340
      H   13    0.09609      0.00000     0.40251    0.00141     0.40391
      H   14    0.10406      0.00000     0.39458    0.00136     0.39594
      H   15    0.10724      0.00000     0.39178    0.00098     0.39276
      H   16    0.20279      0.00000     0.28410    0.01312     0.29721
      H   17    0.19777      0.00000     0.29840    0.00382     0.30223
      H   18    0.19508      0.00000     0.30040    0.00452     0.30492
      H   19    0.19077      0.00000     0.29973    0.00950     0.30923
 =======================================================================
   * Total *   -0.00000     10.99616    29.83331    0.17054    41.00000

 Normal termination of Gaussian 16 at Tue Dec  8 19:25:40 2020.
