 Gaussian 16, Revision A.03,

 -----------------------------------------------------------
 # opt freq B3LYP/6-31G(d) empiricaldispersion=gd3bj scf=xqc
 -----------------------------------------------------------

 -------------------------------
 CID_131022562_JID_1686_neutraal
 -------------------------------
 Symbolic Z-matrix:
 Charge =  0 Multiplicity = 1

 SCF Done:  E(RB3LYP) =  -515.266235602     A.U. after   13 cycles
 SCF Done:  E(RB3LYP) =  -515.276389095     A.U. after   11 cycles
 SCF Done:  E(RB3LYP) =  -515.277383630     A.U. after   11 cycles
 SCF Done:  E(RB3LYP) =  -515.277615891     A.U. after   11 cycles
 SCF Done:  E(RB3LYP) =  -515.277688747     A.U. after   10 cycles
 SCF Done:  E(RB3LYP) =  -515.277721152     A.U. after   10 cycles
 SCF Done:  E(RB3LYP) =  -515.277752235     A.U. after   10 cycles
 SCF Done:  E(RB3LYP) =  -515.277761578     A.U. after   10 cycles
 SCF Done:  E(RB3LYP) =  -515.277773083     A.U. after   10 cycles
 SCF Done:  E(RB3LYP) =  -515.277782922     A.U. after   11 cycles
 SCF Done:  E(RB3LYP) =  -515.277785778     A.U. after    9 cycles
 SCF Done:  E(RB3LYP) =  -515.277787246     A.U. after    9 cycles
 SCF Done:  E(RB3LYP) =  -515.277787332     A.U. after    7 cycles
 SCF Done:  E(RB3LYP) =  -515.277787339     A.U. after    7 cycles
 Optimization completed.
    -- Stationary point found.
 Normal termination of Gaussian 16 at Tue Dec  8 20:50:25 2020.

 --------------------------------------------------------------------
 #N Geom=AllCheck Guess=TCheck SCRF=Check GenChk RB3LYP/6-31G(d) Freq
 --------------------------------------------------------------------

 Structure from the checkpoint file:  "JID_1686.chk"
 -------------------------------
 CID_131022562_JID_1686_neutraal
 -------------------------------
 Charge =  0 Multiplicity = 1

 SCF Done:  E(RB3LYP) =  -515.277787339     A.U. after    1 cycles

  Exact polarizability: 121.497  -1.700  88.805  -2.505  -4.932  77.668
 Approx polarizability: 145.667  -1.069 123.595  -9.487 -10.907 122.179

                      1                      2                      3
                      A                      A                      A
 Frequencies --     22.9429                34.6318                57.0351
 Red. masses --      4.1704                 4.1515                 2.9247
 Frc consts  --      0.0013                 0.0029                 0.0056
 IR Inten    --      2.1325                 1.6751                 0.3646

                      4                      5                      6
                      A                      A                      A
 Frequencies --     73.3088               109.9925               195.5428
 Red. masses --      3.4737                 2.3183                 4.1685
 Frc consts  --      0.0110                 0.0165                 0.0939
 IR Inten    --      2.5636                 0.1223                 4.4115

                      7                      8                      9
                      A                      A                      A
 Frequencies --    217.2458               264.5070               279.0938
 Red. masses --      1.6745                 3.3162                 1.4788
 Frc consts  --      0.0466                 0.1367                 0.0679
 IR Inten    --      2.7345                 0.2106                 1.0183

                     10                     11                     12
                      A                      A                      A
 Frequencies --    352.1904               377.3976               385.7690
 Red. masses --      3.0085                 2.2258                 1.2602
 Frc consts  --      0.2199                 0.1868                 0.1105
 IR Inten    --      0.7739                 2.8897                76.1991

                     13                     14                     15
                      A                      A                      A
 Frequencies --    397.1303               474.1500               488.7727
 Red. masses --      2.2292                 1.8433                 1.3590
 Frc consts  --      0.2071                 0.2442                 0.1913
 IR Inten    --      7.9268                 8.8755                27.0503

                     16                     17                     18
                      A                      A                      A
 Frequencies --    523.7943               573.7197               597.9880
 Red. masses --      2.6547                 2.5305                 1.3727
 Frc consts  --      0.4291                 0.4907                 0.2892
 IR Inten    --      8.0936                20.8580               182.0489

                     19                     20                     21
                      A                      A                      A
 Frequencies --    669.8144               768.8224               786.5246
 Red. masses --      2.6470                 4.7854                 1.7923
 Frc consts  --      0.6997                 1.6666                 0.6533
 IR Inten    --     12.2576                64.7198                 9.2834

                     22                     23                     24
                      A                      A                      A
 Frequencies --    835.5467               888.7124               911.7239
 Red. masses --      2.0411                 2.5249                 1.2561
 Frc consts  --      0.8396                 1.1749                 0.6152
 IR Inten    --     16.9588                 0.6766                 1.6347

                     25                     26                     27
                      A                      A                      A
 Frequencies --    922.6879               960.0604               989.2391
 Red. masses --      1.2908                 4.2153                 3.0651
 Frc consts  --      0.6475                 2.2891                 1.7673
 IR Inten    --      3.1343                 3.8187                 0.5103

                     28                     29                     30
                      A                      A                      A
 Frequencies --   1016.5760              1058.7765              1068.6866
 Red. masses --      3.3842                 1.7857                 2.8018
 Frc consts  --      2.0606                 1.1794                 1.8854
 IR Inten    --     11.2542                10.6860                 3.1832

                     31                     32                     33
                      A                      A                      A
 Frequencies --   1108.3651              1134.2526              1136.9523
 Red. masses --      1.8929                 1.2497                 1.3963
 Frc consts  --      1.3701                 0.9473                 1.0634
 IR Inten    --     22.5017                 7.5455                 4.7777

                     34                     35                     36
                      A                      A                      A
 Frequencies --   1160.3684              1167.5173              1189.2702
 Red. masses --      1.8277                 1.9272                 2.3673
 Frc consts  --      1.4499                 1.5478                 1.9727
 IR Inten    --     43.5548                 1.6414                 4.2101

                     37                     38                     39
                      A                      A                      A
 Frequencies --   1226.9133              1258.0362              1284.7865
 Red. masses --      1.7737                 2.8162                 1.2811
 Frc consts  --      1.5731                 2.6260                 1.2460
 IR Inten    --     12.8037                65.1976                 3.6695

                     40                     41                     42
                      A                      A                      A
 Frequencies --   1292.1042              1308.4254              1344.2496
 Red. masses --      1.2764                 1.2553                 1.2480
 Frc consts  --      1.2556                 1.2662                 1.3287
 IR Inten    --      1.2136                 5.9472                 2.9315

                     43                     44                     45
                      A                      A                      A
 Frequencies --   1348.2862              1385.9256              1400.9136
 Red. masses --      1.4710                 1.3745                 1.3629
 Frc consts  --      1.5755                 1.5555                 1.5759
 IR Inten    --     38.5403                 3.8452                 7.0117

                     46                     47                     48
                      A                      A                      A
 Frequencies --   1426.4483              1439.0208              1446.1976
 Red. masses --      1.4346                 3.1948                 1.3338
 Frc consts  --      1.7199                 3.8979                 1.6436
 IR Inten    --     38.2926               237.0441                22.6027

                     49                     50                     51
                      A                      A                      A
 Frequencies --   1491.4743              1508.6648              1514.7702
 Red. masses --      1.8271                 1.0786                 1.0833
 Frc consts  --      2.3947                 1.4464                 1.4645
 IR Inten    --     86.2554                 2.3668                 6.8420

                     52                     53                     54
                      A                      A                      A
 Frequencies --   1527.0041              1531.3710              1540.0096
 Red. masses --      1.0853                 1.0519                 1.0554
 Frc consts  --      1.4910                 1.4535                 1.4747
 IR Inten    --      1.2621                 4.7615                10.0701

                     55                     56                     57
                      A                      A                      A
 Frequencies --   1555.0805              1659.4122              1823.3753
 Red. masses --      1.1251                 1.1955                 6.7588
 Frc consts  --      1.6031                 1.9395                13.2396
 IR Inten    --     11.5319               145.9507               521.7342

                     58                     59                     60
                      A                      A                      A
 Frequencies --   2909.5102              2953.7592              2987.2328
 Red. masses --      1.0729                 1.0702                 1.0677
 Frc consts  --      5.3512                 5.5013                 5.6136
 IR Inten    --     60.2447                66.3694                48.7134

                     61                     62                     63
                      A                      A                      A
 Frequencies --   3039.5527              3048.6565              3064.3895
 Red. masses --      1.0639                 1.0390                 1.0865
 Frc consts  --      5.7914                 5.6897                 6.0113
 IR Inten    --     23.7826                24.1351                45.9976

                     64                     65                     66
                      A                      A                      A
 Frequencies --   3077.8882              3082.0198              3088.1213
 Red. masses --      1.0960                 1.0994                 1.0917
 Frc consts  --      6.1174                 6.1529                 6.1338
 IR Inten    --     31.0420                20.0359                39.4523

                     67                     68                     69
                      A                      A                      A
 Frequencies --   3111.2357              3111.9453              3131.3992
 Red. masses --      1.0952                 1.0938                 1.1005
 Frc consts  --      6.2460                 6.2412                 6.3581
 IR Inten    --     13.3177                59.4715                49.9899

                     70                     71                     72
                      A                      A                      A
 Frequencies --   3563.7010              3632.3952              3674.3727
 Red. masses --      1.0479                 1.0767                 1.0991
 Frc consts  --      7.8412                 8.3702                 8.7432
 IR Inten    --     16.0323                26.3614                26.9667

 - Thermochemistry -
 -------------------
 Temperature   298.150 Kelvin.  Pressure   1.00000 Atm.
 Atom     1 has atomic number  6 and mass  12.00000

 Molecular mass:   157.12151 amu.
 Principal axes and moments of inertia in atomic units:
                           1         2         3
     Eigenvalues --   634.084884180.032704480.83762
           X            0.99994   0.00338   0.01001
           Y           -0.00327   0.99993  -0.01135
           Z           -0.01005   0.01132   0.99989
 This molecule is an asymmetric top.
 Rotational symmetry number  1.
 Warning -- assumption of classical behavior for rotation
           may cause significant error
 Rotational temperatures (Kelvin)      0.13660     0.02072     0.01933
 Rotational constants (GHZ):           2.84621     0.43175     0.40277
 Zero-point vibrational energy     604040.9 (Joules/Mol)
                                  144.36925 (Kcal/Mol)
 Warning -- explicit consideration of  18 degrees of freedom as
           vibrations may cause significant error
 Vibrational temperatures:     33.01    49.83    82.06   105.48   158.25
          (Kelvin)            281.34   312.57   380.57   401.55   506.72
                              542.99   555.04   571.38   682.20   703.23
                              753.62   825.45   860.37   963.71  1106.16
                             1131.63  1202.17  1278.66  1311.77  1327.54
                             1381.31  1423.29  1462.63  1523.34  1537.60
                             1594.69  1631.94  1635.82  1669.51  1679.80
                             1711.09  1765.25  1810.03  1848.52  1859.05
                             1882.53  1934.08  1939.88  1994.04  2015.60
                             2052.34  2070.43  2080.76  2145.90  2170.63
                             2179.42  2197.02  2203.30  2215.73  2237.41
                             2387.52  2623.43  4186.14  4249.80  4297.96
                             4373.24  4386.34  4408.97  4428.39  4434.34
                             4443.12  4476.37  4477.40  4505.39  5127.37
                             5226.21  5286.60

 Zero-point correction=                           0.230067 (Hartree/Particle)
 Thermal correction to Energy=                    0.242314
 Thermal correction to Enthalpy=                  0.243258
 Thermal correction to Gibbs Free Energy=         0.189713
 Sum of electronic and zero-point Energies=           -515.047720
 Sum of electronic and thermal Energies=              -515.035473
 Sum of electronic and thermal Enthalpies=            -515.034529
 Sum of electronic and thermal Free Energies=         -515.088074

                     E (Thermal)             CV                S
                      KCal/Mol        Cal/Mol-Kelvin    Cal/Mol-Kelvin
 Total                  152.054             44.574            112.695
 Electronic               0.000              0.000              0.000
 Translational            0.889              2.981             41.065
 Rotational               0.889              2.981             30.852
 Vibrational            150.277             38.612             40.778
 Vibration     1          0.593              1.985              6.362
 Vibration     2          0.594              1.983              5.545
 Vibration     3          0.596              1.975              4.557
 Vibration     4          0.599              1.967              4.062
 Vibration     5          0.606              1.941              3.269
 Vibration     6          0.636              1.846              2.175
 Vibration     7          0.646              1.815              1.982
 Vibration     8          0.671              1.738              1.632
 Vibration     9          0.679              1.712              1.539
 Vibration    10          0.729              1.571              1.156
 Vibration    11          0.748              1.518              1.050
 Vibration    12          0.754              1.501              1.016
 Vibration    13          0.764              1.476              0.973
 Vibration    14          0.831              1.307              0.726
 Vibration    15          0.845              1.275              0.687
 Vibration    16          0.879              1.197              0.601
 Vibration    17          0.930              1.088              0.497
 Vibration    18          0.956              1.036              0.453

 Optimization completed.
    -- Stationary point found.
 Normal termination of Gaussian 16 at Tue Dec  8 20:55:49 2020.

 ----------------------------------------------------------------------
 # B3LYP/6-311++G(d,p) empiricaldispersion=gd3bj scf=xqc pop=npa geom=c
 heck
 ----------------------------------------------------------------------

 ---------------------------------------
 CID_131022562_JID_1686_Energie_neutraal
 ---------------------------------------
 Structure from the checkpoint file:  "JID_1686.chk"
 Charge =  0 Multiplicity = 1

 SCF Done:  E(RB3LYP) =  -515.438898817     A.U. after   14 cycles
 Normal termination of Gaussian 16 at Tue Dec  8 20:59:06 2020.

 ----------------------------------------------------------------------
 # B3LYP/6-311++G(d,p) empiricaldispersion=gd3bj scf=xqc pop=npa geom=c
 heck
 ----------------------------------------------------------------------

 -------------------------------------
 CID_131022562_JID_1686_Energie_kation
 -------------------------------------
 Structure from the checkpoint file:  "JID_1686.chk"
 Charge =  1 Multiplicity = 2

 SCF Done:  E(UB3LYP) =  -515.130286996     A.U. after   25 cycles
 Normal termination of Gaussian 16 at Tue Dec  8 21:07:55 2020.
 Gaussian 16:  ES64L-G16RevA.03 25-Dec-2016

 ----------------------------------------------------------------------
 # B3LYP/6-311++G(d,p) empiricaldispersion=gd3bj scf=xqc pop=npa geom=c
 heck
 ----------------------------------------------------------------------

 ------------------------------------
 CID_131022562_JID_1686_Energie_anion
 ------------------------------------
 Structure from the checkpoint file:  "JID_1686.chk"
 Charge = -1 Multiplicity = 2

                         Standard orientation:
 ---------------------------------------------------------------------
 Center     Atomic      Atomic             Coordinates (Angstroms)
 Number     Number       Type             X           Y           Z
 ---------------------------------------------------------------------
      1          6           0        3.580311    1.510685    0.404109
      2          6           0        3.767904    0.054607   -0.032098
      3          6           0        2.578732   -0.862622    0.262887
      4          7           0        1.380497   -0.537369   -0.495735
      5          6           0        0.279059   -1.517930   -0.443748
      6          6           0       -0.727017   -0.348914   -0.469329
      7          6           0        0.473303    0.525203   -0.010121
      8          7           0       -1.893348   -0.472564    0.361651
      9          6           0       -3.095872    0.179338    0.202658
     10          8           0       -4.095158   -0.122160    0.841097
     11          7           0       -3.096653    1.177521   -0.770160
     12          1           0        2.802080    2.010032   -0.180863
     13          1           0        4.506829    2.079960    0.271192
     14          1           0        3.298797    1.574687    1.462583
     15          1           0        3.978390    0.013239   -1.107705
     16          1           0        4.644682   -0.363591    0.480325
     17          1           0        2.853564   -1.890016   -0.007760
     18          1           0        2.370783   -0.865614    1.353225
     19          1           0        0.256393   -2.246884   -1.261206
     20          1           0        0.226201   -2.057512    0.520273
     21          1           0       -1.030494   -0.108462   -1.491201
     22          1           0        0.478191    0.636671    1.087493
     23          1           0        0.611443    1.508796   -0.473200
     24          1           0       -1.915492   -1.190823    1.071468
     25          1           0       -2.253133    1.725323   -0.883866
     26          1           0       -3.938962    1.736159   -0.725973
 ---------------------------------------------------------------------

 SCF Done:  E(UB3LYP) =  -515.427815346     A.U. after   30 cycles

 The electronic state is 2-A.
 Alpha  occ. eigenvalues --  -18.98068 -14.23551 -14.22273 -14.20950 -10.19529
 Alpha  occ. eigenvalues --  -10.12047 -10.10604 -10.09533 -10.09451 -10.06888
 Alpha  occ. eigenvalues --  -10.05932  -0.94683  -0.86113  -0.82457  -0.78639
 Alpha  occ. eigenvalues --   -0.69725  -0.63713  -0.58885  -0.56642  -0.51379
 Alpha  occ. eigenvalues --   -0.49811  -0.46704  -0.44450  -0.41602  -0.40367
 Alpha  occ. eigenvalues --   -0.37257  -0.36754  -0.35031  -0.33535  -0.32865
 Alpha  occ. eigenvalues --   -0.31102  -0.30752  -0.30022  -0.29571  -0.27194
 Alpha  occ. eigenvalues --   -0.25147  -0.24166  -0.23309  -0.22820  -0.18441
 Alpha  occ. eigenvalues --   -0.16417  -0.15427  -0.13035   0.04320
 Alpha virt. eigenvalues --    0.06313   0.07073   0.07966   0.08585   0.09394
 Alpha virt. eigenvalues --    0.10041   0.10414   0.10994   0.11302   0.12636
 Alpha virt. eigenvalues --    0.12908   0.13562   0.13970   0.14306   0.15003

  Beta  occ. eigenvalues --  -18.98059 -14.23541 -14.22209 -14.20939 -10.19520
  Beta  occ. eigenvalues --  -10.12037 -10.10587 -10.09517 -10.09416 -10.06871
  Beta  occ. eigenvalues --  -10.05903  -0.94660  -0.86087  -0.82423  -0.78555
  Beta  occ. eigenvalues --   -0.69693  -0.63676  -0.58823  -0.56595  -0.51312
  Beta  occ. eigenvalues --   -0.49752  -0.46628  -0.44367  -0.41546  -0.40307
  Beta  occ. eigenvalues --   -0.37220  -0.36708  -0.35000  -0.33497  -0.32841
  Beta  occ. eigenvalues --   -0.31067  -0.30714  -0.29988  -0.29536  -0.27150
  Beta  occ. eigenvalues --   -0.25103  -0.24135  -0.23264  -0.22782  -0.18386
  Beta  occ. eigenvalues --   -0.16379  -0.15410  -0.12974
  Beta virt. eigenvalues --    0.06626   0.07511   0.07845   0.08308   0.09157
  Beta virt. eigenvalues --    0.09887   0.10469   0.10878   0.11447   0.11749
  Beta virt. eigenvalues --    0.12870   0.13292   0.13852   0.14031   0.14711

 Mulliken charges and spin densities:
               1          2
     1  C    0.416444  -0.828325
     2  C   -0.235202  -0.069663
     3  C    0.295077  -0.543312
     4  N   -0.132740   0.227102
     5  C    1.159797  -1.507286
     6  C    0.009290  -0.418685
     7  C   -0.145577  -0.247688
     8  N   -0.173684   0.123415
     9  C    0.227465   0.005312
    10  O   -0.407994  -0.001857
    11  N   -0.225914  -0.180606
    12  H   -0.165802   0.296428
    13  H   -0.454236   0.611017
    14  H    0.034763   0.088059
    15  H    0.083550   0.060829
    16  H   -0.230236   0.356079
    17  H   -0.243182   0.392223
    18  H   -0.078967   0.193065
    19  H   -0.209120   0.389017
    20  H   -0.115862   0.200260
    21  H    0.084108   0.155373
    22  H   -0.081844   0.235162
    23  H   -0.184754   0.386992
    24  H    0.245497   0.044632
    25  H   -0.377538   0.638603
    26  H   -0.093341   0.393854
 Sum of Mulliken charges =  -1.00000   1.00000

 Dipole moment (field-independent basis, Debye):
    X=              0.7627    Y=             -3.2181    Z=              0.4627  Tot=              3.3395
 Quadrupole moment (field-independent basis, Debye-Ang):
   XX=           -152.8361   YY=           -109.8980   ZZ=            -97.5633
   XY=              0.9729   XZ=              0.4865   YZ=              2.8099

 Summary of Natural Population Analysis:

                                       Natural Population
                Natural  -----------------------------------------------
    Atom  No    Charge         Core      Valence    Rydberg      Total
 -----------------------------------------------------------------------
      C    1   -0.28661      0.99967     2.28269    0.00425     3.28661
      C    2   -0.19145      0.99964     2.18408    0.00773     3.19145
      C    3   -0.07804      0.99961     2.06872    0.00972     3.07804
      N    4   -0.28183      0.99972     2.76896    0.01315     3.78183
      C    5   -0.07184      0.99963     2.06284    0.00937     3.07184
      C    6   -0.02537      0.99956     2.01155    0.01426     3.02537
      C    7   -0.08363      0.99962     2.07045    0.01357     3.08363
      N    8   -0.33137      0.99965     2.82179    0.00992     3.83137
      C    9    0.40489      0.99973     1.57267    0.02271     2.59511
      O   10   -0.34219      0.99988     3.33648    0.00583     4.34219
      N   11   -0.41976      0.99972     2.91128    0.00875     3.91976
      H   12    0.10017      0.00000     0.39833    0.00150     0.39983
      H   13    0.09822      0.00000     0.40054    0.00124     0.40178
      H   14    0.09514      0.00000     0.40346    0.00140     0.40486
      H   15    0.09619      0.00000     0.40195    0.00186     0.40381
      H   16    0.09345      0.00000     0.40508    0.00147     0.40655
      H   17    0.09555      0.00000     0.40262    0.00183     0.40445
      H   18    0.07694      0.00000     0.42096    0.00209     0.42306
      H   19    0.09492      0.00000     0.40349    0.00158     0.40508
      H   20    0.08036      0.00000     0.41774    0.00190     0.41964
      H   21    0.10532      0.00000     0.39279    0.00189     0.39468
      H   22    0.08536      0.00000     0.41284    0.00180     0.41464
      H   23    0.09829      0.00000     0.39881    0.00290     0.40171
      H   24    0.19649      0.00000     0.30116    0.00235     0.30351
      H   25    0.19557      0.00000     0.29736    0.00707     0.30443
      H   26    0.19522      0.00000     0.30269    0.00209     0.30478
 =======================================================================
   * Total *   -0.00000     10.99642    31.85134    0.15224    43.00000

 Normal termination of Gaussian 16 at Tue Dec  8 21:16:05 2020.
