 Gaussian 16, Revision A.03,

 -----------------------------------------------------------
 # opt freq B3LYP/6-31G(d) empiricaldispersion=gd3bj scf=xqc
 -----------------------------------------------------------

 ------------------------------
 CID_79506920_JID_3424_neutraal
 ------------------------------
 Symbolic Z-matrix:
 Charge =  0 Multiplicity = 1

 SCF Done:  E(RB3LYP) =  -556.823281871     A.U. after   13 cycles
 SCF Done:  E(RB3LYP) =  -556.829402043     A.U. after   11 cycles
 SCF Done:  E(RB3LYP) =  -556.830207311     A.U. after   11 cycles
 SCF Done:  E(RB3LYP) =  -556.830394103     A.U. after   11 cycles
 SCF Done:  E(RB3LYP) =  -556.830433376     A.U. after   10 cycles
 SCF Done:  E(RB3LYP) =  -556.830446988     A.U. after    9 cycles
 SCF Done:  E(RB3LYP) =  -556.830450200     A.U. after    8 cycles
 SCF Done:  E(RB3LYP) =  -556.830451405     A.U. after    7 cycles
 SCF Done:  E(RB3LYP) =  -556.830452272     A.U. after    8 cycles
 SCF Done:  E(RB3LYP) =  -556.830452431     A.U. after    7 cycles
 SCF Done:  E(RB3LYP) =  -556.830452496     A.U. after    7 cycles
 SCF Done:  E(RB3LYP) =  -556.830452539     A.U. after    6 cycles
 Optimization completed.
    -- Stationary point found.
 Normal termination of Gaussian 16 at Wed Dec  9 23:14:53 2020.

 --------------------------------------------------------------------
 #N Geom=AllCheck Guess=TCheck SCRF=Check GenChk RB3LYP/6-31G(d) Freq
 --------------------------------------------------------------------

 Structure from the checkpoint file:  "JID_3424.chk"
 ------------------------------
 CID_79506920_JID_3424_neutraal
 ------------------------------
 Charge =  0 Multiplicity = 1

 SCF Done:  E(RB3LYP) =  -556.830452539     A.U. after    1 cycles

  Exact polarizability: 140.491  -2.316 115.661   2.625   6.680 100.940
 Approx polarizability: 169.939  -2.968 176.285   6.838  20.587 159.122

                      1                      2                      3
                      A                      A                      A
 Frequencies --     52.7381                78.5222                97.5064
 Red. masses --      3.5600                 3.0090                 2.1917
 Frc consts  --      0.0058                 0.0109                 0.0123
 IR Inten    --      0.8579                 0.8585                 0.8567

                      4                      5                      6
                      A                      A                      A
 Frequencies --    156.0004               191.9666               214.5422
 Red. masses --      2.9589                 2.6603                 2.2661
 Frc consts  --      0.0424                 0.0578                 0.0615
 IR Inten    --      1.9073                 7.4557                 2.3289

                      7                      8                      9
                      A                      A                      A
 Frequencies --    248.4037               261.2553               284.0858
 Red. masses --      1.6071                 1.9261                 2.9652
 Frc consts  --      0.0584                 0.0775                 0.1410
 IR Inten    --      2.5791                 1.0320                 4.3278

                     10                     11                     12
                      A                      A                      A
 Frequencies --    301.4795               322.2537               361.4938
 Red. masses --      1.7268                 1.2889                 2.2354
 Frc consts  --      0.0925                 0.0789                 0.1721
 IR Inten    --      7.2561                23.0309                 1.9289

                     13                     14                     15
                      A                      A                      A
 Frequencies --    395.4852               441.3407               461.8039
 Red. masses --      2.2904                 1.8713                 2.5369
 Frc consts  --      0.2111                 0.2148                 0.3188
 IR Inten    --      3.8093                 1.9363                 1.9230

                     16                     17                     18
                      A                      A                      A
 Frequencies --    467.7152               487.8904               540.2612
 Red. masses --      2.3807                 2.5817                 3.1262
 Frc consts  --      0.3068                 0.3621                 0.5376
 IR Inten    --      3.6803                 8.1918                10.8609

                     19                     20                     21
                      A                      A                      A
 Frequencies --    592.1654               614.5655               658.7076
 Red. masses --      1.8200                 1.7361                 2.1237
 Frc consts  --      0.3760                 0.3863                 0.5429
 IR Inten    --     66.7439               174.6672                42.3239

                     22                     23                     24
                      A                      A                      A
 Frequencies --    715.3606               760.7937               768.4302
 Red. masses --      4.4600                 3.2142                 1.6233
 Frc consts  --      1.3447                 1.0961                 0.5648
 IR Inten    --     42.2519               101.7644                27.0077

                     25                     26                     27
                      A                      A                      A
 Frequencies --    791.8472               822.3610               848.2089
 Red. masses --      1.6412                 1.8850                 2.0869
 Frc consts  --      0.6063                 0.7511                 0.8846
 IR Inten    --      3.1859                 4.8000                 1.5346

                     28                     29                     30
                      A                      A                      A
 Frequencies --    925.1794               929.5746               952.9305
 Red. masses --      2.2961                 1.9537                 1.7040
 Frc consts  --      1.1579                 0.9947                 0.9117
 IR Inten    --      3.1615                 3.4496                 6.1524

                     31                     32                     33
                      A                      A                      A
 Frequencies --    960.8857               987.9105              1000.4733
 Red. masses --      1.9793                 2.4555                 2.5554
 Frc consts  --      1.0767                 1.4120                 1.5070
 IR Inten    --      1.8248                 1.0030                16.4582

                     34                     35                     36
                      A                      A                      A
 Frequencies --   1016.3359              1031.5442              1038.0845
 Red. masses --      1.8718                 2.4834                 1.9531
 Frc consts  --      1.1391                 1.5570                 1.2400
 IR Inten    --      2.1475                51.3174                 4.2281

                     37                     38                     39
                      A                      A                      A
 Frequencies --   1053.1185              1076.2649              1091.3295
 Red. masses --      1.7600                 2.2322                 1.7719
 Frc consts  --      1.1500                 1.5235                 1.2434
 IR Inten    --      3.2850                 0.7599                 1.6491

                     40                     41                     42
                      A                      A                      A
 Frequencies --   1115.3984              1138.3639              1169.8148
 Red. masses --      1.5177                 2.3207                 1.5670
 Frc consts  --      1.1125                 1.7719                 1.2635
 IR Inten    --      0.6105                 0.8648                 3.6006

                     43                     44                     45
                      A                      A                      A
 Frequencies --   1178.8014              1194.6361              1214.5851
 Red. masses --      1.7491                 2.0366                 2.7323
 Frc consts  --      1.4320                 1.7125                 2.3748
 IR Inten    --      2.3905                11.1704                 7.5632

                     46                     47                     48
                      A                      A                      A
 Frequencies --   1235.4985              1276.8396              1296.6911
 Red. masses --      1.3361                 1.4927                 1.4294
 Frc consts  --      1.2016                 1.4338                 1.4160
 IR Inten    --      4.5289                18.4404                 0.4338

                     49                     50                     51
                      A                      A                      A
 Frequencies --   1302.9698              1320.5965              1333.3935
 Red. masses --      1.2372                 1.3022                 1.2705
 Frc consts  --      1.2375                 1.3380                 1.3309
 IR Inten    --     10.2059                 6.1340                 2.7782

                     52                     53                     54
                      A                      A                      A
 Frequencies --   1341.1912              1360.5538              1375.0393
 Red. masses --      1.3414                 1.3025                 1.4338
 Frc consts  --      1.4217                 1.4206                 1.5972
 IR Inten    --      6.4441                 3.8444                 9.3469

                     55                     56                     57
                      A                      A                      A
 Frequencies --   1382.9872              1393.2255              1407.1264
 Red. masses --      1.5722                 1.3737                 1.5492
 Frc consts  --      1.7717                 1.5710                 1.8073
 IR Inten    --      8.2842                 8.4253                 6.4110

                     58                     59                     60
                      A                      A                      A
 Frequencies --   1411.8280              1424.9893              1442.4537
 Red. masses --      1.7981                 1.5977                 1.2520
 Frc consts  --      2.1117                 1.9115                 1.5348
 IR Inten    --      3.5493                 1.1402                 4.4157

                     61                     62                     63
                      A                      A                      A
 Frequencies --   1492.6388              1504.1023              1514.7198
 Red. masses --      2.7636                 1.0884                 1.0803
 Frc consts  --      3.6277                 1.4508                 1.4604
 IR Inten    --    251.8324                 1.7447                 0.3076

                     64                     65                     66
                      A                      A                      A
 Frequencies --   1518.5097              1521.9470              1530.3301
 Red. masses --      1.0935                 1.0832                 1.0631
 Frc consts  --      1.4856                 1.4782                 1.4668
 IR Inten    --     10.2097                 1.9928                10.9078

                     67                     68                     69
                      A                      A                      A
 Frequencies --   1531.7154              1535.2538              1539.7385
 Red. masses --      1.0990                 1.0877                 1.0699
 Frc consts  --      1.5191                 1.5105                 1.4945
 IR Inten    --      1.2759                 2.9971                 7.1216

                     70                     71                     72
                      A                      A                      A
 Frequencies --   1663.6988              1742.1022              2985.6234
 Red. masses --      1.2389                 4.9503                 1.0795
 Frc consts  --      2.0203                 8.8518                 5.6695
 IR Inten    --     46.3452               258.8478                 2.2539

                     73                     74                     75
                      A                      A                      A
 Frequencies --   3000.1793              3009.5250              3017.5944
 Red. masses --      1.0732                 1.0696                 1.0636
 Frc consts  --      5.6917                 5.7076                 5.7061
 IR Inten    --     29.8443                50.1896                 0.1590

                     76                     77                     78
                      A                      A                      A
 Frequencies --   3025.5457              3030.1139              3036.9988
 Red. masses --      1.0653                 1.0633                 1.0636
 Frc consts  --      5.7453                 5.7522                 5.7801
 IR Inten    --     56.1885                15.6558                53.8532

                     79                     80                     81
                      A                      A                      A
 Frequencies --   3046.4597              3054.7893              3070.2691
 Red. masses --      1.0384                 1.0992                 1.0978
 Frc consts  --      5.6781                 6.0433                 6.0970
 IR Inten    --     22.9577                10.0104                64.4093

                     82                     83                     84
                      A                      A                      A
 Frequencies --   3072.5325              3078.7681              3083.6730
 Red. masses --      1.0945                 1.1005                 1.0911
 Frc consts  --      6.0878                 6.1460                 6.1132
 IR Inten    --     32.8273                39.3169                61.6139

                     85                     86                     87
                      A                      A                      A
 Frequencies --   3093.9832              3110.4503              3119.1738
 Red. masses --      1.0981                 1.1014                 1.1015
 Frc consts  --      6.1936                 6.2782                 6.3142
 IR Inten    --     42.3961                43.4238                47.7237

                     88                     89                     90
                      A                      A                      A
 Frequencies --   3548.4262              3555.6900              3654.3063
 Red. masses --      1.0498                 1.0734                 1.0978
 Frc consts  --      7.7882                 7.9959                 8.6377
 IR Inten    --     13.5946                 2.6844                17.0440

 - Thermochemistry -
 -------------------
 Temperature   298.150 Kelvin.  Pressure   1.00000 Atm.
 Atom     1 has atomic number  6 and mass  12.00000

 Molecular mass:   181.15790 amu.
 Principal axes and moments of inertia in atomic units:
                           1         2         3
     Eigenvalues --  1019.049904334.224104564.38649
           X            0.99998   0.00561  -0.00054
           Y           -0.00561   0.99980  -0.01909
           Z            0.00044   0.01909   0.99982
 This molecule is an asymmetric top.
 Rotational symmetry number  1.
 Warning -- assumption of classical behavior for rotation
           may cause significant error
 Rotational temperatures (Kelvin)      0.08499     0.01998     0.01898
 Rotational constants (GHZ):           1.77100     0.41639     0.39540
 Zero-point vibrational energy     765649.8 (Joules/Mol)
                                  182.99470 (Kcal/Mol)
 Warning -- explicit consideration of  20 degrees of freedom as
           vibrations may cause significant error
 Vibrational temperatures:     75.88   112.98   140.29   224.45   276.20
          (Kelvin)            308.68   357.40   375.89   408.74   433.76
                              463.65   520.11   569.01   634.99   664.43
                              672.94   701.97   777.32   851.99   884.22
                              947.73  1029.24  1094.61  1105.60  1139.29
                             1183.19  1220.38  1331.13  1337.45  1371.05
                             1382.50  1421.38  1439.46  1462.28  1484.16
                             1493.57  1515.20  1548.51  1570.18  1604.81
                             1637.85  1683.10  1696.03  1718.81  1747.52
                             1777.61  1837.09  1865.65  1874.68  1900.04
                             1918.46  1929.67  1957.53  1978.37  1989.81
                             2004.54  2024.54  2031.31  2050.24  2075.37
                             2147.57  2164.07  2179.34  2184.80  2189.74
                             2201.80  2203.80  2208.89  2215.34  2393.69
                             2506.50  4295.65  4316.59  4330.04  4341.65
                             4353.09  4359.66  4369.56  4383.18  4395.16
                             4417.43  4420.69  4429.66  4436.72  4451.55
                             4475.24  4487.80  5105.39  5115.84  5257.73

 Zero-point correction=                           0.291621 (Hartree/Particle)
 Thermal correction to Energy=                    0.304311
 Thermal correction to Enthalpy=                  0.305255
 Thermal correction to Gibbs Free Energy=         0.253205
 Sum of electronic and zero-point Energies=           -556.538832
 Sum of electronic and thermal Energies=              -556.526141
 Sum of electronic and thermal Enthalpies=            -556.525197
 Sum of electronic and thermal Free Energies=         -556.577247

                     E (Thermal)             CV                S
                      KCal/Mol        Cal/Mol-Kelvin    Cal/Mol-Kelvin
 Total                  190.958             50.930            109.549
 Electronic               0.000              0.000              0.000
 Translational            0.889              2.981             41.489
 Rotational               0.889              2.981             31.378
 Vibrational            189.181             44.968             36.682
 Vibration     1          0.596              1.977              4.712
 Vibration     2          0.600              1.964              3.927
 Vibration     3          0.603              1.951              3.504
 Vibration     4          0.620              1.896              2.598
 Vibration     5          0.634              1.851              2.209
 Vibration     6          0.644              1.819              2.005
 Vibration     7          0.662              1.765              1.742
 Vibration     8          0.669              1.744              1.653
 Vibration     9          0.682              1.703              1.509
 Vibration    10          0.693              1.671              1.409
 Vibration    11          0.707              1.631              1.299
 Vibration    12          0.736              1.552              1.116
 Vibration    13          0.762              1.480              0.979
 Vibration    14          0.801              1.380              0.822
 Vibration    15          0.820              1.335              0.761
 Vibration    16          0.825              1.322              0.744
 Vibration    17          0.844              1.277              0.689
 Vibration    18          0.895              1.161              0.565
 Vibration    19          0.950              1.048              0.463
 Vibration    20          0.974              1.001              0.425

 Optimization completed.
    -- Stationary point found.
 Normal termination of Gaussian 16 at Wed Dec  9 23:24:34 2020.

 ----------------------------------------------------------------------
 # B3LYP/6-311++G(d,p) empiricaldispersion=gd3bj scf=xqc pop=npa geom=c
 heck
 ----------------------------------------------------------------------

 --------------------------------------
 CID_79506920_JID_3424_Energie_neutraal
 --------------------------------------
 Structure from the checkpoint file:  "JID_3424.chk"
 Charge =  0 Multiplicity = 1

 SCF Done:  E(RB3LYP) =  -556.992784721     A.U. after   14 cycles
 Normal termination of Gaussian 16 at Wed Dec  9 23:29:04 2020.

 ----------------------------------------------------------------------
 # B3LYP/6-311++G(d,p) empiricaldispersion=gd3bj scf=xqc pop=npa geom=c
 heck
 ----------------------------------------------------------------------

 ------------------------------------
 CID_79506920_JID_3424_Energie_kation
 ------------------------------------
 Structure from the checkpoint file:  "JID_3424.chk"
 Charge =  1 Multiplicity = 2

 SCF Done:  E(UB3LYP) =  -556.702774518     A.U. after   22 cycles
 Normal termination of Gaussian 16 at Wed Dec  9 23:38:58 2020.
 Gaussian 16:  ES64L-G16RevA.03 25-Dec-2016

 ----------------------------------------------------------------------
 # B3LYP/6-311++G(d,p) empiricaldispersion=gd3bj scf=xqc pop=npa geom=c
 heck
 ----------------------------------------------------------------------

 -----------------------------------
 CID_79506920_JID_3424_Energie_anion
 -----------------------------------
 Structure from the checkpoint file:  "JID_3424.chk"
 Charge = -1 Multiplicity = 2

                         Standard orientation:
 ---------------------------------------------------------------------
 Center     Atomic      Atomic             Coordinates (Angstroms)
 Number     Number       Type             X           Y           Z
 ---------------------------------------------------------------------
      1          6           0       -4.381778   -0.880664    0.456469
      2          6           0       -3.408036   -0.353679   -0.601503
      3          6           0       -2.140474    0.303387   -0.034842
      4          6           0       -1.270523   -0.676667    0.770257
      5          6           0        0.010069   -0.011562    1.290741
      6          6           0        0.844620    0.636236    0.169056
      7          6           0       -0.027609    1.610691   -0.627571
      8          6           0       -1.305410    0.947156   -1.154502
      9          6           0        2.147936    1.279637    0.728692
     10          7           0        3.200684    0.266851    0.604173
     11          6           0        2.734217   -0.611693   -0.210281
     12          7           0        1.447783   -0.390113   -0.715918
     13          7           0        3.463424   -1.684301   -0.693328
     14          1           0       -3.944850   -1.693840    1.045927
     15          1           0       -5.295524   -1.266855   -0.008474
     16          1           0       -4.673113   -0.084983    1.153191
     17          1           0       -3.113628   -1.173909   -1.272780
     18          1           0       -3.927378    0.381153   -1.231707
     19          1           0       -2.453432    1.107275    0.652041
     20          1           0       -1.834051   -1.091025    1.613574
     21          1           0       -1.019159   -1.536200    0.127499
     22          1           0        0.634668   -0.730628    1.835397
     23          1           0       -0.264022    0.774456    2.007860
     24          1           0        0.561656    2.020099   -1.455188
     25          1           0       -0.296061    2.450524    0.029252
     26          1           0       -1.032605    0.174923   -1.889454
     27          1           0       -1.914698    1.682549   -1.695043
     28          1           0        2.413299    2.173449    0.143608
     29          1           0        2.027771    1.596128    1.771473
     30          1           0        0.883761   -1.210705   -0.909475
     31          1           0        4.304560   -1.838453   -0.150514
     32          1           0        2.941487   -2.538065   -0.850769
 ---------------------------------------------------------------------

 SCF Done:  E(UB3LYP) =  -556.982921054     A.U. after   32 cycles

 The electronic state is 2-A.
 Alpha  occ. eigenvalues --  -14.21449 -14.21309 -14.16348 -10.15233 -10.10947
 Alpha  occ. eigenvalues --  -10.08733 -10.07335 -10.06980 -10.06780 -10.06700
 Alpha  occ. eigenvalues --  -10.06638 -10.06388 -10.06174  -0.88830  -0.79332
 Alpha  occ. eigenvalues --   -0.75316  -0.72992  -0.67939  -0.64802  -0.62988
 Alpha  occ. eigenvalues --   -0.56937  -0.52461  -0.51481  -0.48546  -0.47451
 Alpha  occ. eigenvalues --   -0.44907  -0.43088  -0.40034  -0.36845  -0.36525
 Alpha  occ. eigenvalues --   -0.35730  -0.33680  -0.33519  -0.32647  -0.31575
 Alpha  occ. eigenvalues --   -0.30363  -0.28807  -0.28124  -0.27272  -0.27176
 Alpha  occ. eigenvalues --   -0.25443  -0.25222  -0.24693  -0.24015  -0.22208
 Alpha  occ. eigenvalues --   -0.21251  -0.20476  -0.16378  -0.15133  -0.11380
 Alpha  occ. eigenvalues --    0.04322
 Alpha virt. eigenvalues --    0.06196   0.07322   0.07757   0.08731   0.09183
 Alpha virt. eigenvalues --    0.09834   0.10009   0.10742   0.11088   0.11509
 Alpha virt. eigenvalues --    0.12180   0.12567   0.13576   0.13687   0.13852

  Beta  occ. eigenvalues --  -14.21411 -14.21237 -14.16341 -10.15229 -10.10943
  Beta  occ. eigenvalues --  -10.08731 -10.07329 -10.06977 -10.06770 -10.06682
  Beta  occ. eigenvalues --  -10.06628 -10.06355 -10.06144  -0.88794  -0.79243
  Beta  occ. eigenvalues --   -0.75275  -0.72956  -0.67903  -0.64773  -0.62947
  Beta  occ. eigenvalues --   -0.56901  -0.52406  -0.51437  -0.48492  -0.47384
  Beta  occ. eigenvalues --   -0.44833  -0.42999  -0.39973  -0.36817  -0.36483
  Beta  occ. eigenvalues --   -0.35698  -0.33643  -0.33490  -0.32619  -0.31546
  Beta  occ. eigenvalues --   -0.30333  -0.28781  -0.28086  -0.27242  -0.27140
  Beta  occ. eigenvalues --   -0.25417  -0.25182  -0.24656  -0.23992  -0.22158
  Beta  occ. eigenvalues --   -0.21223  -0.20451  -0.16344  -0.15100  -0.11350
  Beta virt. eigenvalues --    0.06465   0.07534   0.07828   0.07988   0.09220
  Beta virt. eigenvalues --    0.09553   0.09899   0.10576   0.10952   0.11523
  Beta virt. eigenvalues --    0.11965   0.12219   0.13013   0.13702   0.13823

 Mulliken charges and spin densities:
               1          2
     1  C    0.800288  -1.473478
     2  C   -0.889431   0.609415
     3  C   -0.286258   0.759283
     4  C    0.236790  -0.734459
     5  C    0.927241  -1.608081
     6  C   -0.162371   0.536230
     7  C   -0.585330   0.086068
     8  C   -0.040174  -0.516454
     9  C   -0.031912  -0.456046
    10  N   -0.105308  -0.047406
    11  C    0.599117  -0.522660
    12  N    0.076074  -0.097157
    13  N   -0.407691   0.118192
    14  H   -0.268159   0.425510
    15  H   -0.331552   0.472050
    16  H   -0.125014   0.253954
    17  H    0.046925   0.081630
    18  H   -0.168100   0.294258
    19  H   -0.014621   0.143165
    20  H    0.275783  -0.144854
    21  H   -0.640265   0.825423
    22  H   -0.104218   0.313964
    23  H    0.109841   0.043108
    24  H    0.133130   0.023623
    25  H    0.080531   0.069072
    26  H   -0.119570   0.298873
    27  H    0.113575   0.046384
    28  H    0.143928   0.020150
    29  H    0.091872   0.050327
    30  H    0.259149  -0.006451
    31  H   -0.031000   0.299865
    32  H   -0.583272   0.836503
 Sum of Mulliken charges =  -1.00000   1.00000

 Dipole moment (field-independent basis, Debye):
    X=             -1.0657    Y=              6.9593    Z=              1.0709  Tot=              7.1213
 Quadrupole moment (field-independent basis, Debye-Ang):
   XX=           -165.4572   YY=           -126.2566   ZZ=           -110.1994
   XY=              3.6135   XZ=              2.0658   YZ=             -3.1260

 Summary of Natural Population Analysis:

                                       Natural Population
                Natural  -----------------------------------------------
    Atom  No    Charge         Core      Valence    Rydberg      Total
 -----------------------------------------------------------------------
      C    1   -0.28312      0.99967     2.27924    0.00422     3.28312
      C    2   -0.18632      0.99962     2.17796    0.00874     3.18632
      C    3   -0.10812      0.99959     2.09832    0.01021     3.10812
      C    4   -0.19361      0.99961     2.18352    0.01048     3.19361
      C    5   -0.19533      0.99958     2.18554    0.01021     3.19533
      C    6    0.05994      0.99955     1.92643    0.01408     2.94006
      C    7   -0.18876      0.99957     2.18032    0.00887     3.18876
      C    8   -0.18758      0.99961     2.18026    0.00772     3.18758
      C    9   -0.08828      0.99957     2.07745    0.01126     3.08828
      N   10   -0.30645      0.99967     2.79648    0.01030     3.80645
      C   11    0.30255      0.99960     1.67876    0.01909     2.69745
      N   12   -0.34392      0.99966     2.83174    0.01252     3.84392
      N   13   -0.39982      0.99970     2.88984    0.01028     3.89982
      H   14    0.09827      0.00000     0.40044    0.00129     0.40173
      H   15    0.09880      0.00000     0.40009    0.00111     0.40120
      H   16    0.09372      0.00000     0.40510    0.00118     0.40628
      H   17    0.09624      0.00000     0.40241    0.00136     0.40376
      H   18    0.09339      0.00000     0.40542    0.00120     0.40661
      H   19    0.08801      0.00000     0.41018    0.00180     0.41199
      H   20    0.10247      0.00000     0.39634    0.00119     0.39753
      H   21    0.09654      0.00000     0.40082    0.00264     0.40346
      H   22    0.10636      0.00000     0.39242    0.00122     0.39364
      H   23    0.09548      0.00000     0.40332    0.00120     0.40452
      H   24    0.10299      0.00000     0.39581    0.00120     0.39701
      H   25    0.09461      0.00000     0.40434    0.00106     0.40539
      H   26    0.09756      0.00000     0.40078    0.00166     0.40244
      H   27    0.09754      0.00000     0.40136    0.00110     0.40246
      H   28    0.08605      0.00000     0.41262    0.00133     0.41395
      H   29    0.09049      0.00000     0.40819    0.00132     0.40951
      H   30    0.19489      0.00000     0.30047    0.00464     0.30511
      H   31    0.19136      0.00000     0.30611    0.00253     0.30864
      H   32    0.19406      0.00000     0.29321    0.01273     0.30594
 =======================================================================
   * Total *   -0.00000     12.99499    36.82527    0.17974    50.00000

 Normal termination of Gaussian 16 at Wed Dec  9 23:53:27 2020.
