 Gaussian 16, Revision A.03,

 ----------------------------------------------------------------------
 # opt=(cartesian,calcfc) freq B3LYP/6-31G(d) empiricaldispersion=gd3bj
  scf=xqc
 ----------------------------------------------------------------------

 -------------------------------
 CID_123873508_JID_1189_neutraal
 -------------------------------
 Symbolic Z-matrix:
 Charge =  0 Multiplicity = 1

 SCF Done:  E(RB3LYP) =  -444.779267710     A.U. after   14 cycles
 SCF Done:  E(RB3LYP) =  -444.779531344     A.U. after   11 cycles
 SCF Done:  E(RB3LYP) =  -444.779760679     A.U. after   11 cycles
 SCF Done:  E(RB3LYP) =  -444.779973064     A.U. after   11 cycles
 SCF Done:  E(RB3LYP) =  -444.780140644     A.U. after   11 cycles
 SCF Done:  E(RB3LYP) =  -444.780084922     A.U. after   11 cycles
 SCF Done:  E(RB3LYP) =  -444.780223687     A.U. after   11 cycles
 SCF Done:  E(RB3LYP) =  -444.780316519     A.U. after   11 cycles
 SCF Done:  E(RB3LYP) =  -444.780042007     A.U. after   12 cycles
 SCF Done:  E(RB3LYP) =  -444.780231731     A.U. after   11 cycles
 SCF Done:  E(RB3LYP) =  -444.780608766     A.U. after    8 cycles
 SCF Done:  E(RB3LYP) =  -444.780608544     A.U. after    8 cycles
 SCF Done:  E(RB3LYP) =  -444.780608815     A.U. after    6 cycles
 SCF Done:  E(RB3LYP) =  -444.780608367     A.U. after    8 cycles
 SCF Done:  E(RB3LYP) =  -444.780608824     A.U. after    6 cycles
 Optimization completed.
    -- Stationary point found.
 Normal termination of Gaussian 16 at Mon Jan  4 09:08:28 2021.

 --------------------------------------------------------------------
 #N Geom=AllCheck Guess=TCheck SCRF=Check GenChk RB3LYP/6-31G(d) Freq
 --------------------------------------------------------------------

 Structure from the checkpoint file:  "JID_1189.chk"
 -------------------------------
 CID_123873508_JID_1189_neutraal
 -------------------------------
 Charge =  0 Multiplicity = 1

 SCF Done:  E(RB3LYP) =  -444.780608824     A.U. after    1 cycles

  Exact polarizability: 209.347  -9.693  97.106  -9.199   3.521  74.401
 Approx polarizability: 268.082 -23.852 133.602 -22.330   8.069 112.275

                      1                      2                      3
                      A                      A                      A
 Frequencies --     31.3429                52.6154                99.0744
 Red. masses --      3.6824                 3.8965                 2.2851
 Frc consts  --      0.0021                 0.0064                 0.0132
 IR Inten    --      0.0658                 0.6912                 1.9476

                      4                      5                      6
                      A                      A                      A
 Frequencies --    110.2138               124.2028               169.7650
 Red. masses --      2.9457                 1.6539                 3.2659
 Frc consts  --      0.0211                 0.0150                 0.0555
 IR Inten    --      0.7109                 2.0309                 0.6538

                      7                      8                      9
                      A                      A                      A
 Frequencies --    206.6731               218.7058               233.3812
 Red. masses --      1.2282                 1.4334                 2.3576
 Frc consts  --      0.0309                 0.0404                 0.0757
 IR Inten    --      0.1017                 0.0787                 2.3392

                     10                     11                     12
                      A                      A                      A
 Frequencies --    296.7996               316.2424               334.3940
 Red. masses --      2.2856                 3.0040                 2.9424
 Frc consts  --      0.1186                 0.1770                 0.1939
 IR Inten    --      2.9476                 0.4459                 3.6018

                     13                     14                     15
                      A                      A                      A
 Frequencies --    400.0635               463.1012               532.0762
 Red. masses --      2.9397                 3.0060                 4.2266
 Frc consts  --      0.2772                 0.3798                 0.7050
 IR Inten    --      5.0111                 1.9928                 5.7778

                     16                     17                     18
                      A                      A                      A
 Frequencies --    537.5034               582.4365               663.4771
 Red. masses --      2.6424                 4.3540                 2.3591
 Frc consts  --      0.4498                 0.8702                 0.6118
 IR Inten    --      4.0886                 7.1619                45.2844

                     19                     20                     21
                      A                      A                      A
 Frequencies --    773.8593               792.8867               847.2105
 Red. masses --      1.5780                 1.7395                 1.8301
 Frc consts  --      0.5568                 0.6443                 0.7740
 IR Inten    --     10.2396                21.5325                 5.1829

                     22                     23                     24
                      A                      A                      A
 Frequencies --    870.7917               911.7432               931.7624
 Red. masses --      1.9299                 2.0019                 1.3269
 Frc consts  --      0.8622                 0.9805                 0.6787
 IR Inten    --     19.8071                 1.5629                11.9026

                     25                     26                     27
                      A                      A                      A
 Frequencies --    950.3128               970.8716               989.8389
 Red. masses --      1.5425                 1.6180                 2.9812
 Frc consts  --      0.8207                 0.8986                 1.7210
 IR Inten    --     17.8489                 5.4034                19.0159

                     28                     29                     30
                      A                      A                      A
 Frequencies --   1015.2116              1015.6437              1069.7977
 Red. masses --      1.5202                 1.2272                 2.2914
 Frc consts  --      0.9231                 0.7458                 1.5451
 IR Inten    --      8.3179                29.3005                 2.2706

                     31                     32                     33
                      A                      A                      A
 Frequencies --   1074.0793              1076.5861              1102.2707
 Red. masses --      1.5262                 2.5164                 1.5340
 Frc consts  --      1.0373                 1.7184                 1.0981
 IR Inten    --      0.0653                 2.3994                 3.8390

                     34                     35                     36
                      A                      A                      A
 Frequencies --   1137.9715              1150.6377              1176.9385
 Red. masses --      2.0112                 1.7124                 2.0675
 Frc consts  --      1.5345                 1.3358                 1.6874
 IR Inten    --      8.4247                13.6094                 1.8960

                     37                     38                     39
                      A                      A                      A
 Frequencies --   1182.6503              1196.6229              1221.5042
 Red. masses --      2.0306                 1.7269                 1.3139
 Frc consts  --      1.6733                 1.4569                 1.1551
 IR Inten    --      3.2217                 5.4369                 0.5088

                     40                     41                     42
                      A                      A                      A
 Frequencies --   1267.2864              1279.0870              1304.8181
 Red. masses --      1.2699                 1.2658                 1.3741
 Frc consts  --      1.2016                 1.2202                 1.3784
 IR Inten    --     14.4414                17.8464                 8.0579

                     43                     44                     45
                      A                      A                      A
 Frequencies --   1342.0763              1354.8525              1382.2778
 Red. masses --      1.3227                 1.5406                 1.3596
 Frc consts  --      1.4037                 1.6662                 1.5306
 IR Inten    --      2.3388                23.3064                 5.0124

                     46                     47                     48
                      A                      A                      A
 Frequencies --   1387.6747              1410.0415              1440.3465
 Red. masses --      1.3910                 1.2880                 1.3287
 Frc consts  --      1.5782                 1.5088                 1.6241
 IR Inten    --     19.2310                 9.7313                 9.9750

                     49                     50                     51
                      A                      A                      A
 Frequencies --   1441.4301              1484.9685              1508.1198
 Red. masses --      1.2837                 2.3983                 1.0453
 Frc consts  --      1.5714                 3.1160                 1.4008
 IR Inten    --     10.6242                 0.0319                 5.6461

                     52                     53                     54
                      A                      A                      A
 Frequencies --   1513.8373              1523.3781              1525.3948
 Red. masses --      1.0491                 1.0976                 1.0502
 Frc consts  --      1.4165                 1.5008                 1.4398
 IR Inten    --      3.5216                 9.8285                 5.9988

                     55                     56                     57
                      A                      A                      A
 Frequencies --   1548.7773              1731.4591              2057.3552
 Red. masses --      1.1092                 5.4008                10.9627
 Frc consts  --      1.5675                 9.5397                27.3393
 IR Inten    --      2.0586                 1.9477                36.0718

                     58                     59                     60
                      A                      A                      A
 Frequencies --   2967.8081              3004.4741              3027.6197
 Red. masses --      1.0833                 1.0666                 1.0378
 Frc consts  --      5.6217                 5.6727                 5.6049
 IR Inten    --     71.5294                86.9562                56.0197

                     61                     62                     63
                      A                      A                      A
 Frequencies --   3049.2444              3071.3395              3078.6548
 Red. masses --      1.0374                 1.0999                 1.0987
 Frc consts  --      5.6832                 6.1131                 6.1353
 IR Inten    --     25.2046                26.8675                43.4283

                     64                     65                     66
                      A                      A                      A
 Frequencies --   3109.7743              3115.1033              3118.9418
 Red. masses --      1.1017                 1.0981                 1.0872
 Frc consts  --      6.2772                 6.2784                 6.2312
 IR Inten    --     32.4813                11.2763                11.6358

                     67                     68                     69
                      A                      A                      A
 Frequencies --   3126.3566              3131.7819              3141.7552
 Red. masses --      1.0868                 1.0886                 1.0992
 Frc consts  --      6.2584                 6.2906                 6.3925
 IR Inten    --      5.4855                13.5160                31.5463

                     70                     71                     72
                      A                      A                      A
 Frequencies --   3144.0448              3164.1214              3488.4357
 Red. masses --      1.0904                 1.0885                 1.0759
 Frc consts  --      6.3509                 6.4208                 7.7143
 IR Inten    --     30.0141                26.9322                 6.9005

 - Thermochemistry -
 -------------------
 Temperature   298.150 Kelvin.  Pressure   1.00000 Atm.
 Atom     1 has atomic number  6 and mass  12.00000

 Molecular mass:   149.12045 amu.
 Principal axes and moments of inertia in atomic units:
                           1         2         3
     Eigenvalues --   563.167965189.576325566.97616
           X            0.99997   0.00771   0.00064
           Y           -0.00771   0.99997   0.00093
           Z           -0.00064  -0.00093   1.00000
 This molecule is an asymmetric top.
 Rotational symmetry number  1.
 Warning -- assumption of classical behavior for rotation
           may cause significant error
 Rotational temperatures (Kelvin)      0.15380     0.01669     0.01556
 Rotational constants (GHZ):           3.20462     0.34776     0.32419
 Zero-point vibrational energy     598574.8 (Joules/Mol)
                                  143.06282 (Kcal/Mol)
 Warning -- explicit consideration of  17 degrees of freedom as
           vibrations may cause significant error
 Vibrational temperatures:     45.10    75.70   142.55   158.57   178.70
          (Kelvin)            244.25   297.36   314.67   335.78   427.03
                              455.00   481.12   575.60   666.30   765.54
                              773.35   838.00   954.60  1113.41  1140.79
                             1218.95  1252.88  1311.80  1340.60  1367.29
                             1396.87  1424.16  1460.66  1461.28  1539.20
                             1545.36  1548.97  1585.92  1637.29  1655.51
                             1693.35  1701.57  1721.67  1757.47  1823.34
                             1840.32  1877.34  1930.95  1949.33  1988.79
                             1996.55  2028.74  2072.34  2073.90  2136.54
                             2169.85  2178.07  2191.80  2194.70  2228.35
                             2491.18  2960.08  4270.01  4322.77  4356.07
                             4387.18  4418.97  4429.50  4474.27  4481.94
                             4487.46  4498.13  4505.94  4520.29  4523.58
                             4552.46  5019.08

 Zero-point correction=                           0.227985 (Hartree/Particle)
 Thermal correction to Energy=                    0.240252
 Thermal correction to Enthalpy=                  0.241196
 Thermal correction to Gibbs Free Energy=         0.188598
 Sum of electronic and zero-point Energies=           -444.552624
 Sum of electronic and thermal Energies=              -444.540357
 Sum of electronic and thermal Enthalpies=            -444.539413
 Sum of electronic and thermal Free Energies=         -444.592011

                     E (Thermal)             CV                S
                      KCal/Mol        Cal/Mol-Kelvin    Cal/Mol-Kelvin
 Total                  150.760             44.683            110.702
 Electronic               0.000              0.000              0.000
 Translational            0.889              2.981             40.909
 Rotational               0.889              2.981             31.165
 Vibrational            148.983             38.721             38.628
 Vibration     1          0.594              1.983              5.743
 Vibration     2          0.596              1.977              4.717
 Vibration     3          0.604              1.950              3.472
 Vibration     4          0.606              1.941              3.265
 Vibration     5          0.610              1.929              3.034
 Vibration     6          0.625              1.880              2.438
 Vibration     7          0.641              1.830              2.073
 Vibration     8          0.646              1.813              1.970
 Vibration     9          0.654              1.790              1.853
 Vibration    10          0.690              1.680              1.435
 Vibration    11          0.703              1.643              1.329
 Vibration    12          0.716              1.607              1.239
 Vibration    13          0.766              1.470              0.962
 Vibration    14          0.821              1.332              0.757
 Vibration    15          0.887              1.179              0.583
 Vibration    16          0.893              1.167              0.571
 Vibration    17          0.939              1.069              0.481

 Normal termination of Gaussian 16 at Mon Jan  4 09:12:34 2021.

 ----------------------------------------------------------------------
 # B3LYP/6-311++G(d,p) empiricaldispersion=gd3bj scf=xqc pop=npa geom=c
 heck
 ----------------------------------------------------------------------

 ---------------------------------------
 CID_123873508_JID_1189_Energie_neutraal
 ---------------------------------------
 Structure from the checkpoint file:  "JID_1189.chk"
 Charge =  0 Multiplicity = 1

 SCF Done:  E(RB3LYP) =  -444.906851990     A.U. after   14 cycles
 Normal termination of Gaussian 16 at Mon Jan  4 09:14:10 2021.

 ----------------------------------------------------------------------
 # B3LYP/6-311++G(d,p) empiricaldispersion=gd3bj scf=xqc pop=npa geom=c
 heck
 ----------------------------------------------------------------------

 -------------------------------------
 CID_123873508_JID_1189_Energie_kation
 -------------------------------------
 Structure from the checkpoint file:  "JID_1189.chk"
 Charge =  1 Multiplicity = 2

 SCF Done:  E(UB3LYP) =  -444.622230324     A.U. after   20 cycles
 Normal termination of Gaussian 16 at Mon Jan  4 09:17:13 2021.
 Gaussian 16:  ES64L-G16RevA.03 25-Dec-2016

 ----------------------------------------------------------------------
 # B3LYP/6-311++G(d,p) empiricaldispersion=gd3bj scf=xqc pop=npa geom=c
 heck
 ----------------------------------------------------------------------

 ------------------------------------
 CID_123873508_JID_1189_Energie_anion
 ------------------------------------
 Structure from the checkpoint file:  "JID_1189.chk"
 Charge = -1 Multiplicity = 2

                         Standard orientation:
 ---------------------------------------------------------------------
 Center     Atomic      Atomic             Coordinates (Angstroms)
 Number     Number       Type             X           Y           Z
 ---------------------------------------------------------------------
      1          6           0       -5.388689   -0.557319    0.136447
      2          6           0       -4.184195    0.333962    0.145743
      3          6           0       -2.930036   -0.067448   -0.111890
      4          6           0       -1.770982    0.821150   -0.096586
      5          6           0       -0.535926    0.440214   -0.348952
      6          6           0        0.686569    0.041490   -0.583947
      7          6           0        1.636454   -0.453856    0.472170
      8          6           0        2.474806   -1.683648    0.022497
      9          7           0        3.563234   -0.762134   -0.371959
     10          6           0        3.014593    0.289856    0.519606
     11          6           0        3.137613    1.716458    0.018840
     12          1           0       -5.120651   -1.590384   -0.108963
     13          1           0       -6.132479   -0.216281   -0.596806
     14          1           0       -5.891831   -0.559860    1.113219
     15          1           0       -4.358120    1.385123    0.381077
     16          1           0       -2.736243   -1.112815   -0.349432
     17          1           0       -1.960415    1.870448    0.139005
     18          1           0        1.072641    0.059866   -1.604965
     19          1           0        1.124237   -0.543611    1.431962
     20          1           0        2.712046   -2.341204    0.873146
     21          1           0        2.072267   -2.291888   -0.795919
     22          1           0        4.507172   -1.075130   -0.151164
     23          1           0        3.410616    0.222900    1.547561
     24          1           0        2.579654    2.402102    0.667515
     25          1           0        4.187573    2.033089    0.013129
     26          1           0        2.749645    1.807432   -0.999213
 ---------------------------------------------------------------------

 SCF Done:  E(UB3LYP) =  -444.891445236     A.U. after   33 cycles
 SCF Done:  E(UB3LYP) =  -444.891445236     a.u. after    1 cycles

 The electronic state is 2-A.
 Alpha  occ. eigenvalues --  -14.19534 -10.10125 -10.09587 -10.08977 -10.08697
 Alpha  occ. eigenvalues --  -10.08582 -10.08500 -10.08268 -10.08184 -10.07528
 Alpha  occ. eigenvalues --  -10.05998  -0.83368  -0.72718  -0.69520  -0.65404
 Alpha  occ. eigenvalues --   -0.64004  -0.60109  -0.56426  -0.53109  -0.46862
 Alpha  occ. eigenvalues --   -0.45364  -0.43784  -0.41226  -0.37667  -0.37098
 Alpha  occ. eigenvalues --   -0.35175  -0.33754  -0.32505  -0.32235  -0.31177
 Alpha  occ. eigenvalues --   -0.28999  -0.28485  -0.27265  -0.26413  -0.26257
 Alpha  occ. eigenvalues --   -0.23778  -0.22871  -0.22058  -0.15955  -0.13641
 Alpha  occ. eigenvalues --   -0.12878   0.04349
 Alpha virt. eigenvalues --    0.05570   0.06811   0.07222   0.08085   0.08347
 Alpha virt. eigenvalues --    0.08418   0.09198   0.09875   0.10566   0.10762
 Alpha virt. eigenvalues --    0.10825   0.11481   0.11723   0.12665   0.12905

  Beta  occ. eigenvalues --  -14.19502 -10.10102 -10.09566 -10.08969 -10.08691
  Beta  occ. eigenvalues --  -10.08574 -10.08493 -10.08260 -10.08172 -10.07489
  Beta  occ. eigenvalues --  -10.05982  -0.83328  -0.72693  -0.69489  -0.65362
  Beta  occ. eigenvalues --   -0.63968  -0.60057  -0.56374  -0.53052  -0.46803
  Beta  occ. eigenvalues --   -0.45310  -0.43721  -0.41173  -0.37631  -0.37066
  Beta  occ. eigenvalues --   -0.35147  -0.33725  -0.32458  -0.32187  -0.31141
  Beta  occ. eigenvalues --   -0.28954  -0.28454  -0.27235  -0.26365  -0.26214
  Beta  occ. eigenvalues --   -0.23733  -0.22836  -0.22026  -0.15923  -0.13577
  Beta  occ. eigenvalues --   -0.12837
  Beta virt. eigenvalues --    0.06416   0.06840   0.07055   0.07542   0.08502
  Beta virt. eigenvalues --    0.08593   0.08988   0.09906   0.10197   0.10838
  Beta virt. eigenvalues --    0.10929   0.11202   0.11540   0.12287   0.12727

 Mulliken charges and spin densities:
               1          2
     1  C    2.065267  -2.764101
     2  C   -1.565557   1.588456
     3  C    0.677459  -0.838697
     4  C   -0.168510   0.007701
     5  C    0.583618  -0.094994
     6  C   -0.318234  -0.136612
     7  C   -1.079708   1.099402
     8  C    0.816067  -1.327693
     9  N   -0.234595   0.052280
    10  C    0.502461  -0.655709
    11  C    0.193242  -0.839799
    12  H   -0.264668   0.401574
    13  H   -0.335360   0.477338
    14  H   -0.237686   0.378213
    15  H   -0.374431   0.509505
    16  H    0.034852   0.086699
    17  H    0.036960   0.126575
    18  H    0.115329   0.095386
    19  H   -0.061819   0.325691
    20  H   -0.519154   0.665048
    21  H    0.106278   0.042054
    22  H   -0.111565   0.357857
    23  H   -0.806922   0.989714
    24  H    0.041619   0.081938
    25  H   -0.148901   0.286090
    26  H    0.053958   0.086084
 Sum of Mulliken charges =  -1.00000   1.00000

 Dipole moment (field-independent basis, Debye):
    X=             -0.0182    Y=              1.4733    Z=             -2.8953  Tot=              3.2486
 Quadrupole moment (field-independent basis, Debye-Ang):
   XX=           -195.6971   YY=            -97.5381   ZZ=           -102.0115
   XY=              2.4707   XZ=             -9.1571   YZ=              2.7646

 Summary of Natural Population Analysis:

                                       Natural Population
                Natural  -----------------------------------------------
    Atom  No    Charge         Core      Valence    Rydberg      Total
 -----------------------------------------------------------------------
      C    1   -0.30066      0.99965     2.29527    0.00574     3.30066
      C    2   -0.08073      0.99954     2.07101    0.01018     3.08073
      C    3   -0.10419      0.99949     2.09532    0.00938     3.10419
      C    4   -0.14644      0.99947     2.13909    0.00789     3.14644
      C    5    0.04684      0.99948     1.94538    0.00831     2.95316
      C    6   -0.13132      0.99945     2.12278    0.00909     3.13132
      C    7   -0.11978      0.99955     2.10680    0.01343     3.11978
      C    8   -0.07833      0.99964     2.06709    0.01160     3.07833
      N    9   -0.34836      0.99975     2.83549    0.01312     3.84836
      C   10   -0.00047      0.99962     1.98715    0.01371     3.00047
      C   11   -0.29157      0.99964     2.28519    0.00674     3.29157
      H   12    0.10002      0.00000     0.39880    0.00119     0.39998
      H   13    0.10435      0.00000     0.39368    0.00197     0.39565
      H   14    0.10358      0.00000     0.39497    0.00144     0.39642
      H   15    0.08906      0.00000     0.40953    0.00141     0.41094
      H   16    0.09570      0.00000     0.40316    0.00114     0.40430
      H   17    0.10459      0.00000     0.39336    0.00205     0.39541
      H   18    0.10950      0.00000     0.38911    0.00138     0.39050
      H   19    0.10584      0.00000     0.39287    0.00129     0.39416
      H   20    0.08845      0.00000     0.40949    0.00205     0.41155
      H   21    0.08635      0.00000     0.41236    0.00130     0.41365
      H   22    0.17775      0.00000     0.31820    0.00405     0.32225
      H   23    0.08864      0.00000     0.40647    0.00489     0.41136
      H   24    0.10046      0.00000     0.39863    0.00091     0.39954
      H   25    0.10077      0.00000     0.39824    0.00100     0.39923
      H   26    0.09998      0.00000     0.39885    0.00117     0.40002
 =======================================================================
   * Total *    0.00000     10.99528    29.86829    0.13643    41.00000

 Normal termination of Gaussian 16 at Mon Jan  4 09:22:18 2021.
