 Gaussian 16, Revision A.03,

 -----------------------------------------------------------
 # opt freq B3LYP/6-31G(d) empiricaldispersion=gd3bj scf=xqc
 -----------------------------------------------------------

 ------------------------------
 CID_153724869_JID_408_neutraal
 ------------------------------
 Symbolic Z-matrix:
 Charge =  0 Multiplicity = 1

 SCF Done:  E(RB3LYP) =  -479.773789281     A.U. after   14 cycles
 SCF Done:  E(RB3LYP) =  -479.777291045     A.U. after   12 cycles
 SCF Done:  E(RB3LYP) =  -479.778063183     A.U. after   11 cycles
 SCF Done:  E(RB3LYP) =  -479.778848683     A.U. after   12 cycles
 SCF Done:  E(RB3LYP) =  -479.779512552     A.U. after   13 cycles
 SCF Done:  E(RB3LYP) =  -479.780165361     A.U. after   12 cycles
 SCF Done:  E(RB3LYP) =  -479.780377280     A.U. after   12 cycles
 SCF Done:  E(RB3LYP) =  -479.780467269     A.U. after   12 cycles
 SCF Done:  E(RB3LYP) =  -479.780559111     A.U. after   11 cycles
 SCF Done:  E(RB3LYP) =  -479.780584154     A.U. after   10 cycles
 SCF Done:  E(RB3LYP) =  -479.781724339     A.U. after   10 cycles
 SCF Done:  E(RB3LYP) =  -479.781736073     A.U. after   10 cycles
 SCF Done:  E(RB3LYP) =  -479.781735513     A.U. after    9 cycles
 SCF Done:  E(RB3LYP) =  -479.781736791     A.U. after    9 cycles
 SCF Done:  E(RB3LYP) =  -479.781736992     A.U. after    8 cycles
 SCF Done:  E(RB3LYP) =  -479.781737185     A.U. after    7 cycles
 Optimization completed.
    -- Stationary point found.
 Normal termination of Gaussian 16 at Tue Dec  8 10:48:14 2020.

 --------------------------------------------------------------------
 #N Geom=AllCheck Guess=TCheck SCRF=Check GenChk RB3LYP/6-31G(d) Freq
 --------------------------------------------------------------------

 Structure from the checkpoint file:  "JID_408.chk"
 ------------------------------
 CID_153724869_JID_408_neutraal
 ------------------------------
 Charge =  0 Multiplicity = 1

 SCF Done:  E(RB3LYP) =  -479.781737185     A.U. after    1 cycles

  Exact polarizability:  98.012   2.387  73.206   0.871  -3.204  79.879
 Approx polarizability: 127.852   9.159 104.789  -3.593  -8.391 118.570

                      1                      2                      3
                      A                      A                      A
 Frequencies --     42.1388                50.3660                91.4512
 Red. masses --      3.2900                 5.2385                 2.3834
 Frc consts  --      0.0034                 0.0078                 0.0117
 IR Inten    --      0.7611                 0.6223                 0.4580

                      4                      5                      6
                      A                      A                      A
 Frequencies --    154.2848               165.7843               234.4269
 Red. masses --      2.3476                 2.9889                 1.3108
 Frc consts  --      0.0329                 0.0484                 0.0424
 IR Inten    --      2.1474                 0.8379                 0.2948

                      7                      8                      9
                      A                      A                      A
 Frequencies --    243.3727               253.7609               270.5670
 Red. masses --      2.3333                 3.2601                 1.2858
 Frc consts  --      0.0814                 0.1237                 0.0555
 IR Inten    --     13.0014                 1.6813               104.6624

                     10                     11                     12
                      A                      A                      A
 Frequencies --    287.8586               369.2463               451.7556
 Red. masses --      2.9755                 4.7449                 3.7050
 Frc consts  --      0.1453                 0.3812                 0.4455
 IR Inten    --      4.1436                10.1030                 8.7232

                     13                     14                     15
                      A                      A                      A
 Frequencies --    487.7092               545.2417               561.8336
 Red. masses --      3.3326                 1.3054                 3.5208
 Frc consts  --      0.4670                 0.2287                 0.6548
 IR Inten    --      9.6354                63.2975                14.6838

                     16                     17                     18
                      A                      A                      A
 Frequencies --    691.1803               742.2470               758.0730
 Red. masses --      2.9285                 2.6364                 2.4869
 Frc consts  --      0.8243                 0.8558                 0.8420
 IR Inten    --     15.9911                18.6495                10.5092

                     19                     20                     21
                      A                      A                      A
 Frequencies --    812.4929               836.7835               850.5946
 Red. masses --      1.1865                 1.6042                 1.7958
 Frc consts  --      0.4615                 0.6618                 0.7655
 IR Inten    --      3.6775                21.3923                 9.1520

                     22                     23                     24
                      A                      A                      A
 Frequencies --    880.0676               930.7389               947.7125
 Red. masses --      1.7343                 2.4365                 3.5691
 Frc consts  --      0.7914                 1.2436                 1.8887
 IR Inten    --      4.2185                 4.8885                22.1457

                     25                     26                     27
                      A                      A                      A
 Frequencies --   1015.9110              1060.1650              1070.8247
 Red. masses --      2.3976                 2.2796                 1.2984
 Frc consts  --      1.4579                 1.5096                 0.8772
 IR Inten    --     13.2284                27.4556                11.9498

                     28                     29                     30
                      A                      A                      A
 Frequencies --   1088.9924              1096.2792              1123.6365
 Red. masses --      2.2132                 1.3434                 1.4917
 Frc consts  --      1.5464                 0.9512                 1.1096
 IR Inten    --     11.9433                 3.0583                19.3437

                     31                     32                     33
                      A                      A                      A
 Frequencies --   1141.5227              1156.5712              1169.5512
 Red. masses --      1.8345                 1.2092                 2.0437
 Frc consts  --      1.4084                 0.9530                 1.6470
 IR Inten    --     43.5456                27.7546                60.7762

                     34                     35                     36
                      A                      A                      A
 Frequencies --   1223.0619              1237.5581              1255.1825
 Red. masses --      1.3791                 2.0174                 1.7874
 Frc consts  --      1.2155                 1.8205                 1.6592
 IR Inten    --      2.0316                 5.6877               137.3558

                     37                     38                     39
                      A                      A                      A
 Frequencies --   1301.8846              1327.8040              1349.0897
 Red. masses --      1.2813                 1.4312                 1.2005
 Frc consts  --      1.2795                 1.4866                 1.2873
 IR Inten    --     34.7822                71.9142                19.4140

                     40                     41                     42
                      A                      A                      A
 Frequencies --   1407.8224              1438.3538              1451.9052
 Red. masses --      1.4049                 1.2864                 1.6668
 Frc consts  --      1.6405                 1.5681                 2.0702
 IR Inten    --      8.0699                19.6430               163.5815

                     43                     44                     45
                      A                      A                      A
 Frequencies --   1477.5677              1479.9197              1503.1877
 Red. masses --      1.5759                 1.0934                 1.4451
 Frc consts  --      2.0271                 1.4110                 1.9238
 IR Inten    --     18.5887                 1.9607                61.6155

                     46                     47                     48
                      A                      A                      A
 Frequencies --   1520.3073              1521.3170              1529.3848
 Red. masses --      1.3020                 1.3246                 1.0423
 Frc consts  --      1.7730                 1.8063                 1.4364
 IR Inten    --      4.7235                37.0436                 7.3300

                     49                     50                     51
                      A                      A                      A
 Frequencies --   1538.3454              1775.3271              3003.1020
 Red. masses --      1.0634                 7.5774                 1.0853
 Frc consts  --      1.4827                14.0711                 5.7668
 IR Inten    --      6.4365               264.4354                59.3745

                     52                     53                     54
                      A                      A                      A
 Frequencies --   3028.8500              3051.8007              3104.1888
 Red. masses --      1.0702                 1.0388                 1.0929
 Frc consts  --      5.7846                 5.7000                 6.2048
 IR Inten    --     41.3183                24.5319                 4.3962

                     55                     56                     57
                      A                      A                      A
 Frequencies --   3122.9539              3135.0471              3152.9128
 Red. masses --      1.0981                 1.1031                 1.0530
 Frc consts  --      6.3099                 6.3879                 6.1675
 IR Inten    --     43.2470                28.5149                14.7142

                     58                     59                     60
                      A                      A                      A
 Frequencies --   3161.7903              3232.5349              3238.6935
 Red. masses --      1.0555                 1.0951                 1.1158
 Frc consts  --      6.2169                 6.7419                 6.8954
 IR Inten    --     14.6045                 0.0801                 2.9319

                     61                     62                     63
                      A                      A                      A
 Frequencies --   3256.6017              3614.8369              3741.3278
 Red. masses --      1.1156                 1.0767                 1.0656
 Frc consts  --      6.9707                 8.2891                 8.7879
 IR Inten    --      6.2435                26.2863                12.4594

 - Thermochemistry -
 -------------------
 Temperature   298.150 Kelvin.  Pressure   1.00000 Atm.
 Atom     1 has atomic number  6 and mass  12.00000

 Molecular mass:   143.09463 amu.
 Principal axes and moments of inertia in atomic units:
                           1         2         3
     Eigenvalues --   992.140822053.337142103.87333
           X            0.99947  -0.02980   0.01287
           Y            0.02849   0.99534   0.09216
           Z           -0.01556  -0.09175   0.99566
 This molecule is an asymmetric top.
 Rotational symmetry number  1.
 Warning -- assumption of classical behavior for rotation
           may cause significant error
 Rotational temperatures (Kelvin)      0.08730     0.04218     0.04117
 Rotational constants (GHZ):           1.81904     0.87893     0.85782
 Zero-point vibrational energy     524956.1 (Joules/Mol)
                                  125.46751 (Kcal/Mol)
 Warning -- explicit consideration of  15 degrees of freedom as
           vibrations may cause significant error
 Vibrational temperatures:     60.63    72.47   131.58   221.98   238.53
          (Kelvin)            337.29   350.16   365.11   389.29   414.16
                              531.26   649.98   701.70   784.48   808.35
                              994.45  1067.93  1090.70  1169.00  1203.94
                             1223.82  1266.22  1339.13  1363.55  1461.67
                             1525.34  1540.68  1566.82  1577.30  1616.66
                             1642.40  1664.05  1682.72  1759.71  1780.57
                             1805.93  1873.12  1910.41  1941.04  2025.54
                             2069.47  2088.97  2125.89  2129.27  2162.75
                             2187.38  2188.84  2200.44  2213.34  2554.30
                             4320.79  4357.84  4390.86  4466.24  4493.23
                             4510.63  4536.34  4549.11  4650.90  4659.76
                             4685.52  5200.94  5382.94

 Zero-point correction=                           0.199945 (Hartree/Particle)
 Thermal correction to Energy=                    0.211075
 Thermal correction to Enthalpy=                  0.212019
 Thermal correction to Gibbs Free Energy=         0.162610
 Sum of electronic and zero-point Energies=           -479.581792
 Sum of electronic and thermal Energies=              -479.570662
 Sum of electronic and thermal Enthalpies=            -479.569718
 Sum of electronic and thermal Free Energies=         -479.619127

                     E (Thermal)             CV                S
                      KCal/Mol        Cal/Mol-Kelvin    Cal/Mol-Kelvin
 Total                  132.452             40.665            103.991
 Electronic               0.000              0.000              0.000
 Translational            0.889              2.981             40.786
 Rotational               0.889              2.981             29.840
 Vibrational            130.674             34.703             33.365
 Vibration     1          0.595              1.980              5.156
 Vibration     2          0.595              1.977              4.803
 Vibration     3          0.602              1.955              3.629
 Vibration     4          0.620              1.898              2.619
 Vibration     5          0.624              1.885              2.483
 Vibration     6          0.654              1.788              1.845
 Vibration     7          0.659              1.774              1.778
 Vibration     8          0.665              1.756              1.704
 Vibration     9          0.674              1.727              1.593
 Vibration    10          0.685              1.696              1.487
 Vibration    11          0.742              1.535              1.083
 Vibration    12          0.810              1.357              0.790
 Vibration    13          0.844              1.277              0.690
 Vibration    14          0.900              1.150              0.554
 Vibration    15          0.918              1.114              0.520

 Optimization completed.
    -- Stationary point found.
 Normal termination of Gaussian 16 at Tue Dec  8 10:54:47 2020.

 ----------------------------------------------------------------------
 # B3LYP/6-311++G(d,p) empiricaldispersion=gd3bj scf=xqc pop=npa geom=c
 heck
 ----------------------------------------------------------------------

 --------------------------------------
 CID_153724869_JID_408_Energie_neutraal
 --------------------------------------
 Structure from the checkpoint file:  "JID_408.chk"
 Charge =  0 Multiplicity = 1

 SCF Done:  E(RB3LYP) =  -479.935020826     A.U. after   13 cycles
 Normal termination of Gaussian 16 at Tue Dec  8 10:59:21 2020.

 ----------------------------------------------------------------------
 # B3LYP/6-311++G(d,p) empiricaldispersion=gd3bj scf=xqc pop=npa geom=c
 heck
 ----------------------------------------------------------------------

 ------------------------------------
 CID_153724869_JID_408_Energie_kation
 ------------------------------------
 Structure from the checkpoint file:  "JID_408.chk"
 Charge =  1 Multiplicity = 2

 SCF Done:  E(UB3LYP) =  -479.598931145     A.U. after   26 cycles
 Normal termination of Gaussian 16 at Tue Dec  8 11:05:27 2020.
 Gaussian 16:  ES64L-G16RevA.03 25-Dec-2016

 ----------------------------------------------------------------------
 # B3LYP/6-311++G(d,p) empiricaldispersion=gd3bj scf=xqc pop=npa geom=c
 heck
 ----------------------------------------------------------------------

 -----------------------------------
 CID_153724869_JID_408_Energie_anion
 -----------------------------------
 Structure from the checkpoint file:  "JID_408.chk"
 Charge = -1 Multiplicity = 2

                         Standard orientation:
 ---------------------------------------------------------------------
 Center     Atomic      Atomic             Coordinates (Angstroms)
 Number     Number       Type             X           Y           Z
 ---------------------------------------------------------------------
      1          6           0       -2.261067    1.728800    0.281263
      2          6           0       -1.894696    0.354125    0.841478
      3          6           0       -1.608605   -0.679386   -0.260361
      4          7           0       -0.543903   -0.297703   -1.159957
      5          6           0        0.765794    0.033723   -0.880593
      6          8           0        1.452678    0.583337   -1.736460
      7          6           0        1.301044   -0.309416    0.470790
      8          6           0        2.807401   -0.387176    0.600050
      9          6           0        2.087382    0.784925    1.182130
     10          8           0       -1.298741   -1.959942    0.285722
     11          1           0       -1.429916    2.149220   -0.293424
     12          1           0       -2.502411    2.427016    1.088831
     13          1           0       -3.133283    1.670217   -0.381436
     14          1           0       -1.020412    0.432742    1.495263
     15          1           0       -2.722516   -0.027653    1.456860
     16          1           0       -2.502726   -0.754894   -0.897947
     17          1           0       -0.804431   -0.063436   -2.108485
     18          1           0        0.709279   -0.989983    1.068830
     19          1           0        3.203712   -1.143417    1.270731
     20          1           0        3.366233   -0.224551   -0.315239
     21          1           0        2.170381    1.731961    0.658090
     22          1           0        1.976921    0.857512    2.260335
     23          1           0       -1.918517   -2.121543    1.014659
 ---------------------------------------------------------------------

 SCF Done:  E(UB3LYP) =  -479.924232010     A.U. after   29 cycles

 The electronic state is 2-A.
 Alpha  occ. eigenvalues --  -19.01616 -18.98522 -14.22879 -10.17253 -10.15242
 Alpha  occ. eigenvalues --  -10.08506 -10.08469 -10.08205 -10.05996 -10.05357
 Alpha  occ. eigenvalues --   -0.94044  -0.92353  -0.80920  -0.76764  -0.66934
 Alpha  occ. eigenvalues --   -0.58654  -0.55731  -0.51142  -0.50526  -0.45192
 Alpha  occ. eigenvalues --   -0.42869  -0.40471  -0.39562  -0.37381  -0.34037
 Alpha  occ. eigenvalues --   -0.33797  -0.31205  -0.30560  -0.30516  -0.28730
 Alpha  occ. eigenvalues --   -0.27334  -0.25345  -0.24069  -0.23711  -0.21663
 Alpha  occ. eigenvalues --   -0.19797  -0.17836  -0.16372  -0.15291   0.04716
 Alpha virt. eigenvalues --    0.07161   0.07976   0.08422   0.09493   0.10259
 Alpha virt. eigenvalues --    0.10639   0.10853   0.11487   0.12323   0.13058
 Alpha virt. eigenvalues --    0.13545   0.14644   0.14878   0.16123   0.16849

  Beta  occ. eigenvalues --  -19.01572 -18.98518 -14.22869 -10.17251 -10.15212
  Beta  occ. eigenvalues --  -10.08498 -10.08456 -10.08200 -10.05948 -10.05324
  Beta  occ. eigenvalues --   -0.94019  -0.92278  -0.80877  -0.76750  -0.66864
  Beta  occ. eigenvalues --   -0.58592  -0.55675  -0.51107  -0.50427  -0.45131
  Beta  occ. eigenvalues --   -0.42827  -0.40417  -0.39473  -0.37339  -0.34004
  Beta  occ. eigenvalues --   -0.33760  -0.31151  -0.30523  -0.30455  -0.28709
  Beta  occ. eigenvalues --   -0.27321  -0.25247  -0.24020  -0.23653  -0.21647
  Beta  occ. eigenvalues --   -0.19779  -0.17785  -0.16359  -0.15263
  Beta virt. eigenvalues --    0.07326   0.07990   0.08814   0.09156   0.09774
  Beta virt. eigenvalues --    0.10670   0.11059   0.11338   0.11906   0.12987
  Beta virt. eigenvalues --    0.13526   0.14050   0.14761   0.15330   0.16125

 Mulliken charges and spin densities:
               1          2
     1  C    1.376612  -1.990801
     2  C   -0.499615   0.571597
     3  C    1.340129  -1.777958
     4  N   -0.218012   0.048774
     5  C   -0.130068  -0.145169
     6  O   -0.360998   0.007232
     7  C    0.001569   0.392783
     8  C    0.127035  -0.556278
     9  C    0.127566  -0.602103
    10  O   -0.220704  -0.012820
    11  H   -0.078216   0.244055
    12  H   -0.389480   0.527499
    13  H   -0.047754   0.190201
    14  H   -0.153653   0.302737
    15  H   -1.288324   1.467209
    16  H   -0.926070   1.125598
    17  H    0.168413   0.163105
    18  H    0.135855   0.197736
    19  H    0.074876   0.058989
    20  H    0.147707   0.016115
    21  H    0.145385   0.022706
    22  H   -0.158467   0.313816
    23  H   -0.173787   0.434976
 Sum of Mulliken charges =  -1.00000   1.00000

 Dipole moment (field-independent basis, Debye):
    X=              7.6632    Y=              1.3362    Z=             -1.7626  Tot=              7.9761
 Quadrupole moment (field-independent basis, Debye-Ang):
   XX=           -122.8280   YY=            -94.9702   ZZ=            -99.0041
   XY=             -6.6671   XZ=             11.6011   YZ=              1.4426

 Summary of Natural Population Analysis:

                                       Natural Population
                Natural  -----------------------------------------------
    Atom  No    Charge         Core      Valence    Rydberg      Total
 -----------------------------------------------------------------------
      C    1   -0.28661      0.99966     2.28097    0.00597     3.28661
      C    2   -0.20736      0.99962     2.19780    0.00994     3.20736
      C    3    0.15205      0.99959     1.83022    0.01815     2.84795
      N    4   -0.32120      0.99966     2.81072    0.01082     3.82120
      C    5    0.34706      0.99965     1.63045    0.02284     2.65294
      O    6   -0.33434      0.99988     3.32926    0.00521     4.33434
      C    7   -0.16722      0.99954     2.15792    0.00976     3.16722
      C    8   -0.18990      0.99963     2.18211    0.00816     3.18990
      C    9   -0.18818      0.99963     2.18066    0.00789     3.18818
      O   10   -0.37426      0.99989     3.36789    0.00648     4.37426
      H   11    0.09719      0.00000     0.40150    0.00132     0.40281
      H   12    0.10154      0.00000     0.39748    0.00098     0.39846
      H   13    0.09891      0.00000     0.39968    0.00141     0.40109
      H   14    0.09923      0.00000     0.39893    0.00183     0.40077
      H   15    0.10572      0.00000     0.38486    0.00942     0.39428
      H   16    0.08449      0.00000     0.41206    0.00346     0.41551
      H   17    0.19709      0.00000     0.30058    0.00233     0.30291
      H   18    0.12392      0.00000     0.37413    0.00195     0.37608
      H   19    0.10093      0.00000     0.39833    0.00074     0.39907
      H   20    0.11131      0.00000     0.38766    0.00103     0.38869
      H   21    0.10706      0.00000     0.39198    0.00096     0.39294
      H   22    0.10362      0.00000     0.39538    0.00101     0.39638
      H   23    0.23896      0.00000     0.25125    0.00979     0.26104
 =======================================================================
   * Total *    0.00000      9.99674    28.86180    0.14146    39.00000

 Normal termination of Gaussian 16 at Tue Dec  8 11:13:48 2020.
