 Gaussian 16, Revision A.03,

 -----------------------------------------------------------
 # opt freq B3LYP/6-31G(d) empiricaldispersion=gd3bj scf=xqc
 -----------------------------------------------------------

 ------------------------------
 CID_55271493_JID_4308_neutraal
 ------------------------------
 Symbolic Z-matrix:
 Charge =  0 Multiplicity = 1

 SCF Done:  E(RB3LYP) =  -632.184128475     A.U. after   14 cycles
 SCF Done:  E(RB3LYP) =  -632.191687462     A.U. after   12 cycles
 SCF Done:  E(RB3LYP) =  -632.193079771     A.U. after   12 cycles
 SCF Done:  E(RB3LYP) =  -632.193683045     A.U. after   12 cycles
 SCF Done:  E(RB3LYP) =  -632.193806092     A.U. after   11 cycles
 SCF Done:  E(RB3LYP) =  -632.193834230     A.U. after   10 cycles
 SCF Done:  E(RB3LYP) =  -632.193839418     A.U. after    9 cycles
 SCF Done:  E(RB3LYP) =  -632.193845600     A.U. after    9 cycles
 SCF Done:  E(RB3LYP) =  -632.193853942     A.U. after   10 cycles
 SCF Done:  E(RB3LYP) =  -632.193870492     A.U. after   11 cycles
 SCF Done:  E(RB3LYP) =  -632.193927453     A.U. after   10 cycles
 SCF Done:  E(RB3LYP) =  -632.193928054     A.U. after   10 cycles
 SCF Done:  E(RB3LYP) =  -632.193928741     A.U. after   10 cycles
 SCF Done:  E(RB3LYP) =  -632.193928800     A.U. after    7 cycles
 SCF Done:  E(RB3LYP) =  -632.193928821     A.U. after    7 cycles
 Optimization completed.
    -- Stationary point found.
 Normal termination of Gaussian 16 at Thu Dec 10 09:27:12 2020.

 --------------------------------------------------------------------
 #N Geom=AllCheck Guess=TCheck SCRF=Check GenChk RB3LYP/6-31G(d) Freq
 --------------------------------------------------------------------

 Structure from the checkpoint file:  "JID_4308.chk"
 ------------------------------
 CID_55271493_JID_4308_neutraal
 ------------------------------
 Charge =  0 Multiplicity = 1

 SCF Done:  E(RB3LYP) =  -632.193928821     A.U. after    1 cycles

  Exact polarizability: 147.299   3.531 132.845   9.292   1.878  85.916
 Approx polarizability: 217.352   6.633 214.214  26.236   6.582 125.697

                      1                      2                      3
                      A                      A                      A
 Frequencies --     33.2249                52.9730                82.0817
 Red. masses --      4.3826                 3.8054                 2.7477
 Frc consts  --      0.0029                 0.0063                 0.0109
 IR Inten    --      0.0075                 0.0904                 0.2223

                      4                      5                      6
                      A                      A                      A
 Frequencies --    102.7697               128.5428               157.4940
 Red. masses --      2.3548                 3.1855                 5.0712
 Frc consts  --      0.0147                 0.0310                 0.0741
 IR Inten    --      8.7925                 0.2237                 0.2951

                      7                      8                      9
                      A                      A                      A
 Frequencies --    191.0724               240.6981               273.7863
 Red. masses --      3.4124                 3.3293                 4.1676
 Frc consts  --      0.0734                 0.1136                 0.1841
 IR Inten    --      0.8753                 0.6791                 2.7179

                     10                     11                     12
                      A                      A                      A
 Frequencies --    308.7612               328.6024               347.9159
 Red. masses --      1.2233                 3.9397                 2.7723
 Frc consts  --      0.0687                 0.2506                 0.1977
 IR Inten    --     35.4528                 8.4515                 5.2477

                     13                     14                     15
                      A                      A                      A
 Frequencies --    424.2619               437.5079               494.1264
 Red. masses --      2.9530                 3.3510                 3.2092
 Frc consts  --      0.3132                 0.3779                 0.4617
 IR Inten    --      2.5321                 3.5494                 8.1427

                     16                     17                     18
                      A                      A                      A
 Frequencies --    547.9041               575.2171               598.9170
 Red. masses --      3.6900                 4.2118                 3.7811
 Frc consts  --      0.6527                 0.8211                 0.7991
 IR Inten    --      1.2469                 2.9943                 5.8492

                     19                     20                     21
                      A                      A                      A
 Frequencies --    608.2831               663.0972               675.1677
 Red. masses --      5.3450                 2.2089                 3.7240
 Frc consts  --      1.1652                 0.5722                 1.0002
 IR Inten    --      0.3947                10.2518                 8.0166

                     22                     23                     24
                      A                      A                      A
 Frequencies --    723.9445               762.0317               779.6003
 Red. masses --      3.3312                 7.7960                 1.5198
 Frc consts  --      1.0286                 2.6673                 0.5442
 IR Inten    --     19.4839                 2.4590                24.4223

                     25                     26                     27
                      A                      A                      A
 Frequencies --    849.6162               882.6412               908.9277
 Red. masses --      5.1847                 1.3688                 1.6975
 Frc consts  --      2.2051                 0.6283                 0.8263
 IR Inten    --      7.6363                 1.1238                39.7402

                     28                     29                     30
                      A                      A                      A
 Frequencies --    937.3337               940.0299               945.4150
 Red. masses --      2.0567                 1.4172                 1.2423
 Frc consts  --      1.0646                 0.7379                 0.6542
 IR Inten    --    143.6864                52.1225                 3.9218

                     31                     32                     33
                      A                      A                      A
 Frequencies --    960.0684               967.9024               988.4557
 Red. masses --      1.9731                 5.9921                 1.9606
 Frc consts  --      1.0715                 3.3074                 1.1286
 IR Inten    --     42.1795                89.0069                 2.1710

                     34                     35                     36
                      A                      A                      A
 Frequencies --   1038.3271              1044.3768              1074.0876
 Red. masses --      1.4904                 1.8968                 2.6953
 Frc consts  --      0.9467                 1.2189                 1.8321
 IR Inten    --     12.8319                 0.3758                17.7871

                     37                     38                     39
                      A                      A                      A
 Frequencies --   1086.9881              1129.7203              1148.4438
 Red. masses --      2.6983                 1.9831                 1.9902
 Frc consts  --      1.8784                 1.4912                 1.5466
 IR Inten    --    104.4101                33.7928                12.1763

                     40                     41                     42
                      A                      A                      A
 Frequencies --   1155.6826              1179.2124              1204.5861
 Red. masses --      1.5503                 1.5421                 2.0448
 Frc consts  --      1.2199                 1.2634                 1.7481
 IR Inten    --     11.9387                 9.6617                18.1563

                     43                     44                     45
                      A                      A                      A
 Frequencies --   1210.9493              1219.3210              1248.5144
 Red. masses --      1.5192                 1.1426                 1.5919
 Frc consts  --      1.3126                 1.0009                 1.4620
 IR Inten    --      2.2425                 2.2794                 3.8880

                     46                     47                     48
                      A                      A                      A
 Frequencies --   1279.9461              1296.0037              1335.7871
 Red. masses --      1.4486                 2.6056                 1.2556
 Frc consts  --      1.3983                 2.5785                 1.3200
 IR Inten    --     24.1672               154.6266                 2.4457

                     49                     50                     51
                      A                      A                      A
 Frequencies --   1361.0861              1376.9730              1407.4893
 Red. masses --      1.4943                 1.4424                 4.1940
 Frc consts  --      1.6310                 1.6113                 4.8952
 IR Inten    --     16.1022                30.9865                12.2427

                     52                     53                     54
                      A                      A                      A
 Frequencies --   1423.1269              1449.3309              1475.2695
 Red. masses --      1.3064                 1.3503                 1.1882
 Frc consts  --      1.5588                 1.6711                 1.5236
 IR Inten    --      9.3187                 4.0964                 5.2642

                     55                     56                     57
                      A                      A                      A
 Frequencies --   1507.2251              1517.8595              1526.8115
 Red. masses --      2.5194                 1.2271                 2.8044
 Frc consts  --      3.3721                 1.6656                 3.8518
 IR Inten    --    156.3819                25.4909                24.3152

                     58                     59                     60
                      A                      A                      A
 Frequencies --   1571.2852              1653.0236              1692.4796
 Red. masses --      1.1259                 7.1438                 7.8955
 Frc consts  --      1.6377                11.5011                13.3254
 IR Inten    --      1.6107                 8.3428                 3.4788

                     61                     62                     63
                      A                      A                      A
 Frequencies --   1704.1194              1735.6898              3025.6546
 Red. masses --      1.0903                 4.5098                 1.0676
 Frc consts  --      1.8655                 8.0048                 5.7585
 IR Inten    --     18.7207                 7.6160               114.9158

                     64                     65                     66
                      A                      A                      A
 Frequencies --   3030.2831              3060.6934              3101.5670
 Red. masses --      1.0668                 1.0837                 1.0965
 Frc consts  --      5.7719                 5.9815                 6.2146
 IR Inten    --     14.0631                29.0355                19.2309

                     67                     68                     69
                      A                      A                      A
 Frequencies --   3127.9923              3151.4382              3160.5765
 Red. masses --      1.1036                 1.0625                 1.0872
 Frc consts  --      6.3620                 6.2172                 6.3989
 IR Inten    --     49.2056                22.6276                 6.3347

                     70                     71                     72
                      A                      A                      A
 Frequencies --   3189.2179              3207.3294              3231.2602
 Red. masses --      1.0871                 1.0924                 1.0942
 Frc consts  --      6.5147                 6.6208                 6.7314
 IR Inten    --      4.8900                16.5609                 6.5371

                     73                     74                     75
                      A                      A                      A
 Frequencies --   3234.1648              3460.4283              3543.7794
 Red. masses --      1.1156                 1.0496                 1.0918
 Frc consts  --      6.8753                 7.4052                 8.0784
 IR Inten    --     20.7964                 0.9816                 1.1512

 - Thermochemistry -
 -------------------
 Temperature   298.150 Kelvin.  Pressure   1.00000 Atm.
 Atom     1 has atomic number  6 and mass  12.00000

 Molecular mass:   191.09463 amu.
 Principal axes and moments of inertia in atomic units:
                           1         2         3
     Eigenvalues --  1769.990063502.633534069.21527
           X            0.99998   0.00312  -0.00629
           Y           -0.00313   0.99999  -0.00270
           Z            0.00629   0.00272   0.99998
 This molecule is an asymmetric top.
 Rotational symmetry number  1.
 Warning -- assumption of classical behavior for rotation
           may cause significant error
 Rotational temperatures (Kelvin)      0.04893     0.02473     0.02129
 Rotational constants (GHZ):           1.01963     0.51525     0.44351
 Zero-point vibrational energy     589139.7 (Joules/Mol)
                                  140.80778 (Kcal/Mol)
 Warning -- explicit consideration of  19 degrees of freedom as
           vibrations may cause significant error
 Vibrational temperatures:     47.80    76.22   118.10   147.86   184.94
          (Kelvin)            226.60   274.91   346.31   393.92   444.24
                              472.79   500.57   610.42   629.48   710.94
                              788.31   827.61   861.71   875.18   954.05
                              971.42  1041.59  1096.39  1121.67  1222.41
                             1269.92  1307.74  1348.61  1352.49  1360.24
                             1381.32  1392.60  1422.17  1493.92  1502.63
                             1545.37  1563.93  1625.42  1652.35  1662.77
                             1696.62  1733.13  1742.29  1754.33  1796.33
                             1841.56  1864.66  1921.90  1958.30  1981.16
                             2025.06  2047.56  2085.26  2122.58  2168.56
                             2183.86  2196.74  2260.73  2378.33  2435.10
                             2451.85  2497.27  4353.24  4359.90  4403.66
                             4462.46  4500.48  4534.22  4547.36  4588.57
                             4614.63  4649.06  4653.24  4978.78  5098.71

 Zero-point correction=                           0.224391 (Hartree/Particle)
 Thermal correction to Energy=                    0.237219
 Thermal correction to Enthalpy=                  0.238163
 Thermal correction to Gibbs Free Energy=         0.184220
 Sum of electronic and zero-point Energies=           -631.969537
 Sum of electronic and thermal Energies=              -631.956710
 Sum of electronic and thermal Enthalpies=            -631.955766
 Sum of electronic and thermal Free Energies=         -632.009709

                     E (Thermal)             CV                S
                      KCal/Mol        Cal/Mol-Kelvin    Cal/Mol-Kelvin
 Total                  148.857             48.764            113.533
 Electronic               0.000              0.000              0.000
 Translational            0.889              2.981             41.648
 Rotational               0.889              2.981             31.601
 Vibrational            147.080             42.803             40.284
 Vibration     1          0.594              1.983              5.627
 Vibration     2          0.596              1.976              4.703
 Vibration     3          0.600              1.961              3.840
 Vibration     4          0.605              1.947              3.401
 Vibration     5          0.611              1.925              2.968
 Vibration     6          0.621              1.894              2.580
 Vibration     7          0.634              1.852              2.217
 Vibration     8          0.658              1.778              1.798
 Vibration     9          0.676              1.722              1.572
 Vibration    10          0.698              1.657              1.369
 Vibration    11          0.712              1.618              1.267
 Vibration    12          0.726              1.580              1.176
 Vibration    13          0.786              1.417              0.878
 Vibration    14          0.798              1.388              0.834
 Vibration    15          0.850              1.263              0.673
 Vibration    16          0.903              1.144              0.549
 Vibration    17          0.932              1.085              0.494
 Vibration    18          0.957              1.034              0.452
 Vibration    19          0.967              1.014              0.436

 Optimization completed.
    -- Stationary point found.
 Normal termination of Gaussian 16 at Thu Dec 10 09:35:33 2020.

 ----------------------------------------------------------------------
 # B3LYP/6-311++G(d,p) empiricaldispersion=gd3bj scf=xqc pop=npa geom=c
 heck
 ----------------------------------------------------------------------

 --------------------------------------
 CID_55271493_JID_4308_Energie_neutraal
 --------------------------------------
 Structure from the checkpoint file:  "JID_4308.chk"
 Charge =  0 Multiplicity = 1

 SCF Done:  E(RB3LYP) =  -632.375059519     A.U. after   16 cycles
 Normal termination of Gaussian 16 at Thu Dec 10 09:39:27 2020.

 ----------------------------------------------------------------------
 # B3LYP/6-311++G(d,p) empiricaldispersion=gd3bj scf=xqc pop=npa geom=c
 heck
 ----------------------------------------------------------------------

 ------------------------------------
 CID_55271493_JID_4308_Energie_kation
 ------------------------------------
 Structure from the checkpoint file:  "JID_4308.chk"
 Charge =  1 Multiplicity = 2

 SCF Done:  E(UB3LYP) =  -632.083986606     A.U. after   26 cycles
 Normal termination of Gaussian 16 at Thu Dec 10 09:48:38 2020.
 Gaussian 16:  ES64L-G16RevA.03 25-Dec-2016

 ----------------------------------------------------------------------
 # B3LYP/6-311++G(d,p) empiricaldispersion=gd3bj scf=xqc pop=npa geom=c
 heck
 ----------------------------------------------------------------------

 -----------------------------------
 CID_55271493_JID_4308_Energie_anion
 -----------------------------------
 Structure from the checkpoint file:  "JID_4308.chk"
 Charge = -1 Multiplicity = 2

                         Standard orientation:
 ---------------------------------------------------------------------
 Center     Atomic      Atomic             Coordinates (Angstroms)
 Number     Number       Type             X           Y           Z
 ---------------------------------------------------------------------
      1          6           0        3.889997    0.618971   -1.448918
      2          6           0        2.637083    0.269919   -1.156743
      3          6           0        2.257314   -0.828283   -0.205375
      4          6           0        1.486785   -0.321327    1.034403
      5          6           0        0.212155    0.407055    0.641481
      6          6           0       -0.878682   -0.256329    0.101395
      7          6           0       -2.055603    0.388476   -0.260265
      8          6           0       -2.219313    1.752004   -0.107729
      9          6           0       -1.127403    2.453913    0.431090
     10          6           0        0.049448    1.799023    0.793457
     11          8           0       -2.964461   -0.533110   -0.732446
     12          6           0       -2.234577   -1.755412   -0.862704
     13          8           0       -1.008996   -1.615187   -0.132350
     14          7           0        1.280765   -1.453867    1.949636
     15          1           0        4.742073    0.103572   -1.009949
     16          1           0        4.113866    1.427605   -2.139568
     17          1           0        1.811588    0.814982   -1.614337
     18          1           0        1.623217   -1.565438   -0.719116
     19          1           0        3.147948   -1.356718    0.150566
     20          1           0        2.132377    0.397880    1.552395
     21          1           0       -3.142121    2.246017   -0.389647
     22          1           0       -1.204836    3.528407    0.565748
     23          1           0        0.877825    2.370977    1.202188
     24          1           0       -2.818076   -2.575599   -0.437804
     25          1           0       -2.006985   -1.937312   -1.922793
     26          1           0        0.776529   -1.127520    2.773454
     27          1           0        0.665679   -2.131481    1.499239
 ---------------------------------------------------------------------

 SCF Done:  E(UB3LYP) =  -632.359206872     A.U. after   33 cycles
 SCF Done:  E(UB3LYP) =  -632.359206872     a.u. after    1 cycles

 The electronic state is 2-A.
 Alpha  occ. eigenvalues --  -19.07161 -19.06990 -14.19775 -10.18716 -10.13843
 Alpha  occ. eigenvalues --  -10.13583 -10.11498 -10.08781 -10.08540 -10.08209
 Alpha  occ. eigenvalues --  -10.07898 -10.07836 -10.07749 -10.07511  -1.03168
 Alpha  occ. eigenvalues --   -0.94054  -0.80240  -0.76229  -0.70474  -0.66751
 Alpha  occ. eigenvalues --   -0.66378  -0.61738  -0.57808  -0.54612  -0.52772
 Alpha  occ. eigenvalues --   -0.50222  -0.46786  -0.43269  -0.42443  -0.41423
 Alpha  occ. eigenvalues --   -0.40268  -0.39594  -0.36991  -0.36298  -0.34510
 Alpha  occ. eigenvalues --   -0.33724  -0.32675  -0.31623  -0.30063  -0.29347
 Alpha  occ. eigenvalues --   -0.28375  -0.27815  -0.27055  -0.26434  -0.25411
 Alpha  occ. eigenvalues --   -0.24886  -0.22010  -0.17766  -0.16132  -0.14315
 Alpha  occ. eigenvalues --   -0.11731   0.04560
 Alpha virt. eigenvalues --    0.06371   0.07106   0.07527   0.08108   0.08332
 Alpha virt. eigenvalues --    0.08862   0.09034   0.09350   0.09643   0.09905
 Alpha virt. eigenvalues --    0.11279   0.11700   0.12267   0.12835   0.13252

  Beta  occ. eigenvalues --  -19.07159 -19.06989 -14.19753 -10.18660 -10.13844
  Beta  occ. eigenvalues --  -10.13571 -10.11492 -10.08771 -10.08534 -10.08182
  Beta  occ. eigenvalues --  -10.07880 -10.07828 -10.07742 -10.07502  -1.03158
  Beta  occ. eigenvalues --   -0.94048  -0.80202  -0.76194  -0.70452  -0.66715
  Beta  occ. eigenvalues --   -0.66322  -0.61711  -0.57727  -0.54574  -0.52749
  Beta  occ. eigenvalues --   -0.50191  -0.46757  -0.43235  -0.42402  -0.41370
  Beta  occ. eigenvalues --   -0.40234  -0.39527  -0.36961  -0.36270  -0.34464
  Beta  occ. eigenvalues --   -0.33682  -0.32646  -0.31603  -0.30019  -0.29331
  Beta  occ. eigenvalues --   -0.28348  -0.27790  -0.27038  -0.26406  -0.25389
  Beta  occ. eigenvalues --   -0.24866  -0.21961  -0.17745  -0.16094  -0.14252
  Beta  occ. eigenvalues --   -0.11691
  Beta virt. eigenvalues --    0.06672   0.07452   0.07668   0.07994   0.08334
  Beta virt. eigenvalues --    0.08483   0.09205   0.09621   0.09697   0.10059
  Beta virt. eigenvalues --    0.10260   0.11683   0.11940   0.12474   0.12991

 Mulliken charges and spin densities:
               1          2
     1  C    0.452159  -0.991688
     2  C   -0.710345   0.811952
     3  C   -0.120365  -0.142713
     4  C    2.028780  -2.799609
     5  C   -0.998177   1.790425
     6  C   -0.958490   1.158427
     7  C   -0.126534   0.019829
     8  C    0.216239  -0.534332
     9  C    0.840031  -1.227766
    10  C   -0.680204   0.228299
    11  O   -0.217912   0.080582
    12  C    2.136954  -2.216663
    13  O   -0.217428   0.071468
    14  N   -0.283827   0.093443
    15  H    0.064476   0.041338
    16  H   -0.133176   0.248911
    17  H    0.022554   0.140153
    18  H    0.065744   0.086546
    19  H    0.112019   0.054655
    20  H    0.140636   0.071685
    21  H   -0.297850   0.471088
    22  H   -0.777649   0.961492
    23  H   -0.223770   0.361099
    24  H   -0.806663   1.006830
    25  H   -0.600080   0.800527
    26  H   -0.038889   0.262263
    27  H    0.111768   0.151759
 Sum of Mulliken charges =  -1.00000   1.00000

 Dipole moment (field-independent basis, Debye):
    X=              3.6728    Y=              0.8982    Z=              0.5446  Tot=              3.8200
 Quadrupole moment (field-independent basis, Debye-Ang):
   XX=           -137.9980   YY=           -142.6437   ZZ=           -120.9518
   XY=             -8.2206   XZ=             -2.7724   YZ=             -2.3923

 Summary of Natural Population Analysis:

                                       Natural Population
                Natural  -----------------------------------------------
    Atom  No    Charge         Core      Valence    Rydberg      Total
 -----------------------------------------------------------------------
      C    1   -0.19683      0.99956     2.19059    0.00668     3.19683
      C    2   -0.07755      0.99956     2.06867    0.00932     3.07755
      C    3   -0.20817      0.99959     2.19919    0.00940     3.20817
      C    4   -0.01193      0.99956     1.99905    0.01332     3.01193
      C    5   -0.04636      0.99945     2.03407    0.01283     3.04636
      C    6    0.13168      0.99927     1.85465    0.01439     2.86832
      C    7    0.13534      0.99932     1.85198    0.01336     2.86466
      C    8   -0.12103      0.99952     2.11224    0.00927     3.12103
      C    9   -0.10040      0.99958     2.09025    0.01058     3.10040
      C   10   -0.10328      0.99953     2.09327    0.01049     3.10328
      O   11   -0.27174      0.99987     3.26349    0.00839     4.27174
      C   12    0.15870      0.99962     1.82625    0.01543     2.84130
      O   13   -0.28003      0.99987     3.27132    0.00884     4.28003
      N   14   -0.41929      0.99977     2.90986    0.00966     3.91929
      H   15    0.08743      0.00000     0.41137    0.00120     0.41257
      H   16    0.09316      0.00000     0.40576    0.00108     0.40684
      H   17    0.09835      0.00000     0.40029    0.00136     0.40165
      H   18    0.10706      0.00000     0.39119    0.00175     0.39294
      H   19    0.10172      0.00000     0.39623    0.00204     0.39828
      H   20    0.09384      0.00000     0.40423    0.00193     0.40616
      H   21    0.10781      0.00000     0.39101    0.00119     0.39219
      H   22    0.10308      0.00000     0.39516    0.00177     0.39692
      H   23    0.10213      0.00000     0.39639    0.00148     0.39787
      H   24    0.08643      0.00000     0.40788    0.00569     0.41357
      H   25    0.07484      0.00000     0.42128    0.00388     0.42516
      H   26    0.17604      0.00000     0.32218    0.00178     0.32396
      H   27    0.17899      0.00000     0.31830    0.00270     0.32101
 =======================================================================
   * Total *   -0.00000     13.99407    36.82613    0.17980    51.00000

 Normal termination of Gaussian 16 at Thu Dec 10 10:00:12 2020.
