 Gaussian 16, Revision A.03,

 -----------------------------------------------------------
 # opt freq B3LYP/6-31G(d) empiricaldispersion=gd3bj scf=xqc
 -----------------------------------------------------------

 -------------------------------
 CID_128203402_JID_7564_neutraal
 -------------------------------
 Symbolic Z-matrix:
 Charge =  0 Multiplicity = 1

 SCF Done:  E(RB3LYP) =  -715.458259591     A.U. after   14 cycles
 SCF Done:  E(RB3LYP) =  -715.464793545     A.U. after   12 cycles
 SCF Done:  E(RB3LYP) =  -715.464427393     A.U. after   12 cycles
 SCF Done:  E(RB3LYP) =  -715.466578213     A.U. after   11 cycles
 SCF Done:  E(RB3LYP) =  -715.467489630     A.U. after   12 cycles
 SCF Done:  E(RB3LYP) =  -715.468137105     A.U. after   13 cycles
 SCF Done:  E(RB3LYP) =  -715.468716266     A.U. after   11 cycles
 SCF Done:  E(RB3LYP) =  -715.468993973     A.U. after   11 cycles
 SCF Done:  E(RB3LYP) =  -715.469142170     A.U. after   11 cycles
 SCF Done:  E(RB3LYP) =  -715.469231569     A.U. after   11 cycles
 SCF Done:  E(RB3LYP) =  -715.470140748     A.U. after    9 cycles
 SCF Done:  E(RB3LYP) =  -715.470141972     A.U. after    8 cycles
 SCF Done:  E(RB3LYP) =  -715.470143241     A.U. after    8 cycles
 SCF Done:  E(RB3LYP) =  -715.470143927     A.U. after    8 cycles
 SCF Done:  E(RB3LYP) =  -715.470144301     A.U. after    8 cycles
 SCF Done:  E(RB3LYP) =  -715.470144355     A.U. after    6 cycles
 Optimization completed.
    -- Stationary point found.
 Normal termination of Gaussian 16 at Sun Dec 13 13:01:29 2020.

 --------------------------------------------------------------------
 #N Geom=AllCheck Guess=TCheck SCRF=Check GenChk RB3LYP/6-31G(d) Freq
 --------------------------------------------------------------------

 Structure from the checkpoint file:  "JID_7564.chk"
 -------------------------------
 CID_128203402_JID_7564_neutraal
 -------------------------------
 Charge =  0 Multiplicity = 1

 SCF Done:  E(RB3LYP) =  -715.470144355     A.U. after    1 cycles

  Exact polarizability: 182.285   6.419 145.207  -3.245  -3.167 139.450
 Approx polarizability: 217.783  16.927 233.619  -7.667 -12.878 214.307

                      1                      2                      3
                      A                      A                      A
 Frequencies --     21.4235                32.5697                41.5504
 Red. masses --      3.6215                 4.0326                 3.1917
 Frc consts  --      0.0010                 0.0025                 0.0032
 IR Inten    --      0.3560                 0.2210                 0.7267

                      4                      5                      6
                      A                      A                      A
 Frequencies --     60.9478                82.5396               103.7750
 Red. masses --      3.5906                 2.8802                 4.2784
 Frc consts  --      0.0079                 0.0116                 0.0271
 IR Inten    --      1.0744                 0.0821                 0.5693

                      7                      8                      9
                      A                      A                      A
 Frequencies --    130.2833               177.8331               181.7074
 Red. masses --      3.9285                 3.1565                 3.4471
 Frc consts  --      0.0393                 0.0588                 0.0671
 IR Inten    --      4.2725                 7.1484                 1.2817

                     10                     11                     12
                      A                      A                      A
 Frequencies --    223.8594               248.3292               286.8032
 Red. masses --      2.7403                 1.8823                 2.3682
 Frc consts  --      0.0809                 0.0684                 0.1148
 IR Inten    --      0.4150                 1.9957                 1.3397

                     13                     14                     15
                      A                      A                      A
 Frequencies --    300.1215               333.5503               378.0601
 Red. masses --      2.3015                 2.3462                 3.7781
 Frc consts  --      0.1221                 0.1538                 0.3182
 IR Inten    --      3.0218                 2.4614                 6.2923

                     16                     17                     18
                      A                      A                      A
 Frequencies --    403.3051               422.6439               497.3423
 Red. masses --      2.5268                 2.7595                 3.1906
 Frc consts  --      0.2422                 0.2904                 0.4650
 IR Inten    --      2.2992                 1.2034                 1.6285

                     19                     20                     21
                      A                      A                      A
 Frequencies --    523.7607               544.4278               557.4520
 Red. masses --      2.3197                 3.4053                 3.6649
 Frc consts  --      0.3749                 0.5947                 0.6710
 IR Inten    --      0.9343                 5.6953                 4.1111

                     22                     23                     24
                      A                      A                      A
 Frequencies --    564.7038               618.2404               634.2234
 Red. masses --      2.3782                 2.5153                 4.3967
 Frc consts  --      0.4468                 0.5664                 1.0420
 IR Inten    --      0.6881                 0.2251                 3.3831

                     25                     26                     27
                      A                      A                      A
 Frequencies --    671.2172               731.4158               743.6777
 Red. masses --      1.3156                 2.2604                 2.5124
 Frc consts  --      0.3492                 0.7125                 0.8187
 IR Inten    --     34.5526                 6.4081                 5.7434

                     28                     29                     30
                      A                      A                      A
 Frequencies --    807.6975               838.4791               845.5882
 Red. masses --      1.9081                 2.8037                 2.0725
 Frc consts  --      0.7334                 1.1614                 0.8731
 IR Inten    --      4.1624                 0.9592                 1.4265

                     31                     32                     33
                      A                      A                      A
 Frequencies --    874.6990               876.0520               902.8350
 Red. masses --      2.7689                 2.1006                 2.2045
 Frc consts  --      1.2482                 0.9499                 1.0587
 IR Inten    --      1.9856                 0.2846                 1.6732

                     34                     35                     36
                      A                      A                      A
 Frequencies --    906.9749               915.8132               920.9597
 Red. masses --      1.6265                 2.6097                 2.3500
 Frc consts  --      0.7883                 1.2896                 1.1743
 IR Inten    --      0.8554                 1.5257                 0.5456

                     37                     38                     39
                      A                      A                      A
 Frequencies --    926.6934               929.0685               954.7487
 Red. masses --      2.1856                 1.9806                 2.2374
 Frc consts  --      1.1058                 1.0073                 1.2016
 IR Inten    --      0.9590                 1.9581                 5.5013

                     40                     41                     42
                      A                      A                      A
 Frequencies --    956.8151               999.9645              1009.9427
 Red. masses --      1.8062                 1.2415                 2.8065
 Frc consts  --      0.9742                 0.7314                 1.6866
 IR Inten    --      3.2647                 0.3903                 4.3813

                     43                     44                     45
                      A                      A                      A
 Frequencies --   1022.8707              1025.6464              1042.3517
 Red. masses --      1.8428                 2.2101                 1.6616
 Frc consts  --      1.1360                 1.3698                 1.0637
 IR Inten    --      0.4094                10.1912                 0.6476

                     46                     47                     48
                      A                      A                      A
 Frequencies --   1049.0581              1056.9180              1061.5798
 Red. masses --      1.5241                 1.7567                 2.0747
 Frc consts  --      0.9883                 1.1562                 1.3776
 IR Inten    --      0.5242                 2.7646                 2.3328

                     49                     50                     51
                      A                      A                      A
 Frequencies --   1089.9385              1112.6417              1116.3250
 Red. masses --      1.9999                 1.8221                 2.3345
 Frc consts  --      1.3998                 1.3290                 1.7141
 IR Inten    --      0.6912                 5.9936                 1.8231

                     52                     53                     54
                      A                      A                      A
 Frequencies --   1149.3650              1161.7781              1168.3101
 Red. masses --      1.2575                 1.5907                 1.1158
 Frc consts  --      0.9787                 1.2650                 0.8973
 IR Inten    --      1.5775                 3.2198                 0.5406

                     55                     56                     57
                      A                      A                      A
 Frequencies --   1180.1161              1191.6361              1199.5100
 Red. masses --      1.2817                 2.7307                 1.5701
 Frc consts  --      1.0517                 2.2846                 1.3310
 IR Inten    --      0.2413                23.0027                13.2564

                     58                     59                     60
                      A                      A                      A
 Frequencies --   1210.6196              1215.5641              1232.7235
 Red. masses --      1.4762                 1.1944                 1.1177
 Frc consts  --      1.2747                 1.0398                 1.0007
 IR Inten    --      0.9105                 7.8649                 3.0865

                     61                     62                     63
                      A                      A                      A
 Frequencies --   1259.5332              1270.3944              1276.4183
 Red. masses --      1.3986                 1.3121                 1.2708
 Frc consts  --      1.3073                 1.2477                 1.2199
 IR Inten    --      0.5128                 5.2460                13.4576

                     64                     65                     66
                      A                      A                      A
 Frequencies --   1284.8618              1305.3089              1318.7579
 Red. masses --      1.3555                 1.4171                 1.4255
 Frc consts  --      1.3185                 1.4226                 1.4607
 IR Inten    --      0.5367                 0.6034                 1.5981

                     67                     68                     69
                      A                      A                      A
 Frequencies --   1323.3280              1335.6930              1344.2399
 Red. masses --      1.3203                 1.3245                 1.3150
 Frc consts  --      1.3622                 1.3923                 1.4000
 IR Inten    --      0.7960                 2.7850                 2.3615

                     70                     71                     72
                      A                      A                      A
 Frequencies --   1351.8073              1361.4575              1361.9062
 Red. masses --      1.4272                 1.3855                 1.7932
 Frc consts  --      1.5366                 1.5131                 1.9597
 IR Inten    --      0.4284                 2.8087                10.9754

                     73                     74                     75
                      A                      A                      A
 Frequencies --   1368.2382              1370.2264              1387.4382
 Red. masses --      1.3661                 1.3557                 1.7238
 Frc consts  --      1.5069                 1.4996                 1.9551
 IR Inten    --      2.4547                 2.4847                27.6570

                     76                     77                     78
                      A                      A                      A
 Frequencies --   1396.4075              1399.7801              1407.3974
 Red. masses --      1.5603                 1.5665                 1.4510
 Frc consts  --      1.7926                 1.8084                 1.6933
 IR Inten    --      9.8217                 9.9188                 3.0613

                     79                     80                     81
                      A                      A                      A
 Frequencies --   1437.9591              1451.9980              1506.2170
 Red. masses --      1.5596                 6.2131                 1.0869
 Frc consts  --      1.9000                 7.7177                 1.4528
 IR Inten    --      1.8012               315.4964                 2.5284

                     82                     83                     84
                      A                      A                      A
 Frequencies --   1516.1035              1518.9560              1520.8204
 Red. masses --      1.0966                 1.0892                 1.0802
 Frc consts  --      1.4850                 1.4807                 1.4721
 IR Inten    --      9.9444                 0.5046                 3.9033

                     85                     86                     87
                      A                      A                      A
 Frequencies --   1523.3837              1525.4358              1535.7394
 Red. masses --      1.0928                 1.1012                 1.0887
 Frc consts  --      1.4942                 1.5098                 1.5128
 IR Inten    --      7.2578                22.7296                 3.9644

                     88                     89                     90
                      A                      A                      A
 Frequencies --   1548.4706              1554.5317              1721.3674
 Red. masses --      1.1031                 1.1068                11.0349
 Frc consts  --      1.5584                 1.5758                19.2649
 IR Inten    --      1.2527                15.7022               218.9025

                     91                     92                     93
                      A                      A                      A
 Frequencies --   1735.3546              3015.7734              3024.4413
 Red. masses --      6.1533                 1.0752                 1.0652
 Frc consts  --     10.9179                 5.7614                 5.7407
 IR Inten    --     10.4921                27.8505                23.6469

                     94                     95                     96
                      A                      A                      A
 Frequencies --   3031.2374              3039.9781              3040.7172
 Red. masses --      1.0848                 1.0702                 1.0809
 Frc consts  --      5.8730                 5.8270                 5.8884
 IR Inten    --     18.4658                25.0390                11.0105

                     97                     98                     99
                      A                      A                      A
 Frequencies --   3047.3084              3050.3275              3055.5585
 Red. masses --      1.0638                 1.0850                 1.0615
 Frc consts  --      5.8204                 5.9480                 5.8389
 IR Inten    --     23.6244                25.7554                34.8264

                    100                    101                    102
                      A                      A                      A
 Frequencies --   3059.1265              3061.4727              3065.1419
 Red. masses --      1.0627                 1.0561                 1.0826
 Frc consts  --      5.8596                 5.8317                 5.9927
 IR Inten    --     22.9212                56.4383                74.6974

                    103                    104                    105
                      A                      A                      A
 Frequencies --   3067.5353              3085.2893              3091.9807
 Red. masses --      1.0599                 1.0904                 1.0997
 Frc consts  --      5.8761                 6.1156                 6.1942
 IR Inten    --      0.3277                25.6257                21.3054

                    106                    107                    108
                      A                      A                      A
 Frequencies --   3093.7331              3098.3009              3102.4897
 Red. masses --      1.0846                 1.0962                 1.1021
 Frc consts  --      6.1160                 6.2002                 6.2501
 IR Inten    --     30.0340                33.7066                32.4648

                    109                    110                    111
                      A                      A                      A
 Frequencies --   3105.7202              3111.0627              3116.6412
 Red. masses --      1.1070                 1.1055                 1.1085
 Frc consts  --      6.2909                 6.3039                 6.3442
 IR Inten    --     41.5981                74.9671                41.4267

                    112                    113                    114
                      A                      A                      A
 Frequencies --   3138.7515              3147.9562              3171.2282
 Red. masses --      1.0954                 1.0841                 1.0966
 Frc consts  --      6.3584                 6.3297                 6.4976
 IR Inten    --     12.9554                10.5922                43.0251

 - Thermochemistry -
 -------------------
 Temperature   298.150 Kelvin.  Pressure   1.00000 Atm.
 Atom     1 has atomic number  6 and mass  12.00000

 Molecular mass:   233.17796 amu.
 Principal axes and moments of inertia in atomic units:
                           1         2         3
     Eigenvalues --  1604.878827732.320228050.46392
           X            1.00000  -0.00264  -0.00100
           Y            0.00261   0.99967  -0.02556
           Z            0.00106   0.02555   0.99967
 This molecule is an asymmetric top.
 Rotational symmetry number  1.
 Warning -- assumption of classical behavior for rotation
           may cause significant error
 Rotational temperatures (Kelvin)      0.05397     0.01120     0.01076
 Rotational constants (GHZ):           1.12453     0.23340     0.22418
 Zero-point vibrational energy     948102.4 (Joules/Mol)
                                  226.60192 (Kcal/Mol)
 Warning -- explicit consideration of  23 degrees of freedom as
           vibrations may cause significant error
 Vibrational temperatures:     30.82    46.86    59.78    87.69   118.76
          (Kelvin)            149.31   187.45   255.86   261.44   322.08
                              357.29   412.65   431.81   479.90   543.94
                              580.27   608.09   715.56   753.57   783.31
                              802.05   812.48   889.51   912.51   965.73
                             1052.34  1069.99  1162.10  1206.38  1216.61
                             1258.50  1260.44  1298.98  1304.93  1317.65
                             1325.06  1333.31  1336.72  1373.67  1376.64
                             1438.73  1453.08  1471.68  1475.68  1499.71
                             1509.36  1520.67  1527.38  1568.18  1600.84
                             1606.14  1653.68  1671.54  1680.94  1697.92
                             1714.50  1725.83  1741.81  1748.93  1773.61
                             1812.19  1827.81  1836.48  1848.63  1878.05
                             1897.40  1903.97  1921.76  1934.06  1944.95
                             1958.83  1959.48  1968.59  1971.45  1996.21
                             2009.12  2013.97  2024.93  2068.90  2089.10
                             2167.11  2181.33  2185.44  2188.12  2191.81
                             2194.76  2209.59  2227.90  2236.62  2476.66
                             2496.79  4339.03  4351.50  4361.27  4373.85
                             4374.91  4384.40  4388.74  4396.27  4401.40
                             4404.78  4410.06  4413.50  4439.04  4448.67
                             4451.19  4457.76  4463.79  4468.44  4476.13
                             4484.15  4515.96  4529.21  4562.69

 Zero-point correction=                           0.361113 (Hartree/Particle)
 Thermal correction to Energy=                    0.376961
 Thermal correction to Enthalpy=                  0.377905
 Thermal correction to Gibbs Free Energy=         0.315803
 Sum of electronic and zero-point Energies=           -715.109031
 Sum of electronic and thermal Energies=              -715.093184
 Sum of electronic and thermal Enthalpies=            -715.092240
 Sum of electronic and thermal Free Energies=         -715.154341

                     E (Thermal)             CV                S
                      KCal/Mol        Cal/Mol-Kelvin    Cal/Mol-Kelvin
 Total                  236.546             61.881            130.704
 Electronic               0.000              0.000              0.000
 Translational            0.889              2.981             42.242
 Rotational               0.889              2.981             32.968
 Vibrational            234.769             55.919             55.494
 Vibration     1          0.593              1.985              6.498
 Vibration     2          0.594              1.983              5.666
 Vibration     3          0.594              1.981              5.184
 Vibration     4          0.597              1.973              4.426
 Vibration     5          0.600              1.961              3.830
 Vibration     6          0.605              1.946              3.382
 Vibration     7          0.612              1.923              2.942
 Vibration     8          0.628              1.870              2.351
 Vibration     9          0.630              1.865              2.311
 Vibration    10          0.649              1.805              1.928
 Vibration    11          0.662              1.766              1.742
 Vibration    12          0.684              1.698              1.493
 Vibration    13          0.693              1.673              1.416
 Vibration    14          0.715              1.609              1.243
 Vibration    15          0.748              1.517              1.047
 Vibration    16          0.769              1.463              0.951
 Vibration    17          0.785              1.421              0.883
 Vibration    18          0.853              1.256              0.665
 Vibration    19          0.879              1.197              0.601
 Vibration    20          0.900              1.152              0.556
 Vibration    21          0.913              1.123              0.529
 Vibration    22          0.921              1.108              0.515
 Vibration    23          0.978              0.993              0.419

 Optimization completed.
    -- Stationary point found.
 Normal termination of Gaussian 16 at Sun Dec 13 13:17:50 2020.

 ----------------------------------------------------------------------
 # B3LYP/6-311++G(d,p) empiricaldispersion=gd3bj scf=xqc pop=npa geom=c
 heck
 ----------------------------------------------------------------------

 ---------------------------------------
 CID_128203402_JID_7564_Energie_neutraal
 ---------------------------------------
 Structure from the checkpoint file:  "JID_7564.chk"
 Charge =  0 Multiplicity = 1

 SCF Done:  E(RB3LYP) =  -715.662440188     A.U. after   15 cycles
 Normal termination of Gaussian 16 at Sun Dec 13 13:26:43 2020.

 ----------------------------------------------------------------------
 # B3LYP/6-311++G(d,p) empiricaldispersion=gd3bj scf=xqc pop=npa geom=c
 heck
 ----------------------------------------------------------------------

 -------------------------------------
 CID_128203402_JID_7564_Energie_kation
 -------------------------------------
 Structure from the checkpoint file:  "JID_7564.chk"
 Charge =  1 Multiplicity = 2

 SCF Done:  E(UB3LYP) =  -715.355207667     A.U. after   26 cycles
 Normal termination of Gaussian 16 at Sun Dec 13 13:47:14 2020.
 Gaussian 16:  ES64L-G16RevA.03 25-Dec-2016

 ----------------------------------------------------------------------
 # B3LYP/6-311++G(d,p) empiricaldispersion=gd3bj scf=xqc pop=npa geom=c
 heck
 ----------------------------------------------------------------------

 ------------------------------------
 CID_128203402_JID_7564_Energie_anion
 ------------------------------------
 Structure from the checkpoint file:  "JID_7564.chk"
 Charge = -1 Multiplicity = 2

                         Standard orientation:
 ---------------------------------------------------------------------
 Center     Atomic      Atomic             Coordinates (Angstroms)
 Number     Number       Type             X           Y           Z
 ---------------------------------------------------------------------
      1          6           0       -4.367083   -0.034645    1.257667
      2          6           0       -4.594912    0.780520   -0.022829
      3          6           0       -3.934896   -0.073689   -1.124979
      4          6           0       -2.800549   -0.886413   -0.420239
      5          6           0       -2.927766   -0.543658    1.089500
      6          6           0       -1.425229   -0.605757   -1.027464
      7          6           0       -0.888579    0.847721   -0.887260
      8          7           0        0.177574    0.342134   -0.017753
      9          6           0       -0.189891   -1.074853   -0.208742
     10          6           0        1.282296    1.077029    0.291764
     11          8           0        1.313451    2.265904   -0.029273
     12          6           0        2.451252    0.487502    1.096739
     13          6           0        3.766798    0.957107    0.445378
     14          6           0        3.939213    0.330811   -0.944589
     15          6           0        3.618997   -1.142369   -0.942928
     16          6           0        2.993820   -1.757360    0.066629
     17          6           0        2.503766   -1.034772    1.297161
     18          1           0       -5.065246   -0.882029    1.289624
     19          1           0       -4.512559    0.546060    2.174767
     20          1           0       -5.650432    0.992657   -0.222775
     21          1           0       -4.079863    1.745968    0.064508
     22          1           0       -3.547205    0.541680   -1.944613
     23          1           0       -4.669362   -0.757555   -1.564688
     24          1           0       -3.001074   -1.958065   -0.548267
     25          1           0       -2.224388    0.252899    1.362232
     26          1           0       -2.701416   -1.401735    1.730724
     27          1           0       -1.404594   -0.960764   -2.062126
     28          1           0       -0.501225    1.302059   -1.805468
     29          1           0       -1.551204    1.569396   -0.397651
     30          1           0       -0.424612   -1.605449    0.719478
     31          1           0        0.555952   -1.643282   -0.771957
     32          1           0        2.364104    0.965691    2.081586
     33          1           0        3.769671    2.046483    0.375413
     34          1           0        4.600093    0.652844    1.091050
     35          1           0        3.294567    0.852531   -1.667518
     36          1           0        4.966570    0.483933   -1.301009
     37          1           0        3.929847   -1.720952   -1.811887
     38          1           0        2.821776   -2.831932    0.021375
     39          1           0        3.183439   -1.246529    2.136419
     40          1           0        1.533109   -1.429127    1.614387
 ---------------------------------------------------------------------

 SCF Done:  E(UB3LYP) =  -715.651711718     A.U. after   32 cycles

 The electronic state is 2-A.
 Alpha  occ. eigenvalues --  -18.98617 -14.24162 -10.17061 -10.11198 -10.10783
 Alpha  occ. eigenvalues --  -10.09120 -10.08765 -10.08130 -10.07943 -10.07863
 Alpha  occ. eigenvalues --  -10.07605 -10.07514 -10.07502 -10.07445 -10.07293
 Alpha  occ. eigenvalues --  -10.07260 -10.06872  -0.94007  -0.85586  -0.75098
 Alpha  occ. eigenvalues --   -0.74685  -0.68516  -0.65936  -0.65345  -0.61941
 Alpha  occ. eigenvalues --   -0.61258  -0.59983  -0.54382  -0.52684  -0.50643
 Alpha  occ. eigenvalues --   -0.48263  -0.45873  -0.44232  -0.43368  -0.41373
 Alpha  occ. eigenvalues --   -0.40534  -0.39383  -0.37332  -0.37010  -0.35831
 Alpha  occ. eigenvalues --   -0.34692  -0.32991  -0.32540  -0.32177  -0.31790
 Alpha  occ. eigenvalues --   -0.31532  -0.30626  -0.29936  -0.29118  -0.28550
 Alpha  occ. eigenvalues --   -0.26949  -0.26226  -0.25080  -0.24981  -0.24596
 Alpha  occ. eigenvalues --   -0.23633  -0.23301  -0.22781  -0.21955  -0.21711
 Alpha  occ. eigenvalues --   -0.21532  -0.15885  -0.15458  -0.14890   0.03952
 Alpha virt. eigenvalues --    0.05727   0.06646   0.06985   0.07643   0.07786
 Alpha virt. eigenvalues --    0.08189   0.08934   0.09406   0.09799   0.09983
 Alpha virt. eigenvalues --    0.10100   0.10399   0.10695   0.10801   0.11222

  Beta  occ. eigenvalues --  -18.98609 -14.24161 -10.17056 -10.11176 -10.10776
  Beta  occ. eigenvalues --  -10.09117 -10.08756 -10.08115 -10.07929 -10.07854
  Beta  occ. eigenvalues --  -10.07593 -10.07501 -10.07493 -10.07437 -10.07277
  Beta  occ. eigenvalues --  -10.07245 -10.06854  -0.93994  -0.85574  -0.75073
  Beta  occ. eigenvalues --   -0.74659  -0.68497  -0.65909  -0.65318  -0.61905
  Beta  occ. eigenvalues --   -0.61227  -0.59949  -0.54347  -0.52650  -0.50612
  Beta  occ. eigenvalues --   -0.48218  -0.45837  -0.44186  -0.43337  -0.41334
  Beta  occ. eigenvalues --   -0.40496  -0.39331  -0.37304  -0.36987  -0.35814
  Beta  occ. eigenvalues --   -0.34673  -0.32962  -0.32514  -0.32152  -0.31766
  Beta  occ. eigenvalues --   -0.31506  -0.30601  -0.29912  -0.29092  -0.28527
  Beta  occ. eigenvalues --   -0.26919  -0.26200  -0.25056  -0.24956  -0.24564
  Beta  occ. eigenvalues --   -0.23605  -0.23274  -0.22756  -0.21924  -0.21682
  Beta  occ. eigenvalues --   -0.21496  -0.15870  -0.15441  -0.14869
  Beta virt. eigenvalues --    0.05979   0.06400   0.07177   0.07634   0.07956
  Beta virt. eigenvalues --    0.08090   0.08592   0.09190   0.09788   0.09994
  Beta virt. eigenvalues --    0.10148   0.10261   0.10711   0.10949   0.11061

 Mulliken charges and spin densities:
               1          2
     1  C    0.349530  -0.936510
     2  C   -0.053753  -0.256752
     3  C    0.276249  -0.787142
     4  C   -0.047817   0.386509
     5  C   -0.077966  -0.249069
     6  C    1.915427  -1.587327
     7  C   -0.234604  -0.308791
     8  N    0.161437   0.024624
     9  C   -1.831353   1.103840
    10  C   -0.109858  -0.288861
    11  O   -0.303160   0.013778
    12  C    0.008342   0.585430
    13  C   -0.288824  -0.520608
    14  C   -0.348762   0.144875
    15  C    0.715276  -1.021423
    16  C   -0.533331   0.588662
    17  C    0.878172  -1.439624
    18  H   -0.030924   0.178159
    19  H   -0.076136   0.222943
    20  H   -0.063564   0.220987
    21  H    0.111405  -0.002197
    22  H    0.064597   0.079374
    23  H   -0.232347   0.392733
    24  H   -0.382308   0.601272
    25  H    0.227048  -0.030639
    26  H   -0.277366   0.445913
    27  H   -0.176806   0.416196
    28  H    0.218773  -0.042029
    29  H    0.131407   0.090643
    30  H   -0.137382   0.309418
    31  H   -0.123862   0.323762
    32  H    0.095165   0.137721
    33  H    0.216888  -0.020675
    34  H   -0.055941   0.197112
    35  H    0.082261   0.080724
    36  H   -0.073312   0.247383
    37  H   -0.231232   0.404727
    38  H   -0.514821   0.701693
    39  H   -0.337508   0.540149
    40  H    0.090959   0.053020
 Sum of Mulliken charges =  -1.00000   1.00000

 Dipole moment (field-independent basis, Debye):
    X=              0.5482    Y=              4.1423    Z=             -0.1873  Tot=              4.1826
 Quadrupole moment (field-independent basis, Debye-Ang):
   XX=           -194.2354   YY=           -158.9839   ZZ=           -141.3523
   XY=             -3.7397   XZ=             -0.4366   YZ=             -0.1752

 Summary of Natural Population Analysis:

                                       Natural Population
                Natural  -----------------------------------------------
    Atom  No    Charge         Core      Valence    Rydberg      Total
 -----------------------------------------------------------------------
      C    1   -0.19010      0.99964     2.18279    0.00767     3.19010
      C    2   -0.19187      0.99964     2.18423    0.00800     3.19187
      C    3   -0.19070      0.99963     2.18243    0.00864     3.19070
      C    4   -0.10990      0.99959     2.09804    0.01227     3.10990
      C    5   -0.19491      0.99962     2.18638    0.00891     3.19491
      C    6   -0.10825      0.99956     2.09694    0.01174     3.10825
      C    7   -0.07556      0.99964     2.06667    0.00925     3.07556
      N    8   -0.25792      0.99964     2.74870    0.00959     3.75792
      C    9   -0.07408      0.99962     2.06456    0.00990     3.07408
      C   10    0.35126      0.99960     1.62662    0.02251     2.64874
      O   11   -0.33204      0.99988     3.32711    0.00504     4.33204
      C   12   -0.14388      0.99956     2.13293    0.01139     3.14388
      C   13   -0.18646      0.99962     2.17793    0.00891     3.18646
      C   14   -0.21229      0.99961     2.20389    0.00879     3.21229
      C   15   -0.09337      0.99952     2.08375    0.01010     3.09337
      C   16   -0.09831      0.99952     2.08789    0.01090     3.09831
      C   17   -0.21257      0.99961     2.20292    0.01005     3.21257
      H   18    0.09496      0.00000     0.40371    0.00132     0.40504
      H   19    0.09751      0.00000     0.40170    0.00079     0.40249
      H   20    0.09865      0.00000     0.40050    0.00086     0.40135
      H   21    0.09164      0.00000     0.40705    0.00131     0.40836
      H   22    0.09725      0.00000     0.40183    0.00092     0.40275
      H   23    0.10032      0.00000     0.39842    0.00126     0.39968
      H   24    0.10292      0.00000     0.39469    0.00239     0.39708
      H   25    0.09602      0.00000     0.40209    0.00189     0.40398
      H   26    0.10446      0.00000     0.39430    0.00124     0.39554
      H   27    0.10210      0.00000     0.39679    0.00110     0.39790
      H   28    0.09912      0.00000     0.39980    0.00107     0.40088
      H   29    0.09572      0.00000     0.40296    0.00132     0.40428
      H   30    0.09695      0.00000     0.40126    0.00179     0.40305
      H   31    0.10450      0.00000     0.39384    0.00166     0.39550
      H   32    0.11272      0.00000     0.38624    0.00104     0.38728
      H   33    0.11070      0.00000     0.38828    0.00101     0.38930
      H   34    0.09557      0.00000     0.40337    0.00107     0.40443
      H   35    0.10532      0.00000     0.39351    0.00118     0.39468
      H   36    0.10206      0.00000     0.39699    0.00095     0.39794
      H   37    0.09749      0.00000     0.40143    0.00108     0.40251
      H   38    0.10116      0.00000     0.39732    0.00152     0.39884
      H   39    0.10684      0.00000     0.39192    0.00123     0.39316
      H   40    0.10695      0.00000     0.39144    0.00161     0.39305
 =======================================================================
   * Total *    0.00000     16.99350    46.80323    0.20327    64.00000

 Normal termination of Gaussian 16 at Sun Dec 13 14:12:02 2020.
