 Gaussian 16, Revision A.03,

 -----------------------------------------------------------
 # opt freq B3LYP/6-31G(d) empiricaldispersion=gd3bj scf=xqc
 -----------------------------------------------------------

 ------------------------------
 CID_39248212_JID_1909_neutraal
 ------------------------------
 Symbolic Z-matrix:
 Charge =  0 Multiplicity = 1

 SCF Done:  E(RB3LYP) =  -500.463551215     A.U. after   14 cycles
 SCF Done:  E(RB3LYP) =  -500.466843582     A.U. after   12 cycles
 SCF Done:  E(RB3LYP) =  -500.468235357     A.U. after   12 cycles
 SCF Done:  E(RB3LYP) =  -500.468833966     A.U. after   13 cycles
 SCF Done:  E(RB3LYP) =  -500.469495613     A.U. after   12 cycles
 SCF Done:  E(RB3LYP) =  -500.469934050     A.U. after   11 cycles
 SCF Done:  E(RB3LYP) =  -500.470432704     A.U. after   12 cycles
 SCF Done:  E(RB3LYP) =  -500.470765750     A.U. after   11 cycles
 SCF Done:  E(RB3LYP) =  -500.470852777     A.U. after   10 cycles
 SCF Done:  E(RB3LYP) =  -500.470866372     A.U. after   11 cycles
 SCF Done:  E(RB3LYP) =  -500.470874733     A.U. after   11 cycles
 SCF Done:  E(RB3LYP) =  -500.470879958     A.U. after   10 cycles
 SCF Done:  E(RB3LYP) =  -500.470882020     A.U. after    9 cycles
 SCF Done:  E(RB3LYP) =  -500.470882931     A.U. after    8 cycles
 SCF Done:  E(RB3LYP) =  -500.470883370     A.U. after    8 cycles
 SCF Done:  E(RB3LYP) =  -500.470883420     A.U. after    7 cycles
 Optimization completed.
    -- Stationary point found.
 Normal termination of Gaussian 16 at Tue Dec  8 21:52:20 2020.

 --------------------------------------------------------------------
 #N Geom=AllCheck Guess=TCheck SCRF=Check GenChk RB3LYP/6-31G(d) Freq
 --------------------------------------------------------------------

 Structure from the checkpoint file:  "JID_1909.chk"
 ------------------------------
 CID_39248212_JID_1909_neutraal
 ------------------------------
 Charge =  0 Multiplicity = 1

 SCF Done:  E(RB3LYP) =  -500.470883420     A.U. after    1 cycles

  Exact polarizability: 105.627   2.456  98.100   3.755  -0.070  94.608
 Approx polarizability: 130.076   4.022 144.628   8.049   6.097 139.473

                      1                      2                      3
                      A                      A                      A
 Frequencies --     32.2378                49.3797                55.9605
 Red. masses --      3.4716                 3.5168                 3.3274
 Frc consts  --      0.0021                 0.0051                 0.0061
 IR Inten    --      1.2169                 6.0734                10.1846

                      4                      5                      6
                      A                      A                      A
 Frequencies --     64.0435                95.6058               149.5599
 Red. masses --      2.6531                 4.3694                 1.7668
 Frc consts  --      0.0064                 0.0235                 0.0233
 IR Inten    --      1.4300                 3.2045                 1.4230

                      7                      8                      9
                      A                      A                      A
 Frequencies --    196.6994               215.3029               228.5782
 Red. masses --      2.2854                 1.3186                 2.0036
 Frc consts  --      0.0521                 0.0360                 0.0617
 IR Inten    --      6.1435               253.5298                12.9195

                     10                     11                     12
                      A                      A                      A
 Frequencies --    242.1215               253.3909               283.5288
 Red. masses --      1.7649                 1.5903                 1.5287
 Frc consts  --      0.0610                 0.0602                 0.0724
 IR Inten    --      3.8269                 0.4277                 0.2286

                     13                     14                     15
                      A                      A                      A
 Frequencies --    374.2823               394.8456               408.0732
 Red. masses --      2.0282                 2.1289                 2.0530
 Frc consts  --      0.1674                 0.1956                 0.2014
 IR Inten    --      1.2854                 5.6007                 0.6447

                     16                     17                     18
                      A                      A                      A
 Frequencies --    453.0921               486.1573               524.8027
 Red. masses --      1.8482                 2.4176                 2.1158
 Frc consts  --      0.2235                 0.3367                 0.3433
 IR Inten    --      0.4650                 3.0874                17.2186

                     19                     20                     21
                      A                      A                      A
 Frequencies --    562.9216               607.0684               698.2249
 Red. masses --      2.0592                 1.8521                 2.3520
 Frc consts  --      0.3845                 0.4022                 0.6756
 IR Inten    --      4.3460                11.1099                19.8752

                     22                     23                     24
                      A                      A                      A
 Frequencies --    737.1892               784.8071               810.0770
 Red. masses --      1.4126                 2.1044                 2.2919
 Frc consts  --      0.4523                 0.7637                 0.8861
 IR Inten    --     12.4091                 6.2711                 3.2259

                     25                     26                     27
                      A                      A                      A
 Frequencies --    829.1461               896.0972               932.0613
 Red. masses --      2.5403                 1.7055                 1.8647
 Frc consts  --      1.0289                 0.8069                 0.9545
 IR Inten    --      1.4610                 1.7468                 3.3463

                     28                     29                     30
                      A                      A                      A
 Frequencies --    970.0398               983.4995              1007.8267
 Red. masses --      2.1099                 1.7297                 1.8307
 Frc consts  --      1.1697                 0.9858                 1.0956
 IR Inten    --      7.2235                 6.5830                 1.9817

                     31                     32                     33
                      A                      A                      A
 Frequencies --   1036.4949              1063.4557              1087.1311
 Red. masses --      2.2088                 1.7359                 1.8984
 Frc consts  --      1.3981                 1.1567                 1.3219
 IR Inten    --     10.1678                28.9534                20.9238

                     34                     35                     36
                      A                      A                      A
 Frequencies --   1109.8237              1127.2557              1132.2947
 Red. masses --      2.1437                 1.5849                 2.0162
 Frc consts  --      1.5557                 1.1866                 1.5230
 IR Inten    --     12.9769                 1.1317                 5.7513

                     37                     38                     39
                      A                      A                      A
 Frequencies --   1168.9584              1187.9128              1237.2743
 Red. masses --      1.4881                 1.7882                 1.4293
 Frc consts  --      1.1981                 1.4867                 1.2891
 IR Inten    --      8.2540                 8.8802                27.8989

                     40                     41                     42
                      A                      A                      A
 Frequencies --   1241.1458              1287.6668              1312.5140
 Red. masses --      1.4022                 1.3206                 1.8665
 Frc consts  --      1.2726                 1.2901                 1.8945
 IR Inten    --     15.9324                 5.2773                46.9785

                     43                     44                     45
                      A                      A                      A
 Frequencies --   1322.6295              1351.5777              1374.6032
 Red. masses --      1.4902                 1.2423                 1.8031
 Frc consts  --      1.5359                 1.3371                 2.0074
 IR Inten    --      4.0421                 7.7519                64.8900

                     46                     47                     48
                      A                      A                      A
 Frequencies --   1393.1003              1406.1271              1413.1696
 Red. masses --      1.3442                 1.2883                 1.4996
 Frc consts  --      1.5370                 1.5008                 1.7645
 IR Inten    --     15.9365                24.2100                11.0052

                     49                     50                     51
                      A                      A                      A
 Frequencies --   1420.1903              1440.1570              1443.6636
 Red. masses --      1.6151                 1.2586                 1.3576
 Frc consts  --      1.9194                 1.5380                 1.6671
 IR Inten    --     32.9362                 6.1761                 8.2770

                     52                     53                     54
                      A                      A                      A
 Frequencies --   1482.9772              1494.6502              1509.2854
 Red. masses --      1.1649                 1.1249                 1.0662
 Frc consts  --      1.5094                 1.4806                 1.4309
 IR Inten    --      1.9368                11.0899                 6.8273

                     55                     56                     57
                      A                      A                      A
 Frequencies --   1510.8729              1513.5925              1524.3892
 Red. masses --      1.1041                 1.0711                 1.0537
 Frc consts  --      1.4850                 1.4457                 1.4427
 IR Inten    --     10.7502                 1.0199                 3.3651

                     58                     59                     60
                      A                      A                      A
 Frequencies --   1532.7859              1534.3249              1544.9800
 Red. masses --      1.0731                 1.0841                 1.0543
 Frc consts  --      1.4854                 1.5036                 1.4828
 IR Inten    --     12.8149                 3.9173                 3.4387

                     61                     62                     63
                      A                      A                      A
 Frequencies --   1546.8930              1645.2348              1799.7657
 Red. masses --      1.0711                 1.2414                 8.6530
 Frc consts  --      1.5101                 1.9797                16.5139
 IR Inten    --      6.6933                98.0045               234.8527

                     64                     65                     66
                      A                      A                      A
 Frequencies --   2922.7834              2929.3509              3031.7378
 Red. masses --      1.0693                 1.0681                 1.0620
 Frc consts  --      5.3820                 5.4004                 5.7513
 IR Inten    --     27.9345               145.1119                31.2043

                     67                     68                     69
                      A                      A                      A
 Frequencies --   3042.6245              3044.9514              3049.5573
 Red. masses --      1.0556                 1.0472                 1.0625
 Frc consts  --      5.7577                 5.7205                 5.8215
 IR Inten    --     45.6267                21.8320                15.8605

                     70                     71                     72
                      A                      A                      A
 Frequencies --   3058.9665              3062.4921              3081.0979
 Red. masses --      1.0618                 1.0997                 1.0690
 Frc consts  --      5.8538                 6.0769                 5.9792
 IR Inten    --     33.4398                20.4918                44.4555

                     73                     74                     75
                      A                      A                      A
 Frequencies --   3084.8428              3092.6245              3108.2838
 Red. masses --      1.0970                 1.1024                 1.1006
 Frc consts  --      6.1508                 6.2121                 6.2653
 IR Inten    --     21.5092                18.1926                51.2216

                     76                     77                     78
                      A                      A                      A
 Frequencies --   3112.0420              3116.2662              3124.5903
 Red. masses --      1.0977                 1.0941                 1.0995
 Frc consts  --      6.2637                 6.2602                 6.3245
 IR Inten    --      2.6345                57.7305                13.7212

                     79                     80                     81
                      A                      A                      A
 Frequencies --   3125.7312              3590.0721              3718.1889
 Red. masses --      1.1016                 1.0454                 1.1043
 Frc consts  --      6.3413                 7.9383                 8.9952
 IR Inten    --     55.4533                30.0541                25.7637

 - Thermochemistry -
 -------------------
 Temperature   298.150 Kelvin.  Pressure   1.00000 Atm.
 Atom     1 has atomic number  6 and mass  12.00000

 Molecular mass:   158.14191 amu.
 Principal axes and moments of inertia in atomic units:
                           1         2         3
     Eigenvalues --  1127.320583029.190913349.70892
           X            0.99961   0.02742   0.00571
           Y           -0.02744   0.99962   0.00230
           Z           -0.00565  -0.00246   0.99998
 This molecule is an asymmetric top.
 Rotational symmetry number  1.
 Warning -- assumption of classical behavior for rotation
           may cause significant error
 Rotational temperatures (Kelvin)      0.07683     0.02859     0.02586
 Rotational constants (GHZ):           1.60091     0.59578     0.53878
 Zero-point vibrational energy     692755.8 (Joules/Mol)
                                  165.57260 (Kcal/Mol)
 Warning -- explicit consideration of  20 degrees of freedom as
           vibrations may cause significant error
 Vibrational temperatures:     46.38    71.05    80.51    92.14   137.56
          (Kelvin)            215.18   283.01   309.77   328.87   348.36
                              364.57   407.93   538.51   568.09   587.13
                              651.90   699.47   755.07   809.92   873.44
                             1004.59  1060.65  1129.16  1165.52  1192.96
                             1289.28  1341.03  1395.67  1415.04  1450.04
                             1491.28  1530.08  1564.14  1596.79  1621.87
                             1629.12  1681.87  1709.14  1780.16  1785.73
                             1852.67  1888.41  1902.97  1944.62  1977.75
                             2004.36  2023.10  2033.24  2043.34  2072.06
                             2077.11  2133.67  2150.47  2171.53  2173.81
                             2177.72  2193.26  2205.34  2207.55  2222.88
                             2225.63  2367.13  2589.46  4205.23  4214.68
                             4361.99  4377.66  4381.01  4387.63  4401.17
                             4406.24  4433.01  4438.40  4449.60  4472.13
                             4477.53  4483.61  4495.59  4497.23  5165.31
                             5349.64

 Zero-point correction=                           0.263857 (Hartree/Particle)
 Thermal correction to Energy=                    0.277466
 Thermal correction to Enthalpy=                  0.278411
 Thermal correction to Gibbs Free Energy=         0.222692
 Sum of electronic and zero-point Energies=           -500.207027
 Sum of electronic and thermal Energies=              -500.193417
 Sum of electronic and thermal Enthalpies=            -500.192473
 Sum of electronic and thermal Free Energies=         -500.248191

                     E (Thermal)             CV                S
                      KCal/Mol        Cal/Mol-Kelvin    Cal/Mol-Kelvin
 Total                  174.113             49.052            117.269
 Electronic               0.000              0.000              0.000
 Translational            0.889              2.981             41.084
 Rotational               0.889              2.981             30.815
 Vibrational            172.335             43.090             45.370
 Vibration     1          0.594              1.983              5.687
 Vibration     2          0.595              1.978              4.842
 Vibration     3          0.596              1.975              4.595
 Vibration     4          0.597              1.971              4.329
 Vibration     5          0.603              1.952              3.542
 Vibration     6          0.618              1.903              2.678
 Vibration     7          0.636              1.844              2.164
 Vibration     8          0.645              1.818              1.998
 Vibration     9          0.651              1.797              1.890
 Vibration    10          0.658              1.776              1.787
 Vibration    11          0.665              1.757              1.707
 Vibration    12          0.682              1.704              1.512
 Vibration    13          0.745              1.525              1.062
 Vibration    14          0.762              1.481              0.982
 Vibration    15          0.773              1.453              0.933
 Vibration    16          0.812              1.354              0.786
 Vibration    17          0.842              1.281              0.694
 Vibration    18          0.880              1.195              0.599
 Vibration    19          0.919              1.111              0.518
 Vibration    20          0.966              1.017              0.438

 Optimization completed.
    -- Stationary point found.
 Normal termination of Gaussian 16 at Tue Dec  8 21:58:26 2020.

 ----------------------------------------------------------------------
 # B3LYP/6-311++G(d,p) empiricaldispersion=gd3bj scf=xqc pop=npa geom=c
 heck
 ----------------------------------------------------------------------

 --------------------------------------
 CID_39248212_JID_1909_Energie_neutraal
 --------------------------------------
 Structure from the checkpoint file:  "JID_1909.chk"
 Charge =  0 Multiplicity = 1

 SCF Done:  E(RB3LYP) =  -500.624526451     A.U. after   13 cycles
 Normal termination of Gaussian 16 at Tue Dec  8 22:00:36 2020.

 ----------------------------------------------------------------------
 # B3LYP/6-311++G(d,p) empiricaldispersion=gd3bj scf=xqc pop=npa geom=c
 heck
 ----------------------------------------------------------------------

 ------------------------------------
 CID_39248212_JID_1909_Energie_kation
 ------------------------------------
 Structure from the checkpoint file:  "JID_1909.chk"
 Charge =  1 Multiplicity = 2

 SCF Done:  E(UB3LYP) =  -500.335245550     A.U. after   21 cycles
 Normal termination of Gaussian 16 at Tue Dec  8 22:04:59 2020.
 Gaussian 16:  ES64L-G16RevA.03 25-Dec-2016

 ----------------------------------------------------------------------
 # B3LYP/6-311++G(d,p) empiricaldispersion=gd3bj scf=xqc pop=npa geom=c
 heck
 ----------------------------------------------------------------------

 -----------------------------------
 CID_39248212_JID_1909_Energie_anion
 -----------------------------------
 Structure from the checkpoint file:  "JID_1909.chk"
 Charge = -1 Multiplicity = 2

                         Standard orientation:
 ---------------------------------------------------------------------
 Center     Atomic      Atomic             Coordinates (Angstroms)
 Number     Number       Type             X           Y           Z
 ---------------------------------------------------------------------
      1          6           0       -3.123279   -1.365564   -0.782338
      2          6           0       -3.170527   -0.180716    0.185814
      3          6           0       -2.040719   -0.187440    1.223726
      4          6           0       -0.632550   -0.163366    0.614113
      5          7           0       -0.445584    0.919876   -0.349108
      6          6           0       -0.440199    2.236369    0.262256
      7          6           0        0.645441    0.707665   -1.290557
      8          6           0        2.080808    0.687764   -0.716084
      9          6           0        2.412705   -0.629293   -0.023723
     10          8           0        2.119133   -1.713486   -0.508989
     11          7           0        3.104260   -0.521733    1.152247
     12          1           0       -2.226443   -1.329579   -1.409413
     13          1           0       -3.992471   -1.364036   -1.449661
     14          1           0       -3.117783   -2.321318   -0.243012
     15          1           0       -3.120948    0.751830   -0.388034
     16          1           0       -4.132572   -0.177916    0.715329
     17          1           0       -2.170846    0.661356    1.907850
     18          1           0       -2.113915   -1.089469    1.847100
     19          1           0        0.109213   -0.116255    1.435773
     20          1           0       -0.445023   -1.103549    0.088837
     21          1           0        0.352909    2.376020    1.023842
     22          1           0       -0.304223    2.999758   -0.511339
     23          1           0       -1.399364    2.427356    0.752807
     24          1           0        0.482322   -0.247372   -1.799882
     25          1           0        0.586868    1.500445   -2.045706
     26          1           0        2.784463    0.781392   -1.553196
     27          1           0        2.255885    1.547570   -0.059192
     28          1           0        3.214702    0.361523    1.625894
     29          1           0        3.283356   -1.369389    1.672694
 ---------------------------------------------------------------------

 SCF Done:  E(UB3LYP) =  -500.614144090     A.U. after   31 cycles

 The electronic state is 2-A.
 Alpha  occ. eigenvalues --  -18.97980 -14.21875 -14.19558 -10.16571 -10.08954
 Alpha  occ. eigenvalues --  -10.07976 -10.07692 -10.06790 -10.06475 -10.06308
 Alpha  occ. eigenvalues --  -10.06150  -0.92991  -0.81776  -0.79231  -0.69365
 Alpha  occ. eigenvalues --   -0.65802  -0.61798  -0.58210  -0.55029  -0.50157
 Alpha  occ. eigenvalues --   -0.46906  -0.44586  -0.42226  -0.39014  -0.37865
 Alpha  occ. eigenvalues --   -0.37008  -0.35085  -0.34597  -0.33196  -0.31288
 Alpha  occ. eigenvalues --   -0.30695  -0.29415  -0.28484  -0.27891  -0.26736
 Alpha  occ. eigenvalues --   -0.26315  -0.25168  -0.24831  -0.23029  -0.22591
 Alpha  occ. eigenvalues --   -0.22009  -0.16566  -0.15186  -0.10657   0.04524
 Alpha virt. eigenvalues --    0.06681   0.07488   0.08078   0.09162   0.09409
 Alpha virt. eigenvalues --    0.09765   0.10627   0.11353   0.11958   0.12095
 Alpha virt. eigenvalues --    0.12484   0.13302   0.13484   0.14107   0.14618

  Beta  occ. eigenvalues --  -18.97974 -14.21787 -14.19555 -10.16570 -10.08947
  Beta  occ. eigenvalues --  -10.07963 -10.07651 -10.06751 -10.06467 -10.06301
  Beta  occ. eigenvalues --  -10.06137  -0.92972  -0.81759  -0.79111  -0.69344
  Beta  occ. eigenvalues --   -0.65757  -0.61769  -0.58147  -0.54990  -0.50101
  Beta  occ. eigenvalues --   -0.46791  -0.44518  -0.42137  -0.38982  -0.37824
  Beta  occ. eigenvalues --   -0.36979  -0.35048  -0.34580  -0.33163  -0.31251
  Beta  occ. eigenvalues --   -0.30669  -0.29395  -0.28457  -0.27848  -0.26696
  Beta  occ. eigenvalues --   -0.26286  -0.25147  -0.24803  -0.23007  -0.22573
  Beta  occ. eigenvalues --   -0.21983  -0.16505  -0.15157  -0.10628
  Beta virt. eigenvalues --    0.06657   0.07707   0.08235   0.08479   0.09525
  Beta virt. eigenvalues --    0.09639   0.10697   0.10996   0.11694   0.12243
  Beta virt. eigenvalues --    0.12378   0.12693   0.13538   0.14006   0.14459

 Mulliken charges and spin densities:
               1          2
     1  C   -0.102551  -0.431214
     2  C   -0.410421   0.251863
     3  C    0.087255  -0.537769
     4  C   -0.305834  -0.007161
     5  N   -0.047872   0.225241
     6  C    0.845629  -1.225177
     7  C   -0.714804   0.438913
     8  C    1.070431  -1.392936
     9  C    0.315231  -0.393226
    10  O   -0.338697   0.018857
    11  N   -0.308241   0.085920
    12  H    0.086266   0.073891
    13  H    0.008903   0.118962
    14  H    0.112294   0.002982
    15  H    0.112769   0.004797
    16  H   -0.153863   0.296712
    17  H   -0.102134   0.253885
    18  H   -0.054937   0.192671
    19  H    0.228285  -0.076072
    20  H    0.116790   0.036588
    21  H   -0.452494   0.606434
    22  H   -0.193375   0.332025
    23  H   -0.089976   0.213656
    24  H    0.254921  -0.096369
    25  H    0.038192   0.103631
    26  H   -0.114229   0.303179
    27  H   -0.128455   0.283472
    28  H   -0.453987   0.725004
    29  H   -0.305093   0.591240
 Sum of Mulliken charges =  -1.00000   1.00000

 Dipole moment (field-independent basis, Debye):
    X=             -5.4552    Y=             -1.8803    Z=             -4.2392  Tot=              7.1600
 Quadrupole moment (field-independent basis, Debye-Ang):
   XX=           -132.2023   YY=           -111.5108   ZZ=           -106.1793
   XY=             -0.1799   XZ=             -9.7767   YZ=             -6.3321

 Summary of Natural Population Analysis:

                                       Natural Population
                Natural  -----------------------------------------------
    Atom  No    Charge         Core      Valence    Rydberg      Total
 -----------------------------------------------------------------------
      C    1   -0.28701      0.99967     2.28279    0.00456     3.28701
      C    2   -0.19289      0.99964     2.18483    0.00841     3.19289
      C    3   -0.19234      0.99963     2.18390    0.00882     3.19234
      C    4   -0.09115      0.99961     2.07942    0.01213     3.09115
      N    5   -0.28516      0.99972     2.77224    0.01320     3.78516
      C    6   -0.17988      0.99964     2.17105    0.00918     3.17988
      C    7   -0.07745      0.99961     2.06600    0.01185     3.07745
      C    8   -0.24672      0.99958     2.23744    0.00970     3.24672
      C    9    0.33828      0.99970     1.63830    0.02372     2.66172
      O   10   -0.33214      0.99987     3.32612    0.00615     4.33214
      N   11   -0.39804      0.99970     2.88973    0.00861     3.89804
      H   12    0.10029      0.00000     0.39871    0.00101     0.39971
      H   13    0.09452      0.00000     0.40464    0.00084     0.40548
      H   14    0.09276      0.00000     0.40629    0.00095     0.40724
      H   15    0.09972      0.00000     0.39897    0.00131     0.40028
      H   16    0.09111      0.00000     0.40790    0.00099     0.40889
      H   17    0.09703      0.00000     0.40183    0.00114     0.40297
      H   18    0.09535      0.00000     0.40375    0.00090     0.40465
      H   19    0.08747      0.00000     0.41015    0.00238     0.41253
      H   20    0.10153      0.00000     0.39702    0.00145     0.39847
      H   21    0.08594      0.00000     0.41161    0.00245     0.41406
      H   22    0.09397      0.00000     0.40489    0.00114     0.40603
      H   23    0.09399      0.00000     0.40478    0.00123     0.40601
      H   24    0.10156      0.00000     0.39711    0.00134     0.39844
      H   25    0.09218      0.00000     0.40683    0.00099     0.40782
      H   26    0.11135      0.00000     0.38759    0.00105     0.38865
      H   27    0.10692      0.00000     0.39076    0.00231     0.39308
      H   28    0.20332      0.00000     0.27837    0.01830     0.29668
      H   29    0.19549      0.00000     0.30128    0.00323     0.30451
 =======================================================================
   * Total *    0.00000     10.99636    32.84432    0.15932    44.00000

 Normal termination of Gaussian 16 at Tue Dec  8 22:11:33 2020.
