 Gaussian 16, Revision A.03,

 -----------------------------------------------------------
 # opt freq B3LYP/6-31G(d) empiricaldispersion=gd3bj scf=xqc
 -----------------------------------------------------------

 -------------------------------
 CID_149641674_JID_3690_neutraal
 -------------------------------
 Symbolic Z-matrix:
 Charge =  0 Multiplicity = 1

 SCF Done:  E(RB3LYP) =  -576.421763152     A.U. after   12 cycles
 SCF Done:  E(RB3LYP) =  -576.436612457     A.U. after   11 cycles
 SCF Done:  E(RB3LYP) =  -576.438212948     A.U. after   10 cycles
 SCF Done:  E(RB3LYP) =  -576.438462142     A.U. after   10 cycles
 SCF Done:  E(RB3LYP) =  -576.438553934     A.U. after   10 cycles
 SCF Done:  E(RB3LYP) =  -576.439042921     A.U. after   10 cycles
 SCF Done:  E(RB3LYP) =  -576.439247309     A.U. after   10 cycles
 SCF Done:  E(RB3LYP) =  -576.439327302     A.U. after   11 cycles
 SCF Done:  E(RB3LYP) =  -576.439403510     A.U. after   10 cycles
 SCF Done:  E(RB3LYP) =  -576.439495781     A.U. after   10 cycles
 SCF Done:  E(RB3LYP) =  -576.439526823     A.U. after    8 cycles
 SCF Done:  E(RB3LYP) =  -576.439531350     A.U. after    9 cycles
 SCF Done:  E(RB3LYP) =  -576.439532250     A.U. after    8 cycles
 SCF Done:  E(RB3LYP) =  -576.439534146     A.U. after    8 cycles
 SCF Done:  E(RB3LYP) =  -576.439534290     A.U. after    7 cycles
 SCF Done:  E(RB3LYP) =  -576.439534410     A.U. after    6 cycles
 Optimization completed.
    -- Stationary point found.

 1\1\GINC-NODE357\FOpt\RB3LYP\6-31G(d)\C9H24N4\VSC10255\13-Dec-2020\0\\
 # opt freq B3LYP/6-31G(d) empiricaldispersion=gd3bj scf=xqc\\CID_14964
 1674_JID_3690_neutraal\\0,1\C,1.1140751673,0.0176316801,-0.0677054468\
 C,0.8993540573,1.4785548905,0.3333696937\C,1.3382791518,2.5086567906,-
 0.720431944\C,0.7091951407,2.2655698353,-2.1177197544\C,-0.8287844248,
 2.2666993394,-2.1892334437\C,-1.5289638481,3.6401004029,-2.2613134211\
 C,-1.1840999642,4.4248930131,-3.549058492\N,-1.7980356182,3.7386170501
 ,-4.704049551\N,-1.662473634,5.7956355141,-3.4362877403\N,-2.975642638

 Normal termination of Gaussian 16 at Sun Dec 13 12:27:07 2020.

 --------------------------------------------------------------------
 #N Geom=AllCheck Guess=TCheck SCRF=Check GenChk RB3LYP/6-31G(d) Freq
 --------------------------------------------------------------------

 Structure from the checkpoint file:  "JID_3690.chk"
 -------------------------------
 CID_149641674_JID_3690_neutraal
 -------------------------------
 Charge =  0 Multiplicity = 1

 SCF Done:  E(RB3LYP) =  -576.439534410     A.U. after    1 cycles

  Exact polarizability: 136.352  -4.134 118.899  -3.026  -0.167 115.973
 Approx polarizability: 167.577  -1.399 166.430  -2.970  -0.134 168.742

                      1                      2                      3
                      A                      A                      A
 Frequencies --     20.6621                40.4945                61.6947
 Red. masses --      3.5473                 3.3118                 3.3787
 Frc consts  --      0.0009                 0.0032                 0.0076
 IR Inten    --      0.3401                 0.8185                 0.0130

                      4                      5                      6
                      A                      A                      A
 Frequencies --     93.0572               103.5565               111.2731
 Red. masses --      2.6794                 2.5393                 2.3498
 Frc consts  --      0.0137                 0.0160                 0.0171
 IR Inten    --      1.1574                 0.8898                 0.6520

                      7                      8                      9
                      A                      A                      A
 Frequencies --    145.5657               169.9355               178.2313
 Red. masses --      2.1835                 1.4657                 1.5229
 Frc consts  --      0.0273                 0.0249                 0.0285
 IR Inten    --      2.4796                 0.2480                 3.0865

                     10                     11                     12
                      A                      A                      A
 Frequencies --    200.1402               212.8177               244.1363
 Red. masses --      1.5867                 2.1282                 1.7016
 Frc consts  --      0.0374                 0.0568                 0.0598
 IR Inten    --      1.4512                 1.6040                 2.5175

                     13                     14                     15
                      A                      A                      A
 Frequencies --    261.1590               274.0044               288.3105
 Red. masses --      1.5337                 1.6495                 1.5386
 Frc consts  --      0.0616                 0.0730                 0.0754
 IR Inten    --     10.4844                 3.8055                20.4583

                     16                     17                     18
                      A                      A                      A
 Frequencies --    326.0792               336.1610               344.8178
 Red. masses --      2.0826                 1.9040                 1.9452
 Frc consts  --      0.1305                 0.1268                 0.1363
 IR Inten    --      6.8281                30.0954                20.8078

                     19                     20                     21
                      A                      A                      A
 Frequencies --    373.6340               409.1992               423.8366
 Red. masses --      1.9593                 2.8276                 3.4046
 Frc consts  --      0.1612                 0.2790                 0.3603
 IR Inten    --     14.7514                 2.2141                 0.4930

                     22                     23                     24
                      A                      A                      A
 Frequencies --    459.9778               467.9512               521.5776
 Red. masses --      2.4842                 2.2265                 2.6101
 Frc consts  --      0.3097                 0.2873                 0.4184
 IR Inten    --     24.5769                 4.5203                 0.8749

                     25                     26                     27
                      A                      A                      A
 Frequencies --    587.7304               646.9162               716.0346
 Red. masses --      1.9647                 2.6031                 1.8956
 Frc consts  --      0.3999                 0.6419                 0.5726
 IR Inten    --      7.6119                44.7131                60.6242

                     28                     29                     30
                      A                      A                      A
 Frequencies --    746.3766               769.4223               821.7473
 Red. masses --      1.9501                 1.2866                 1.5770
 Frc consts  --      0.6401                 0.4488                 0.6274
 IR Inten    --     68.2360                40.5994                28.2126

                     31                     32                     33
                      A                      A                      A
 Frequencies --    855.1941               864.9057               893.7784
 Red. masses --      1.5504                 1.9660                 1.7452
 Frc consts  --      0.6681                 0.8665                 0.8214
 IR Inten    --     22.1043                17.4722                60.5724

                     34                     35                     36
                      A                      A                      A
 Frequencies --    914.9630               929.1473               974.7022
 Red. masses --      1.4991                 1.7214                 2.0723
 Frc consts  --      0.7394                 0.8756                 1.1600
 IR Inten    --    153.5127                25.1174                11.6075

                     37                     38                     39
                      A                      A                      A
 Frequencies --    990.2477              1014.6528              1045.1283
 Red. masses --      1.6968                 1.7637                 1.7620
 Frc consts  --      0.9803                 1.0698                 1.1340
 IR Inten    --      7.6635                 6.2934                13.6915

                     40                     41                     42
                      A                      A                      A
 Frequencies --   1051.5435              1063.0346              1072.7203
 Red. masses --      1.6619                 2.2608                 2.1789
 Frc consts  --      1.0827                 1.5053                 1.4773
 IR Inten    --     15.8706                 4.1987                21.9512

                     43                     44                     45
                      A                      A                      A
 Frequencies --   1090.6332              1131.6226              1141.2095
 Red. masses --      1.7511                 2.3573                 1.7992
 Frc consts  --      1.2272                 1.7786                 1.3806
 IR Inten    --      1.1402                15.0845                 9.0677

                     46                     47                     48
                      A                      A                      A
 Frequencies --   1142.6471              1160.1985              1167.1426
 Red. masses --      1.8788                 1.7743                 1.7040
 Frc consts  --      1.4453                 1.4071                 1.3676
 IR Inten    --     15.6185                 4.5395                24.2103

                     49                     50                     51
                      A                      A                      A
 Frequencies --   1177.7432              1179.7055              1210.7861
 Red. masses --      1.7058                 1.5461                 1.5631
 Frc consts  --      1.3940                 1.2677                 1.3502
 IR Inten    --     28.5092                 5.6200                30.9337

                     52                     53                     54
                      A                      A                      A
 Frequencies --   1235.6625              1247.3551              1280.8182
 Red. masses --      1.6806                 1.6779                 1.4606
 Frc consts  --      1.5118                 1.5381                 1.4118
 IR Inten    --      0.6092                20.9252                13.7697

                     55                     56                     57
                      A                      A                      A
 Frequencies --   1297.3534              1304.0947              1342.7536
 Red. masses --      1.3148                 1.4427                 1.2992
 Frc consts  --      1.3039                 1.4456                 1.3801
 IR Inten    --      0.2562                 2.9351                 2.5356

                     58                     59                     60
                      A                      A                      A
 Frequencies --   1349.8217              1359.9536              1373.4537
 Red. masses --      1.3570                 1.2331                 1.3379
 Frc consts  --      1.4568                 1.3437                 1.4870
 IR Inten    --      1.7982                 1.1095                 1.4690

                     61                     62                     63
                      A                      A                      A
 Frequencies --   1382.5877              1408.3130              1411.0509
 Red. masses --      1.3102                 1.3098                 1.4259
 Frc consts  --      1.4756                 1.5306                 1.6727
 IR Inten    --     23.0754                 7.7849                 3.2312

                     64                     65                     66
                      A                      A                      A
 Frequencies --   1421.4312              1441.5107              1462.6908
 Red. masses --      1.4679                 1.2513                 1.4127
 Frc consts  --      1.7474                 1.5320                 1.7808
 IR Inten    --      3.3459                 2.4296                 8.9786

                     67                     68                     69
                      A                      A                      A
 Frequencies --   1482.5027              1487.4352              1507.8064
 Red. masses --      1.1571                 1.1745                 1.1601
 Frc consts  --      1.4984                 1.5310                 1.5539
 IR Inten    --      3.1078                 2.3267                12.8546

                     70                     71                     72
                      A                      A                      A
 Frequencies --   1513.3126              1517.0538              1518.8197
 Red. masses --      1.2214                 1.1191                 1.0886
 Frc consts  --      1.6480                 1.5174                 1.4796
 IR Inten    --     20.0133                 3.4413                 6.7616

                     73                     74                     75
                      A                      A                      A
 Frequencies --   1523.0960              1527.3331              1529.9181
 Red. masses --      1.0949                 1.0761                 1.0485
 Frc consts  --      1.4964                 1.4790                 1.4459
 IR Inten    --      0.3424                 7.9853                 4.9003

                     76                     77                     78
                      A                      A                      A
 Frequencies --   1537.8261              1544.3222              1551.1265
 Red. masses --      1.0715                 1.0718                 1.0500
 Frc consts  --      1.4930                 1.5060                 1.4885
 IR Inten    --      7.1424                 8.5728                 5.2512

                     79                     80                     81
                      A                      A                      A
 Frequencies --   1554.4920              1683.5704              1697.9127
 Red. masses --      1.0509                 1.0933                 1.0939
 Frc consts  --      1.4962                 1.8257                 1.8581
 IR Inten    --     11.1673                51.4801                21.2763

                     82                     83                     84
                      A                      A                      A
 Frequencies --   2980.0595              2987.2332              3000.1350
 Red. masses --      1.0551                 1.0553                 1.0819
 Frc consts  --      5.5207                 5.5481                 5.7377
 IR Inten    --     83.3805                79.0621                25.4627

                     85                     86                     87
                      A                      A                      A
 Frequencies --   3008.2909              3029.8565              3035.1772
 Red. masses --      1.0822                 1.0708                 1.0688
 Frc consts  --      5.7701                 5.7919                 5.8011
 IR Inten    --     66.1707                25.1119                33.8673

                     88                     89                     90
                      A                      A                      A
 Frequencies --   3045.4808              3054.9446              3063.0016
 Red. masses --      1.0384                 1.0612                 1.0797
 Frc consts  --      5.6744                 5.8351                 5.9680
 IR Inten    --     19.6623                56.4379                46.1727

                     91                     92                     93
                      A                      A                      A
 Frequencies --   3069.3189              3075.7356              3085.1225
 Red. masses --      1.0795                 1.0992                 1.0947
 Frc consts  --      5.9918                 6.1269                 6.1391
 IR Inten    --     60.3513                31.4673                17.8425

                     94                     95                     96
                      A                      A                      A
 Frequencies --   3093.6214              3101.7778              3108.6471
 Red. masses --      1.0851                 1.0908                 1.0996
 Frc consts  --      6.1186                 6.1833                 6.2609
 IR Inten    --     23.7861                31.9924                64.2829

                     97                     98                     99
                      A                      A                      A
 Frequencies --   3109.7592              3112.9169              3120.2513
 Red. masses --      1.1012                 1.1024                 1.1014
 Frc consts  --      6.2743                 6.2940                 6.3178
 IR Inten    --     38.7060                29.9028                52.0065

                    100                    101                    102
                      A                      A                      A
 Frequencies --   3458.7807              3462.9878              3500.6521
 Red. masses --      1.0497                 1.0492                 1.0740
 Frc consts  --      7.3991                 7.4136                 7.7543
 IR Inten    --      3.1688                 2.5413                11.3647

                    103                    104                    105
                      A                      A                      A
 Frequencies --   3509.9664              3544.2609              3546.5732
 Red. masses --      1.0733                 1.0919                 1.0918
 Frc consts  --      7.7905                 8.0814                 8.0914
 IR Inten    --      1.2291                 1.0599                 0.3663

 - Thermochemistry -
 -------------------
 Temperature   298.150 Kelvin.  Pressure   1.00000 Atm.
 Atom     1 has atomic number  6 and mass  12.00000

 Molecular mass:   188.20010 amu.
 Principal axes and moments of inertia in atomic units:
                           1         2         3
     Eigenvalues --  1798.142744150.309674468.38913
           X            0.99987  -0.01262  -0.00989
           Y            0.01239   0.99967  -0.02229
           Z            0.01017   0.02217   0.99970
 This molecule is an asymmetric top.
 Rotational symmetry number  1.
 Warning -- assumption of classical behavior for rotation
           may cause significant error
 Rotational temperatures (Kelvin)      0.04817     0.02087     0.01938
 Rotational constants (GHZ):           1.00367     0.43484     0.40389
 Zero-point vibrational energy     909330.2 (Joules/Mol)
                                  217.33513 (Kcal/Mol)
 Warning -- explicit consideration of  25 degrees of freedom as
           vibrations may cause significant error
 Vibrational temperatures:     29.73    58.26    88.76   133.89   148.99
          (Kelvin)            160.10   209.44   244.50   256.44   287.96
                              306.20   351.26   375.75   394.23   414.81
                              469.16   483.66   496.12   537.58   588.75
                              609.81   661.81   673.28   750.43   845.61
                              930.77  1030.21  1073.87  1107.03  1182.31
                             1230.43  1244.41  1285.95  1316.43  1336.84
                             1402.38  1424.75  1459.86  1503.71  1512.94
                             1529.47  1543.41  1569.18  1628.15  1641.95
                             1644.01  1669.27  1679.26  1694.51  1697.33
                             1742.05  1777.84  1794.67  1842.81  1866.60
                             1876.30  1931.92  1942.09  1956.67  1976.09
                             1989.24  2026.25  2030.19  2045.12  2074.01
                             2104.49  2132.99  2140.09  2169.40  2177.32
                             2182.70  2185.24  2191.40  2197.49  2201.21
                             2212.59  2221.94  2231.73  2236.57  2422.28
                             2442.92  4287.64  4297.96  4316.53  4328.26
                             4359.29  4366.94  4381.77  4395.38  4406.98
                             4416.07  4425.30  4438.80  4451.03  4462.77
                             4472.65  4474.25  4478.79  4489.35  4976.41
                             4982.47  5036.66  5050.06  5099.40  5102.73

 Zero-point correction=                           0.346346 (Hartree/Particle)
 Thermal correction to Energy=                    0.363071
 Thermal correction to Enthalpy=                  0.364015
 Thermal correction to Gibbs Free Energy=         0.301861
 Sum of electronic and zero-point Energies=           -576.093189
 Sum of electronic and thermal Energies=              -576.076463
 Sum of electronic and thermal Enthalpies=            -576.075519
 Sum of electronic and thermal Free Energies=         -576.137673

                     E (Thermal)             CV                S
                      KCal/Mol        Cal/Mol-Kelvin    Cal/Mol-Kelvin
 Total                  227.831             61.909            130.814
 Electronic               0.000              0.000              0.000
 Translational            0.889              2.981             41.603
 Rotational               0.889              2.981             31.878
 Vibrational            226.053             55.948             57.333
 Vibration     1          0.593              1.986              6.570
 Vibration     2          0.594              1.981              5.235
 Vibration     3          0.597              1.973              4.402
 Vibration     4          0.602              1.954              3.595
 Vibration     5          0.605              1.946              3.386
 Vibration     6          0.607              1.940              3.247
 Vibration     7          0.617              1.907              2.729
 Vibration     8          0.625              1.879              2.436
 Vibration     9          0.629              1.869              2.347
 Vibration    10          0.638              1.840              2.132
 Vibration    11          0.644              1.821              2.019
 Vibration    12          0.659              1.772              1.773
 Vibration    13          0.669              1.744              1.654
 Vibration    14          0.676              1.721              1.571
 Vibration    15          0.685              1.695              1.484
 Vibration    16          0.710              1.623              1.279
 Vibration    17          0.717              1.603              1.230
 Vibration    18          0.723              1.586              1.190
 Vibration    19          0.745              1.526              1.065
 Vibration    20          0.774              1.450              0.929
 Vibration    21          0.786              1.418              0.879
 Vibration    22          0.818              1.339              0.766
 Vibration    23          0.825              1.321              0.743
 Vibration    24          0.877              1.202              0.606
 Vibration    25          0.945              1.058              0.471

                           ! Non-Optimized Parameters !

 1\1\GINC-NODE357\Freq\RB3LYP\6-31G(d)\C9H24N4\VSC10255\13-Dec-2020\0\\
 #N Geom=AllCheck Guess=TCheck SCRF=Check GenChk RB3LYP/6-31G(d) Freq\\
 CID_149641674_JID_3690_neutraal\\0,1\C,1.1140751673,0.0176316801,-0.06
 77054468\C,0.8993540573,1.4785548905,0.3333696937\C,1.3382791518,2.508
 6567906,-0.720431944\C,0.7091951407,2.2655698353,-2.1177197544\C,-0.82
 87844248,2.2666993394,-2.1892334437\C,-1.5289638481,3.6401004029,-2.26
 13134211\C,-1.1840999642,4.4248930131,-3.549058492\N,-1.7980356182,3.7
 386170501,-4.704049551\N,-1.662473634,5.7956355141,-3.4362877403\N,-2.

 Normal termination of Gaussian 16 at Sun Dec 13 12:37:27 2020.

 ----------------------------------------------------------------------
 # B3LYP/6-311++G(d,p) empiricaldispersion=gd3bj scf=xqc pop=npa geom=c
 heck
 ----------------------------------------------------------------------

 ---------------------------------------
 CID_149641674_JID_3690_Energie_neutraal
 ---------------------------------------
 Structure from the checkpoint file:  "JID_3690.chk"
 Charge =  0 Multiplicity = 1

 SCF Done:  E(RB3LYP) =  -576.627672707     A.U. after   14 cycles
 Normal termination of Gaussian 16 at Sun Dec 13 12:41:52 2020.

 ----------------------------------------------------------------------
 # B3LYP/6-311++G(d,p) empiricaldispersion=gd3bj scf=xqc pop=npa geom=c
 heck
 ----------------------------------------------------------------------

 -------------------------------------
 CID_149641674_JID_3690_Energie_kation
 -------------------------------------
 Structure from the checkpoint file:  "JID_3690.chk"
 Charge =  1 Multiplicity = 2

 SCF Done:  E(UB3LYP) =  -576.348251852     A.U. after   24 cycles
 Normal termination of Gaussian 16 at Sun Dec 13 12:51:47 2020.
 Gaussian 16:  ES64L-G16RevA.03 25-Dec-2016

 ------------------------------------
 CID_149641674_JID_3690_Energie_anion
 ------------------------------------
 Structure from the checkpoint file:  "JID_3690.chk"
 Charge = -1 Multiplicity = 2

                         Standard orientation:
 ---------------------------------------------------------------------
 Center     Atomic      Atomic             Coordinates (Angstroms)
 Number     Number       Type             X           Y           Z
 ---------------------------------------------------------------------
      1          6           0        3.740975   -1.525933   -0.459138
      2          6           0        3.051354   -0.586097    0.532021
      3          6           0        2.233179    0.544849   -0.112815
      4          6           0        1.191445    0.038919   -1.145325
      5          6           0        0.137890   -0.957384   -0.627736
      6          6           0       -1.081446   -0.370236    0.113987
      7          6           0       -1.959543    0.528604   -0.788316
      8          7           0       -2.628635   -0.317814   -1.797171
      9          7           0       -2.931446    1.246608    0.024315
     10          7           0       -1.850417   -1.468507    0.711480
     11          6           0       -2.308454   -1.257243    2.078618
     12          7           0        1.731801    1.396876    0.969495
     13          6           0        1.054469    2.618629    0.562408
     14          1           0        3.019877   -2.119017   -1.031895
     15          1           0        4.399766   -2.226971    0.064845
     16          1           0        4.354792   -0.965172   -1.175035
     17          1           0        2.401659   -1.172319    1.197297
     18          1           0        3.796218   -0.111555    1.180308
     19          1           0        2.937953    1.172504   -0.680425
     20          1           0        0.705133    0.907972   -1.604984
     21          1           0        1.750684   -0.437056   -1.960180
     22          1           0       -0.229738   -1.568301   -1.463975
     23          1           0        0.599058   -1.677720    0.055649
     24          1           0       -0.729324    0.276749    0.922443
     25          1           0       -1.320068    1.298555   -1.245159
     26          1           0       -3.225809    0.264566   -2.382553
     27          1           0       -1.940646   -0.737932   -2.422071
     28          1           0       -3.437421    1.919297   -0.550577
     29          1           0       -3.625483    0.580476    0.361463
     30          1           0       -2.621702   -1.698637    0.088217
     31          1           0       -2.916813   -0.351553    2.243741
     32          1           0       -2.893890   -2.127038    2.396745
     33          1           0       -1.440384   -1.188414    2.745819
     34          1           0        1.137537    0.854912    1.592265
     35          1           0        0.115170    2.479500    0.000847
     36          1           0        0.820925    3.213258    1.452017
     37          1           0        1.734167    3.209094   -0.063852
 ---------------------------------------------------------------------

 SCF Done:  E(UB3LYP) =  -576.616473256     A.U. after   27 cycles

 The electronic state is 2-A.
 Alpha  occ. eigenvalues --  -14.19874 -14.18818 -14.18639 -14.18532 -10.11446
 Alpha  occ. eigenvalues --  -10.09908 -10.09090 -10.09002 -10.08714 -10.07122
 Alpha  occ. eigenvalues --  -10.06908 -10.06065 -10.05928  -0.82664  -0.80880
 Alpha  occ. eigenvalues --   -0.78365  -0.73049  -0.69579  -0.66546  -0.61617
 Alpha  occ. eigenvalues --   -0.58699  -0.55114  -0.54190  -0.52371  -0.47804
 Alpha  occ. eigenvalues --   -0.45459  -0.41478  -0.39662  -0.38276  -0.37679
 Alpha  occ. eigenvalues --   -0.36252  -0.35800  -0.35059  -0.33852  -0.32840
 Alpha  occ. eigenvalues --   -0.32001  -0.31557  -0.31148  -0.29904  -0.28942
 Alpha  occ. eigenvalues --   -0.28187  -0.27892  -0.27350  -0.25964  -0.24990
 Alpha  occ. eigenvalues --   -0.23831  -0.22918  -0.22372  -0.21784  -0.15441
 Alpha  occ. eigenvalues --   -0.14679  -0.12584  -0.11632   0.04394
 Alpha virt. eigenvalues --    0.06280   0.07069   0.07665   0.08315   0.08741
 Alpha virt. eigenvalues --    0.09425   0.09938   0.10138   0.10866   0.11192
 Alpha virt. eigenvalues --    0.11668   0.12207   0.12658   0.13069   0.13432

  Beta  occ. eigenvalues --  -14.19871 -14.18810 -14.18595 -14.18472 -10.11427
  Beta  occ. eigenvalues --  -10.09902 -10.09089 -10.08991 -10.08700 -10.07117
  Beta  occ. eigenvalues --  -10.06889 -10.06050 -10.05914  -0.82611  -0.80870
  Beta  occ. eigenvalues --   -0.78324  -0.72930  -0.69558  -0.66520  -0.61583
  Beta  occ. eigenvalues --   -0.58667  -0.55078  -0.54126  -0.52325  -0.47765
  Beta  occ. eigenvalues --   -0.45421  -0.41426  -0.39613  -0.38237  -0.37653
  Beta  occ. eigenvalues --   -0.36201  -0.35754  -0.35028  -0.33811  -0.32811
  Beta  occ. eigenvalues --   -0.31978  -0.31530  -0.31118  -0.29869  -0.28912
  Beta  occ. eigenvalues --   -0.28150  -0.27867  -0.27329  -0.25937  -0.24970
  Beta  occ. eigenvalues --   -0.23809  -0.22899  -0.22346  -0.21759  -0.15381
  Beta  occ. eigenvalues --   -0.14617  -0.12574  -0.11614
  Beta virt. eigenvalues --    0.06399   0.07037   0.07610   0.08000   0.08849
  Beta virt. eigenvalues --    0.09204   0.09597   0.10051   0.10500   0.11163
  Beta virt. eigenvalues --    0.11548   0.12086   0.12456   0.12937   0.13259

 Mulliken charges and spin densities:
               1          2
     1  C    0.195492  -0.885114
     2  C   -0.558673   0.528584
     3  C   -0.214369  -0.371613
     4  C   -0.202208  -0.062391
     5  C   -1.131614   0.986599
     6  C    1.325067  -1.788694
     7  C    0.845099  -1.605278
     8  N   -0.486808   0.216517
     9  N   -0.375053   0.051740
    10  N   -0.103752   0.150321
    11  C   -0.153153  -0.182259
    12  N   -0.031568   0.039927
    13  C    0.072056  -0.419455
    14  H   -0.086635   0.245215
    15  H   -0.021611   0.147625
    16  H   -0.124646   0.260955
    17  H    0.093081   0.017906
    18  H    0.108121   0.078138
    19  H    0.073334   0.099032
    20  H   -0.105586   0.237966
    21  H   -0.275550   0.462362
    22  H   -0.003890   0.166879
    23  H    0.224945  -0.041210
    24  H    0.548976  -0.395161
    25  H   -0.424257   0.622223
    26  H   -0.489105   0.750528
    27  H    0.041156   0.181049
    28  H   -0.299805   0.555606
    29  H    0.049403   0.179416
    30  H    0.149985   0.137367
    31  H    0.043541   0.068942
    32  H    0.031634   0.084251
    33  H    0.029435   0.104589
    34  H    0.118172   0.095832
    35  H    0.224007  -0.071983
    36  H    0.073653   0.054258
    37  H   -0.158869   0.299332
 Sum of Mulliken charges =  -1.00000   1.00000

 Dipole moment (field-independent basis, Debye):
    X=              3.9650    Y=             -2.1839    Z=              5.7340  Tot=              7.3055
 Quadrupole moment (field-independent basis, Debye-Ang):
   XX=           -156.8440   YY=           -125.9460   ZZ=           -129.1698
   XY=              8.4655   XZ=            -11.2099   YZ=              1.6836

 Summary of Natural Population Analysis:

                                       Natural Population
                Natural  -----------------------------------------------
    Atom  No    Charge         Core      Valence    Rydberg      Total
 -----------------------------------------------------------------------
      C    1   -0.28782      0.99966     2.28340    0.00475     3.28782
      C    2   -0.19347      0.99962     2.18408    0.00978     3.19347
      C    3   -0.00354      0.99958     1.99109    0.01287     3.00354
      C    4   -0.20506      0.99960     2.19541    0.01005     3.20506
      C    5   -0.19843      0.99960     2.18672    0.01211     3.19843
      C    6   -0.01400      0.99955     1.99960    0.01485     3.01400
      C    7    0.06902      0.99960     1.91542    0.01596     2.93098
      N    8   -0.44122      0.99975     2.93021    0.01126     3.94122
      N    9   -0.42099      0.99976     2.91034    0.01089     3.92099
      N   10   -0.35275      0.99973     2.84170    0.01131     3.85275
      C   11   -0.17531      0.99966     2.16878    0.00687     3.17531
      N   12   -0.34234      0.99974     2.83203    0.01057     3.84234
      C   13   -0.18029      0.99965     2.17253    0.00810     3.18029
      H   14    0.09889      0.00000     0.40017    0.00094     0.40111
      H   15    0.09719      0.00000     0.40212    0.00070     0.40281
      H   16    0.09689      0.00000     0.40214    0.00098     0.40311
      H   17    0.09218      0.00000     0.40659    0.00122     0.40782
      H   18    0.10049      0.00000     0.39825    0.00126     0.39951
      H   19    0.08827      0.00000     0.40995    0.00178     0.41173
      H   20    0.10099      0.00000     0.39706    0.00196     0.39901
      H   21    0.10236      0.00000     0.39645    0.00119     0.39764
      H   22    0.09853      0.00000     0.39990    0.00158     0.40147
      H   23    0.10069      0.00000     0.39773    0.00158     0.39931
      H   24    0.09237      0.00000     0.40486    0.00278     0.40763
      H   25    0.08183      0.00000     0.41466    0.00351     0.41817
      H   26    0.18372      0.00000     0.30821    0.00807     0.31628
      H   27    0.17913      0.00000     0.31798    0.00289     0.32087
      H   28    0.17927      0.00000     0.31727    0.00345     0.32073
      H   29    0.17238      0.00000     0.32522    0.00241     0.32762
      H   30    0.18531      0.00000     0.31161    0.00308     0.31469
      H   31    0.08107      0.00000     0.41724    0.00168     0.41893
      H   32    0.09033      0.00000     0.40888    0.00079     0.40967
      H   33    0.08658      0.00000     0.41225    0.00117     0.41342
      H   34    0.16955      0.00000     0.32770    0.00276     0.33045
      H   35    0.08508      0.00000     0.41334    0.00158     0.41492
      H   36    0.09271      0.00000     0.40651    0.00078     0.40729
      H   37    0.09041      0.00000     0.40865    0.00095     0.40959
 =======================================================================
   * Total *   -0.00000     12.99551    39.81603    0.18846    53.00000

 Normal termination of Gaussian 16 at Sun Dec 13 13:02:59 2020.
