 Gaussian 16, Revision A.03,

 -----------------------------------------------------------
 # opt freq B3LYP/6-31G(d) empiricaldispersion=gd3bj scf=xqc
 -----------------------------------------------------------

 -------------------------------
 CID_148701159_JID_1437_neutraal
 -------------------------------
 Symbolic Z-matrix:
 Charge =  0 Multiplicity = 1

 SCF Done:  E(RB3LYP) =  -428.546483394     A.U. after   16 cycles
 SCF Done:  E(RB3LYP) =  -428.578822072     A.U. after   15 cycles
 SCF Done:  E(RB3LYP) =  -428.601156628     A.U. after   15 cycles
 SCF Done:  E(RB3LYP) =  -428.616773948     A.U. after   15 cycles
 SCF Done:  E(RB3LYP) =  -428.623538219     A.U. after   13 cycles
 SCF Done:  E(RB3LYP) =  -428.638156474     A.U. after   11 cycles
 SCF Done:  E(RB3LYP) =  -428.648611994     A.U. after   12 cycles
 SCF Done:  E(RB3LYP) =  -428.662434238     A.U. after   12 cycles
 SCF Done:  E(RB3LYP) =  -428.672600451     A.U. after   13 cycles
 SCF Done:  E(RB3LYP) =  -428.677429980     A.U. after   13 cycles
 SCF Done:  E(RB3LYP) =  -428.679275413     A.U. after   10 cycles
 SCF Done:  E(RB3LYP) =  -428.679300704     A.U. after   11 cycles
 SCF Done:  E(RB3LYP) =  -428.679308964     A.U. after   10 cycles
 SCF Done:  E(RB3LYP) =  -428.679314751     A.U. after   10 cycles
 SCF Done:  E(RB3LYP) =  -428.679316119     A.U. after    8 cycles
 SCF Done:  E(RB3LYP) =  -428.679316329     A.U. after    7 cycles
 Optimization completed.
    -- Stationary point found.
 Normal termination of Gaussian 16 at Tue Dec  8 20:07:52 2020.

 --------------------------------------------------------------------
 #N Geom=AllCheck Guess=TCheck SCRF=Check GenChk RB3LYP/6-31G(d) Freq
 --------------------------------------------------------------------

 Structure from the checkpoint file:  "JID_1437.chk"
 -------------------------------
 CID_148701159_JID_1437_neutraal
 -------------------------------
 Charge =  0 Multiplicity = 1

 SCF Done:  E(RB3LYP) =  -428.679316329     A.U. after    1 cycles

  Exact polarizability: 119.825  -1.837 107.587   2.366  -1.949  96.863
 Approx polarizability: 157.180  -6.034 164.798   2.893  -3.392 153.016

                      1                      2                      3
                      A                      A                      A
 Frequencies --     58.4688               110.2959               130.4032
 Red. masses --      3.2036                 2.3252                 2.9000
 Frc consts  --      0.0065                 0.0167                 0.0291
 IR Inten    --      0.4547                 0.0805                 0.4951

                      4                      5                      6
                      A                      A                      A
 Frequencies --    170.6385               182.6528               213.9889
 Red. masses --      1.6737                 2.9415                 3.6061
 Frc consts  --      0.0287                 0.0578                 0.0973
 IR Inten    --      7.9333                 7.0223                15.7431

                      7                      8                      9
                      A                      A                      A
 Frequencies --    262.5379               301.7912               331.1838
 Red. masses --      1.1365                 2.4197                 2.3740
 Frc consts  --      0.0462                 0.1298                 0.1534
 IR Inten    --      0.2640                 3.6055                 1.2810

                     10                     11                     12
                      A                      A                      A
 Frequencies --    392.0726               458.5399               488.7495
 Red. masses --      3.8139                 2.4278                 2.5983
 Frc consts  --      0.3454                 0.3008                 0.3657
 IR Inten    --      0.4749                 1.1735                 0.8598

                     13                     14                     15
                      A                      A                      A
 Frequencies --    625.8992               649.9284               673.6118
 Red. masses --      2.4719                 4.1866                 2.0860
 Frc consts  --      0.5705                 1.0419                 0.5577
 IR Inten    --      2.3158                 0.2370                16.4648

                     16                     17                     18
                      A                      A                      A
 Frequencies --    716.9217               783.7726               797.1366
 Red. masses --      3.6825                 3.1612                 2.8353
 Frc consts  --      1.1152                 1.1441                 1.0615
 IR Inten    --      5.5746                37.7801                 4.6447

                     19                     20                     21
                      A                      A                      A
 Frequencies --    808.1686               822.3973               882.7829
 Red. masses --      1.6323                 1.8990                 3.1767
 Frc consts  --      0.6281                 0.7567                 1.4586
 IR Inten    --      1.9113                 2.2171                13.8788

                     22                     23                     24
                      A                      A                      A
 Frequencies --    905.5724               913.8015               941.0913
 Red. masses --      2.0724                 2.1342                 1.6589
 Frc consts  --      1.0013                 1.0500                 0.8656
 IR Inten    --      0.2626                14.1021                 1.8504

                     25                     26                     27
                      A                      A                      A
 Frequencies --    944.7715               958.4248               965.1962
 Red. masses --      2.0387                 1.4529                 1.7480
 Frc consts  --      1.0722                 0.7863                 0.9595
 IR Inten    --      1.3799                 4.8171                 0.9714

                     28                     29                     30
                      A                      A                      A
 Frequencies --    968.3195               987.9629              1014.9002
 Red. masses --      1.9421                 1.5003                 1.7992
 Frc consts  --      1.0729                 0.8628                 1.0919
 IR Inten    --      7.1384                12.0222                 5.9464

                     31                     32                     33
                      A                      A                      A
 Frequencies --   1067.3751              1088.3689              1105.5713
 Red. masses --      1.8028                 1.7178                 1.3891
 Frc consts  --      1.2101                 1.1989                 1.0004
 IR Inten    --      2.5904                 0.7819                 1.0894

                     34                     35                     36
                      A                      A                      A
 Frequencies --   1132.7436              1145.6966              1169.3102
 Red. masses --      2.4438                 1.4984                 1.4443
 Frc consts  --      1.8475                 1.1588                 1.1635
 IR Inten    --      0.5892                 7.6085                 6.8214

                     37                     38                     39
                      A                      A                      A
 Frequencies --   1177.2403              1199.8221              1227.7331
 Red. masses --      1.6302                 1.8235                 1.1553
 Frc consts  --      1.3311                 1.5467                 1.0260
 IR Inten    --      2.7215                18.2538                 1.9211

                     40                     41                     42
                      A                      A                      A
 Frequencies --   1233.5441              1259.2063              1267.9451
 Red. masses --      1.3400                 1.5165                 1.3835
 Frc consts  --      1.2013                 1.4167                 1.3105
 IR Inten    --      1.6785                 0.3354                 4.0905

                     43                     44                     45
                      A                      A                      A
 Frequencies --   1273.7132              1277.3541              1288.7764
 Red. masses --      1.3585                 1.3416                 1.4191
 Frc consts  --      1.2986                 1.2898                 1.3887
 IR Inten    --      0.2890                 3.3217                 1.0803

                     46                     47                     48
                      A                      A                      A
 Frequencies --   1296.5589              1322.2661              1356.0500
 Red. masses --      1.4159                 1.6963                 1.3737
 Frc consts  --      1.4024                 1.7474                 1.4883
 IR Inten    --      1.7748                11.7229                 1.3902

                     49                     50                     51
                      A                      A                      A
 Frequencies --   1363.7184              1386.6335              1399.7762
 Red. masses --      1.7381                 1.7496                 1.5127
 Frc consts  --      1.9045                 1.9820                 1.7463
 IR Inten    --     10.1045                 2.7701                 6.3296

                     52                     53                     54
                      A                      A                      A
 Frequencies --   1442.0580              1444.9676              1472.1537
 Red. masses --      1.1856                 1.1656                 1.9235
 Frc consts  --      1.4526                 1.4338                 2.4561
 IR Inten    --      9.3688                18.7543                 0.8425

                     55                     56                     57
                      A                      A                      A
 Frequencies --   1513.1486              1525.3225              1527.3909
 Red. masses --      1.0853                 1.0471                 1.0957
 Frc consts  --      1.4640                 1.4353                 1.5061
 IR Inten    --      2.9144                 3.3945                 6.0192

                     58                     59                     60
                      A                      A                      A
 Frequencies --   1532.4479              1535.6652              3021.1941
 Red. masses --      1.1251                 1.0639                 1.0406
 Frc consts  --      1.5568                 1.4782                 5.5964
 IR Inten    --      1.6825                 8.0156                11.2355

                     61                     62                     63
                      A                      A                      A
 Frequencies --   3022.4956              3036.6831              3059.8644
 Red. masses --      1.0656                 1.0839                 1.0715
 Frc consts  --      5.7357                 5.8892                 5.9106
 IR Inten    --     17.1570                10.8744                26.8706

                     64                     65                     66
                      A                      A                      A
 Frequencies --   3060.9920              3063.5576              3063.7992
 Red. masses --      1.0596                 1.0628                 1.0798
 Frc consts  --      5.8497                 5.8768                 5.9720
 IR Inten    --     37.5879                35.9247                12.8340

                     67                     68                     69
                      A                      A                      A
 Frequencies --   3086.3665              3090.3899              3100.3268
 Red. masses --      1.0982                 1.0893                 1.1045
 Frc consts  --      6.1634                 6.1295                 6.2552
 IR Inten    --     11.1050                18.2215                38.9344

                     70                     71                     72
                      A                      A                      A
 Frequencies --   3102.1582              3111.1115              3123.8106
 Red. masses --      1.1010                 1.1040                 1.1060
 Frc consts  --      6.2426                 6.2958                 6.3590
 IR Inten    --     21.8844                26.5456                59.5763

                     73                     74                     75
                      A                      A                      A
 Frequencies --   3138.2874              3175.2512              3183.7943
 Red. masses --      1.0874                 1.0893                 1.0919
 Frc consts  --      6.3102                 6.4705                 6.5212
 IR Inten    --     20.6012                12.3779                28.9400

 - Thermochemistry -
 -------------------
 Temperature   298.150 Kelvin.  Pressure   1.00000 Atm.
 Atom     1 has atomic number  6 and mass  12.00000

 Molecular mass:   148.12520 amu.
 Principal axes and moments of inertia in atomic units:
                           1         2         3
     Eigenvalues --   947.684122091.899042450.66220
           X            0.99986   0.01488   0.00818
           Y           -0.01467   0.99957  -0.02546
           Z           -0.00856   0.02534   0.99964
 This molecule is an asymmetric top.
 Rotational symmetry number  1.
 Warning -- assumption of classical behavior for rotation
           may cause significant error
 Rotational temperatures (Kelvin)      0.09140     0.04140     0.03534
 Rotational constants (GHZ):           1.90437     0.86273     0.73643
 Zero-point vibrational energy     633629.8 (Joules/Mol)
                                  151.44115 (Kcal/Mol)
 Warning -- explicit consideration of  12 degrees of freedom as
           vibrations may cause significant error
 Vibrational temperatures:     84.12   158.69   187.62   245.51   262.80
          (Kelvin)            307.88   377.73   434.21   476.50   564.10
                              659.74   703.20   900.53   935.10   969.18
                             1031.49  1127.67  1146.90  1162.77  1183.25
                             1270.13  1302.92  1314.76  1354.02  1359.32
                             1378.96  1388.70  1393.20  1421.46  1460.22
                             1535.71  1565.92  1590.67  1629.77  1648.40
                             1682.38  1693.79  1726.28  1766.43  1774.79
                             1811.72  1824.29  1832.59  1837.83  1854.26
                             1865.46  1902.45  1951.05  1962.09  1995.06
                             2013.97  2074.80  2078.99  2118.10  2177.08
                             2194.60  2197.57  2204.85  2209.48  4346.82
                             4348.70  4369.11  4402.46  4404.08  4407.78
                             4408.12  4440.59  4446.38  4460.68  4463.31
                             4476.20  4494.47  4515.30  4568.48  4580.77

 Zero-point correction=                           0.241337 (Hartree/Particle)
 Thermal correction to Energy=                    0.251829
 Thermal correction to Enthalpy=                  0.252773
 Thermal correction to Gibbs Free Energy=         0.205573
 Sum of electronic and zero-point Energies=           -428.437980
 Sum of electronic and thermal Energies=              -428.427488
 Sum of electronic and thermal Enthalpies=            -428.426544
 Sum of electronic and thermal Free Energies=         -428.473743

                     E (Thermal)             CV                S
                      KCal/Mol        Cal/Mol-Kelvin    Cal/Mol-Kelvin
 Total                  158.025             41.608             99.340
 Electronic               0.000              0.000              0.000
 Translational            0.889              2.981             40.889
 Rotational               0.889              2.981             29.964
 Vibrational            156.247             35.646             28.487
 Vibration     1          0.596              1.974              4.508
 Vibration     2          0.606              1.941              3.264
 Vibration     3          0.612              1.923              2.940
 Vibration     4          0.626              1.879              2.428
 Vibration     5          0.630              1.863              2.301
 Vibration     6          0.644              1.820              2.009
 Vibration     7          0.670              1.741              1.645
 Vibration     8          0.694              1.670              1.407
 Vibration     9          0.714              1.613              1.254
 Vibration    10          0.760              1.487              0.992
 Vibration    11          0.817              1.342              0.770
 Vibration    12          0.845              1.275              0.687

 Optimization completed.
    -- Stationary point found.
 Normal termination of Gaussian 16 at Tue Dec  8 20:14:50 2020.

 ----------------------------------------------------------------------
 # B3LYP/6-311++G(d,p) empiricaldispersion=gd3bj scf=xqc pop=npa geom=c
 heck
 ----------------------------------------------------------------------

 ---------------------------------------
 CID_148701159_JID_1437_Energie_neutraal
 ---------------------------------------
 Structure from the checkpoint file:  "JID_1437.chk"
 Charge =  0 Multiplicity = 1

 SCF Done:  E(RB3LYP) =  -428.792292393     A.U. after   14 cycles
 Normal termination of Gaussian 16 at Tue Dec  8 20:18:07 2020.

 ----------------------------------------------------------------------
 # B3LYP/6-311++G(d,p) empiricaldispersion=gd3bj scf=xqc pop=npa geom=c
 heck
 ----------------------------------------------------------------------

 -------------------------------------
 CID_148701159_JID_1437_Energie_kation
 -------------------------------------
 Structure from the checkpoint file:  "JID_1437.chk"
 Charge =  1 Multiplicity = 2

 SCF Done:  E(UB3LYP) =  -428.518237227     A.U. after   21 cycles
 Normal termination of Gaussian 16 at Tue Dec  8 20:24:28 2020.
 Gaussian 16:  ES64L-G16RevA.03 25-Dec-2016

 ----------------------------------------------------------------------
 # B3LYP/6-311++G(d,p) empiricaldispersion=gd3bj scf=xqc pop=npa geom=c
 heck
 ----------------------------------------------------------------------

 ------------------------------------
 CID_148701159_JID_1437_Energie_anion
 ------------------------------------
 Structure from the checkpoint file:  "JID_1437.chk"
 Charge = -1 Multiplicity = 2

                         Standard orientation:
 ---------------------------------------------------------------------
 Center     Atomic      Atomic             Coordinates (Angstroms)
 Number     Number       Type             X           Y           Z
 ---------------------------------------------------------------------
      1          6           0        1.647546    1.969129   -0.007054
      2          6           0        1.795377    0.504839    0.369318
      3          6           0        2.872344   -0.378147   -0.318202
      4          6           0        1.846957   -1.541126   -0.351221
      5          6           0        0.717477   -0.491215   -0.149410
      6          6           0       -0.420602   -0.852037    0.766679
      7          6           0       -1.817885   -1.110472    0.376801
      8          6           0       -2.227556   -0.609569   -0.996841
      9          6           0       -2.000716    0.938082   -0.921684
     10          6           0       -1.624603    1.379813    0.465040
     11          6           0       -1.533936    0.174337    1.235845
     12          1           0        2.461141    2.576993    0.406509
     13          1           0        1.659344    2.090236   -1.098104
     14          1           0        0.693115    2.365838    0.364999
     15          1           0        1.874416    0.401955    1.460073
     16          1           0        3.098692   -0.011121   -1.325925
     17          1           0        3.814993   -0.543291    0.212272
     18          1           0        1.945497   -2.192531    0.524954
     19          1           0        1.801805   -2.167935   -1.247000
     20          1           0        0.358528   -0.153314   -1.125980
     21          1           0       -0.078754   -1.397015    1.646103
     22          1           0       -2.348132   -1.942433    0.832677
     23          1           0       -1.636854   -1.074732   -1.794657
     24          1           0       -3.278002   -0.848954   -1.192937
     25          1           0       -1.300424    1.341794   -1.665758
     26          1           0       -2.943357    1.468694   -1.129625
     27          1           0       -1.648423    0.184013    2.316778
 ---------------------------------------------------------------------

 SCF Done:  E(UB3LYP) =  -428.794829596     A.U. after   29 cycles

 The electronic state is 2-A.
 Alpha  occ. eigenvalues --  -10.04738 -10.04403 -10.04197 -10.03719 -10.02446
 Alpha  occ. eigenvalues --  -10.02258 -10.01902 -10.01834 -10.00420  -9.99546
 Alpha  occ. eigenvalues --   -9.93862  -0.73425  -0.70800  -0.59789  -0.59155
 Alpha  occ. eigenvalues --   -0.54233  -0.53103  -0.49134  -0.44523  -0.42209
 Alpha  occ. eigenvalues --   -0.40228  -0.36771  -0.34593  -0.32802  -0.31224
 Alpha  occ. eigenvalues --   -0.29145  -0.28642  -0.27924  -0.25277  -0.23764
 Alpha  occ. eigenvalues --   -0.23213  -0.22296  -0.21162  -0.20120  -0.19073
 Alpha  occ. eigenvalues --   -0.18423  -0.17687  -0.15240  -0.13326  -0.11881
 Alpha  occ. eigenvalues --   -0.00601   0.05522
 Alpha virt. eigenvalues --    0.08222   0.09342   0.09552   0.09976   0.11239
 Alpha virt. eigenvalues --    0.11872   0.11964   0.12458   0.12924   0.13741
 Alpha virt. eigenvalues --    0.14610   0.14753   0.15937   0.16116   0.16501

  Beta  occ. eigenvalues --  -10.04733 -10.04385 -10.04194 -10.03728 -10.02198
  Beta  occ. eigenvalues --  -10.02164 -10.01907 -10.01815 -10.00537  -9.99609
  Beta  occ. eigenvalues --   -9.92822  -0.73255  -0.70546  -0.59576  -0.59027
  Beta  occ. eigenvalues --   -0.54175  -0.52173  -0.49091  -0.44262  -0.42077
  Beta  occ. eigenvalues --   -0.40044  -0.36417  -0.34225  -0.32705  -0.30983
  Beta  occ. eigenvalues --   -0.28718  -0.28566  -0.27826  -0.24983  -0.23691
  Beta  occ. eigenvalues --   -0.23076  -0.21924  -0.20968  -0.19850  -0.18919
  Beta  occ. eigenvalues --   -0.18308  -0.17628  -0.14785  -0.13004  -0.10939
  Beta  occ. eigenvalues --    0.01022
  Beta virt. eigenvalues --    0.08131   0.09314   0.09546   0.09942   0.11237
  Beta virt. eigenvalues --    0.11778   0.11952   0.12445   0.12905   0.13632
  Beta virt. eigenvalues --    0.14280   0.14662   0.15591   0.15865   0.16392

 Mulliken charges and spin densities:
               1          2
     1  C   -0.621581  -0.004327
     2  C    0.289396  -0.073498
     3  C   -0.440383   0.028827
     4  C    0.090387  -0.399549
     5  C   -0.320505   0.407334
     6  C    0.385902  -0.446139
     7  C   -0.049422  -0.002596
     8  C   -0.497859  -0.037565
     9  C   -0.375288  -0.123068
    10  C   -0.483747   0.929364
    11  C   -0.170898  -0.029347
    12  H    0.047093   0.043238
    13  H    0.102717  -0.008696
    14  H    0.095360  -0.004830
    15  H    0.141651   0.016040
    16  H    0.108146  -0.011766
    17  H    0.051744   0.067644
    18  H   -0.018218   0.123111
    19  H    0.076342   0.039953
    20  H    0.133753   0.012255
    21  H   -0.146186   0.337709
    22  H    0.120986   0.013412
    23  H    0.072644   0.015957
    24  H    0.112037  -0.010788
    25  H    0.081453   0.014314
    26  H    0.092152   0.052638
    27  H    0.122324   0.050373
 Sum of Mulliken charges =  -1.00000   1.00000

 Dipole moment (field-independent basis, Debye):
    X=              4.0958    Y=             -3.6599    Z=             -2.2326  Tot=              5.9292
 Quadrupole moment (field-independent basis, Debye-Ang):
   XX=            -97.8274   YY=            -99.1482   ZZ=            -82.9270
   XY=              9.3862   XZ=              1.8913   YZ=             -2.6617

 Summary of Natural Population Analysis:

                                       Natural Population
                Natural  -----------------------------------------------
    Atom  No    Charge         Core      Valence    Rydberg      Total
 -----------------------------------------------------------------------
      C    1   -0.29351      0.99964     2.28885    0.00502     3.29351
      C    2   -0.10008      0.99960     2.08998    0.01050     3.10008
      C    3   -0.18989      0.99963     2.18170    0.00856     3.18989
      C    4   -0.18493      0.99964     2.17648    0.00882     3.18493
      C    5   -0.11340      0.99956     2.10021    0.01363     3.11340
      C    6   -0.06254      0.99954     2.04915    0.01385     3.06254
      C    7   -0.10592      0.99956     2.09282    0.01353     3.10592
      C    8   -0.21176      0.99963     2.20143    0.01069     3.21176
      C    9   -0.26812      0.99962     2.25848    0.01002     3.26812
      C   10    0.15872      0.99965     1.82245    0.01917     2.84128
      C   11   -0.17736      0.99957     2.16238    0.01542     3.17736
      H   12    0.08677      0.00000     0.41178    0.00145     0.41323
      H   13    0.08852      0.00000     0.41068    0.00081     0.41148
      H   14    0.12834      0.00000     0.36891    0.00275     0.37166
      H   15    0.09078      0.00000     0.40726    0.00196     0.40922
      H   16    0.08980      0.00000     0.40911    0.00108     0.41020
      H   17    0.08926      0.00000     0.40973    0.00101     0.41074
      H   18    0.09242      0.00000     0.40584    0.00175     0.40758
      H   19    0.08981      0.00000     0.40912    0.00107     0.41019
      H   20    0.10101      0.00000     0.39711    0.00188     0.39899
      H   21    0.09756      0.00000     0.40044    0.00200     0.40244
      H   22    0.09446      0.00000     0.40353    0.00200     0.40554
      H   23    0.08955      0.00000     0.40910    0.00135     0.41045
      H   24    0.09185      0.00000     0.40690    0.00125     0.40815
      H   25    0.10449      0.00000     0.39466    0.00086     0.39551
      H   26    0.11539      0.00000     0.38282    0.00180     0.38461
      H   27    0.09878      0.00000     0.39907    0.00215     0.40122
 =======================================================================
   * Total *    0.00000     10.99565    29.84997    0.15437    41.00000

 Normal termination of Gaussian 16 at Tue Dec  8 20:34:04 2020.
