 Gaussian 16, Revision A.03,

 -----------------------------------------------------------
 # opt freq B3LYP/6-31G(d) empiricaldispersion=gd3bj scf=xqc
 -----------------------------------------------------------

 -------------------------------
 CID_130128838_JID_3905_neutraal
 -------------------------------
 Symbolic Z-matrix:
 Charge =  0 Multiplicity = 1

 SCF Done:  E(RB3LYP) =  -581.677013431     A.U. after   13 cycles
 SCF Done:  E(RB3LYP) =  -581.680438600     A.U. after   11 cycles
 SCF Done:  E(RB3LYP) =  -581.680374224     A.U. after   11 cycles
 SCF Done:  E(RB3LYP) =  -581.680538997     A.U. after   11 cycles
 SCF Done:  E(RB3LYP) =  -581.681393365     A.U. after   11 cycles
 SCF Done:  E(RB3LYP) =  -581.681480301     A.U. after   10 cycles
 SCF Done:  E(RB3LYP) =  -581.681530441     A.U. after    9 cycles
 SCF Done:  E(RB3LYP) =  -581.681531049     A.U. after    9 cycles
 SCF Done:  E(RB3LYP) =  -581.681532939     A.U. after    7 cycles
 SCF Done:  E(RB3LYP) =  -581.681533764     A.U. after    7 cycles
 SCF Done:  E(RB3LYP) =  -581.681534044     A.U. after    7 cycles
 Optimization completed.
    -- Stationary point found.
 Normal termination of Gaussian 16 at Mon Dec 14 13:14:48 2020.

 --------------------------------------------------------------------
 #N Geom=AllCheck Guess=TCheck SCRF=Check GenChk RB3LYP/6-31G(d) Freq
 --------------------------------------------------------------------

 Structure from the checkpoint file:  "JID_3905.chk"
 -------------------------------
 CID_130128838_JID_3905_neutraal
 -------------------------------
 Charge =  0 Multiplicity = 1

 SCF Done:  E(RB3LYP) =  -581.681534044     A.U. after    1 cycles

  Exact polarizability: 127.995   7.543 128.767   0.762   0.060  98.679
 Approx polarizability: 175.188  18.436 180.821  -3.883  -1.971 154.089

                      1                      2                      3
                      A                      A                      A
 Frequencies --     48.2155                86.4347               111.8650
 Red. masses --      3.9194                 4.3942                 3.2014
 Frc consts  --      0.0054                 0.0193                 0.0236
 IR Inten    --      0.0294                 2.7522                 3.4616

                      4                      5                      6
                      A                      A                      A
 Frequencies --    132.7109               174.1986               211.5358
 Red. masses --      4.2629                 3.6650                 2.6665
 Frc consts  --      0.0442                 0.0655                 0.0703
 IR Inten    --      1.6772                 0.4412                 1.1067

                      7                      8                      9
                      A                      A                      A
 Frequencies --    234.9434               259.5186               268.5948
 Red. masses --      1.5505                 1.6195                 1.9459
 Frc consts  --      0.0504                 0.0643                 0.0827
 IR Inten    --      9.8782                 8.8715                 0.8161

                     10                     11                     12
                      A                      A                      A
 Frequencies --    283.3611               297.8608               307.8734
 Red. masses --      1.5203                 1.7366                 1.7669
 Frc consts  --      0.0719                 0.0908                 0.0987
 IR Inten    --     15.9297                45.8239                20.2491

                     13                     14                     15
                      A                      A                      A
 Frequencies --    321.9909               335.0916               351.1538
 Red. masses --      2.1459                 1.3711                 1.5703
 Frc consts  --      0.1311                 0.0907                 0.1141
 IR Inten    --      1.6838                 9.6864                51.1119

                     16                     17                     18
                      A                      A                      A
 Frequencies --    363.3964               387.7410               436.4659
 Red. masses --      1.8983                 1.7975                 2.4395
 Frc consts  --      0.1477                 0.1592                 0.2738
 IR Inten    --     46.0815                51.8772                11.4115

                     19                     20                     21
                      A                      A                      A
 Frequencies --    445.7874               482.1179               536.7045
 Red. masses --      2.2279                 3.5334                 3.3062
 Frc consts  --      0.2609                 0.4839                 0.5611
 IR Inten    --      2.5143                 0.2440                 2.3782

                     22                     23                     24
                      A                      A                      A
 Frequencies --    554.4722               576.1991               689.0168
 Red. masses --      3.0586                 3.4501                 2.1815
 Frc consts  --      0.5540                 0.6749                 0.6102
 IR Inten    --      2.6697                 1.3712                16.5694

                     25                     26                     27
                      A                      A                      A
 Frequencies --    707.5328               805.0009               856.5523
 Red. masses --      2.6318                 1.8560                 2.2586
 Frc consts  --      0.7762                 0.7086                 0.9763
 IR Inten    --      0.3925                 0.6270                 5.2760

                     28                     29                     30
                      A                      A                      A
 Frequencies --    870.8233               908.8147               910.6666
 Red. masses --      1.4747                 2.3810                 2.2182
 Frc consts  --      0.6589                 1.1587                 1.0839
 IR Inten    --      8.3289                 1.0453                 0.5253

                     31                     32                     33
                      A                      A                      A
 Frequencies --    933.1397               955.6076               962.1867
 Red. masses --      2.1315                 1.5016                 1.8952
 Frc consts  --      1.0935                 0.8079                 1.0338
 IR Inten    --      7.5313                 0.8898                10.5705

                     34                     35                     36
                      A                      A                      A
 Frequencies --    979.6531              1003.9562              1018.4005
 Red. masses --      1.9214                 1.9563                 1.4265
 Frc consts  --      1.0865                 1.1617                 0.8717
 IR Inten    --      2.5978                52.8401                 0.9868

                     37                     38                     39
                      A                      A                      A
 Frequencies --   1041.8232              1063.9666              1069.1123
 Red. masses --      3.3776                 1.6666                 1.7782
 Frc consts  --      2.1600                 1.1116                 1.1975
 IR Inten    --     48.3367                10.5902                17.5404

                     40                     41                     42
                      A                      A                      A
 Frequencies --   1086.5670              1103.5332              1112.8449
 Red. masses --      2.8298                 2.0079                 3.1146
 Frc consts  --      1.9684                 1.4406                 2.2726
 IR Inten    --     20.2109                20.7631                26.9016

                     43                     44                     45
                      A                      A                      A
 Frequencies --   1149.4763              1170.9928              1207.5133
 Red. masses --      2.0649                 1.5881                 1.4095
 Frc consts  --      1.6075                 1.2830                 1.2108
 IR Inten    --      7.4081                 9.3411                16.8299

                     46                     47                     48
                      A                      A                      A
 Frequencies --   1213.3367              1227.7132              1242.6919
 Red. masses --      1.1316                 1.9549                 1.4227
 Frc consts  --      0.9815                 1.7361                 1.2944
 IR Inten    --     17.2283                 5.2537                10.3796

                     49                     50                     51
                      A                      A                      A
 Frequencies --   1251.0553              1276.2769              1324.7472
 Red. masses --      1.6585                 1.7014                 1.7704
 Frc consts  --      1.5294                 1.6329                 1.8305
 IR Inten    --      4.5235                 0.2973                 2.3077

                     52                     53                     54
                      A                      A                      A
 Frequencies --   1339.2626              1360.3353              1368.3029
 Red. masses --      1.2758                 1.3428                 1.3030
 Frc consts  --      1.3482                 1.4640                 1.4373
 IR Inten    --      1.1672                 1.8792                 3.0096

                     55                     56                     57
                      A                      A                      A
 Frequencies --   1393.7019              1396.7626              1405.9576
 Red. masses --      1.4026                 1.5657                 1.2460
 Frc consts  --      1.6052                 1.7997                 1.4511
 IR Inten    --      5.1655                 0.7914                15.8239

                     58                     59                     60
                      A                      A                      A
 Frequencies --   1407.8268              1426.1510              1427.7926
 Red. masses --      1.5202                 1.2694                 1.2481
 Frc consts  --      1.7753                 1.5212                 1.4991
 IR Inten    --      0.4902                10.7940                 4.2553

                     61                     62                     63
                      A                      A                      A
 Frequencies --   1439.6288              1442.1123              1452.6369
 Red. masses --      1.2506                 1.2759                 1.2492
 Frc consts  --      1.5271                 1.5633                 1.5531
 IR Inten    --     65.1725                49.6048                 8.8313

                     64                     65                     66
                      A                      A                      A
 Frequencies --   1495.3685              1507.6545              1515.2061
 Red. masses --      1.0877                 1.0808                 1.0742
 Frc consts  --      1.4331                 1.4474                 1.4530
 IR Inten    --      6.9029                 4.8898                 1.3355

                     67                     68                     69
                      A                      A                      A
 Frequencies --   1526.0684              1532.2784              1538.6678
 Red. masses --      1.0662                 1.0640                 1.0655
 Frc consts  --      1.4630                 1.4719                 1.4862
 IR Inten    --      3.1839                 0.9782                 0.3313

                     70                     71                     72
                      A                      A                      A
 Frequencies --   1543.8551              1551.7178              1555.9947
 Red. masses --      1.0852                 1.0563                 1.0707
 Frc consts  --      1.5240                 1.4985                 1.5274
 IR Inten    --      4.3889                 4.7644                 5.0471

                     73                     74                     75
                      A                      A                      A
 Frequencies --   1734.8292              2975.3429              3012.8800
 Red. masses --      7.2237                 1.0809                 1.0700
 Frc consts  --     12.8093                 5.6377                 5.7225
 IR Inten    --      4.8407                19.4783                72.7557

                     76                     77                     78
                      A                      A                      A
 Frequencies --   3019.1852              3019.5276              3030.2245
 Red. masses --      1.0698                 1.0688                 1.0593
 Frc consts  --      5.7456                 5.7416                 5.7308
 IR Inten    --     34.2670                39.7867                14.2851

                     79                     80                     81
                      A                      A                      A
 Frequencies --   3040.4554              3052.1477              3058.1915
 Red. masses --      1.0440                 1.0400                 1.0900
 Frc consts  --      5.6862                 5.7079                 6.0064
 IR Inten    --     45.7595                13.1701                45.0700

                     82                     83                     84
                      A                      A                      A
 Frequencies --   3070.7457              3073.7402              3092.3430
 Red. masses --      1.0732                 1.1011                 1.0945
 Frc consts  --      5.9621                 6.1296                 6.1663
 IR Inten    --     13.4299                42.7949                28.3396

                     85                     86                     87
                      A                      A                      A
 Frequencies --   3095.5160              3097.6804              3115.0475
 Red. masses --      1.0940                 1.0980                 1.0993
 Frc consts  --      6.1764                 6.2077                 6.2850
 IR Inten    --     51.5117                38.3040                34.4234

                     88                     89                     90
                      A                      A                      A
 Frequencies --   3129.3887              3141.5462              3143.0215
 Red. masses --      1.1014                 1.0894                 1.0941
 Frc consts  --      6.3551                 6.3345                 6.3678
 IR Inten    --     21.7756                40.3411                25.4805

                     91                     92                     93
                      A                      A                      A
 Frequencies --   3145.7415              3736.5672              3764.0019
 Red. masses --      1.0937                 1.0661                 1.0654
 Frc consts  --      6.3767                 8.7697                 8.8932
 IR Inten    --     20.8439                 8.2676                13.6276

 - Thermochemistry -
 -------------------
 Temperature   298.150 Kelvin.  Pressure   1.00000 Atm.
 Atom     1 has atomic number  6 and mass  12.00000

 Molecular mass:   184.14633 amu.
 Principal axes and moments of inertia in atomic units:
                           1         2         3
     Eigenvalues --  2131.027452386.278223805.09529
           X            0.99948  -0.03080   0.00985
           Y            0.03082   0.99952  -0.00201
           Z           -0.00978   0.00231   0.99995
 This molecule is an asymmetric top.
 Rotational symmetry number  1.
 Warning -- assumption of classical behavior for rotation
           may cause significant error
 Rotational temperatures (Kelvin)      0.04064     0.03630     0.02276
 Rotational constants (GHZ):           0.84689     0.75630     0.47430
 Zero-point vibrational energy     786704.0 (Joules/Mol)
                                  188.02677 (Kcal/Mol)
 Warning -- explicit consideration of  23 degrees of freedom as
           vibrations may cause significant error
 Vibrational temperatures:     69.37   124.36   160.95   190.94   250.63
          (Kelvin)            304.35   338.03   373.39   386.45   407.69
                              428.56   442.96   463.27   482.12   505.23
                              522.85   557.87   627.98   641.39   693.66
                              772.20   797.76   829.02   991.34  1017.98
                             1158.22  1232.39  1252.92  1307.58  1310.25
                             1342.58  1374.91  1384.37  1409.50  1444.47
                             1465.25  1498.95  1530.81  1538.21  1563.33
                             1587.74  1601.14  1653.84  1684.80  1737.34
                             1745.72  1766.41  1787.96  1799.99  1836.28
                             1906.02  1926.90  1957.22  1968.68  2005.23
                             2009.63  2022.86  2025.55  2051.91  2054.28
                             2071.30  2074.88  2090.02  2151.50  2169.18
                             2180.04  2195.67  2204.61  2213.80  2221.26
                             2232.58  2238.73  2496.03  4280.85  4334.86
                             4343.93  4344.43  4359.82  4374.54  4391.36
                             4400.06  4418.12  4422.43  4449.19  4453.76
                             4456.87  4481.86  4502.49  4519.98  4522.11
                             4526.02  5376.09  5415.56

 Zero-point correction=                           0.299640 (Hartree/Particle)
 Thermal correction to Energy=                    0.313664
 Thermal correction to Enthalpy=                  0.314608
 Thermal correction to Gibbs Free Energy=         0.260277
 Sum of electronic and zero-point Energies=           -581.381894
 Sum of electronic and thermal Energies=              -581.367870
 Sum of electronic and thermal Enthalpies=            -581.366926
 Sum of electronic and thermal Free Energies=         -581.421257

                     E (Thermal)             CV                S
                      KCal/Mol        Cal/Mol-Kelvin    Cal/Mol-Kelvin
 Total                  196.827             55.257            114.348
 Electronic               0.000              0.000              0.000
 Translational            0.889              2.981             41.538
 Rotational               0.889              2.981             31.337
 Vibrational            195.049             49.295             41.473
 Vibration     1          0.595              1.978              4.889
 Vibration     2          0.601              1.959              3.739
 Vibration     3          0.607              1.940              3.236
 Vibration     4          0.613              1.921              2.906
 Vibration     5          0.627              1.874              2.390
 Vibration     6          0.643              1.823              2.030
 Vibration     7          0.655              1.787              1.841
 Vibration     8          0.668              1.747              1.665
 Vibration     9          0.673              1.731              1.605
 Vibration    10          0.682              1.704              1.513
 Vibration    11          0.691              1.678              1.429
 Vibration    12          0.698              1.659              1.374
 Vibration    13          0.707              1.631              1.300
 Vibration    14          0.716              1.605              1.235
 Vibration    15          0.728              1.573              1.161
 Vibration    16          0.737              1.548              1.108
 Vibration    17          0.756              1.496              1.009
 Vibration    18          0.797              1.391              0.838
 Vibration    19          0.805              1.370              0.809
 Vibration    20          0.838              1.290              0.704
 Vibration    21          0.892              1.169              0.572
 Vibration    22          0.910              1.130              0.535
 Vibration    23          0.933              1.083              0.492

                           ! Non-Optimized Parameters !
 Normal termination of Gaussian 16 at Mon Dec 14 13:25:06 2020.

 ----------------------------------------------------------------------
 # B3LYP/6-311++G(d,p) empiricaldispersion=gd3bj scf=xqc pop=npa geom=c
 heck
 ----------------------------------------------------------------------

 ---------------------------------------
 CID_130128838_JID_3905_Energie_neutraal
 ---------------------------------------
 Structure from the checkpoint file:  "JID_3905.chk"
 Charge =  0 Multiplicity = 1

 SCF Done:  E(RB3LYP) =  -581.864910764     A.U. after   14 cycles
 Normal termination of Gaussian 16 at Mon Dec 14 13:29:48 2020.

 ----------------------------------------------------------------------
 # B3LYP/6-311++G(d,p) empiricaldispersion=gd3bj scf=xqc pop=npa geom=c
 heck
 ----------------------------------------------------------------------

 -------------------------------------
 CID_130128838_JID_3905_Energie_kation
 -------------------------------------
 Structure from the checkpoint file:  "JID_3905.chk"
 Charge =  1 Multiplicity = 2

 SCF Done:  E(UB3LYP) =  -581.543452152     A.U. after   24 cycles
 Normal termination of Gaussian 16 at Mon Dec 14 13:41:10 2020.
 Gaussian 16:  ES64L-G16RevA.03 25-Dec-2016

 ----------------------------------------------------------------------
 # B3LYP/6-311++G(d,p) empiricaldispersion=gd3bj scf=xqc pop=npa geom=c
 heck
 ----------------------------------------------------------------------

 ------------------------------------
 CID_130128838_JID_3905_Energie_anion
 ------------------------------------
 Structure from the checkpoint file:  "JID_3905.chk"
 Charge = -1 Multiplicity = 2

                         Standard orientation:
 ---------------------------------------------------------------------
 Center     Atomic      Atomic             Coordinates (Angstroms)
 Number     Number       Type             X           Y           Z
 ---------------------------------------------------------------------
      1          6           0        0.352502   -1.507427    1.616168
      2          6           0        0.366623   -1.340531    0.086104
      3          6           0       -0.760253   -2.199323   -0.530979
      4          6           0       -2.153129   -1.787103   -0.061824
      5          6           0       -2.329290   -0.307520   -0.226539
      6          6           0       -1.317075    0.560701   -0.367333
      7          6           0        0.159043    0.158178   -0.325820
      8          6           0        0.959849    1.194402    0.507090
      9          6           0        2.487610    1.106256    0.449516
     10          8           0        3.006284    1.123854   -0.876042
     11          6           0       -1.665672    2.014229   -0.612588
     12          8           0       -1.583955    2.830815    0.560096
     13          6           0        1.686087   -1.905218   -0.476083
     14          1           0        1.240981   -1.067913    2.079185
     15          1           0       -0.524479   -1.030691    2.065731
     16          1           0        0.333342   -2.570871    1.883025
     17          1           0       -0.715594   -2.103669   -1.624550
     18          1           0       -0.575026   -3.255306   -0.297003
     19          1           0       -2.919776   -2.317218   -0.641811
     20          1           0       -2.317207   -2.084849    0.984619
     21          1           0       -3.350954    0.069738   -0.280948
     22          1           0        0.520770    0.259602   -1.363063
     23          1           0        0.685180    2.191522    0.160235
     24          1           0        0.644405    1.153165    1.556346
     25          1           0        2.904542    1.994896    0.934384
     26          1           0        2.863337    0.238655    1.010857
     27          1           0        2.777104    0.278381   -1.289463
     28          1           0       -0.974561    2.468956   -1.330428
     29          1           0       -2.675113    2.072425   -1.046330
     30          1           0       -2.071345    2.358470    1.253319
     31          1           0        1.723839   -1.796937   -1.568145
     32          1           0        2.575483   -1.438266   -0.046553
     33          1           0        1.758671   -2.977300   -0.258108
 ---------------------------------------------------------------------

 SCF Done:  E(UB3LYP) =  -581.852786008     A.U. after   31 cycles

 The electronic state is 2-A.
 Alpha  occ. eigenvalues --  -19.02739 -19.02154 -10.11855 -10.11625 -10.08443
 Alpha  occ. eigenvalues --  -10.08083 -10.07206 -10.06500 -10.06354 -10.06333
 Alpha  occ. eigenvalues --  -10.06170 -10.05936 -10.05395  -0.92828  -0.92142
 Alpha  occ. eigenvalues --   -0.75257  -0.68742  -0.67769  -0.63318  -0.58934
 Alpha  occ. eigenvalues --   -0.58491  -0.56893  -0.52915  -0.48906  -0.45683
 Alpha  occ. eigenvalues --   -0.42069  -0.40840  -0.40412  -0.36981  -0.36436
 Alpha  occ. eigenvalues --   -0.35720  -0.34457  -0.34105  -0.33038  -0.31750
 Alpha  occ. eigenvalues --   -0.31022  -0.29859  -0.29053  -0.27406  -0.26773
 Alpha  occ. eigenvalues --   -0.26757  -0.25884  -0.25056  -0.24230  -0.23398
 Alpha  occ. eigenvalues --   -0.21793  -0.21078  -0.19911  -0.18815  -0.16859
 Alpha  occ. eigenvalues --   -0.14453   0.04388
 Alpha virt. eigenvalues --    0.06856   0.07355   0.07664   0.08847   0.09265
 Alpha virt. eigenvalues --    0.09327   0.09784   0.10126   0.10777   0.11658
 Alpha virt. eigenvalues --    0.12055   0.12273   0.12526   0.13216   0.13413

  Beta  occ. eigenvalues --  -19.02725 -19.02132 -10.11846 -10.11610 -10.08443
  Beta  occ. eigenvalues --  -10.08072 -10.07205 -10.06456 -10.06331 -10.06326
  Beta  occ. eigenvalues --  -10.06136 -10.05912 -10.05357  -0.92799  -0.92088
  Beta  occ. eigenvalues --   -0.75228  -0.68697  -0.67734  -0.63277  -0.58865
  Beta  occ. eigenvalues --   -0.58445  -0.56828  -0.52867  -0.48860  -0.45620
  Beta  occ. eigenvalues --   -0.42040  -0.40790  -0.40354  -0.36932  -0.36400
  Beta  occ. eigenvalues --   -0.35690  -0.34407  -0.34064  -0.33005  -0.31713
  Beta  occ. eigenvalues --   -0.30986  -0.29824  -0.29011  -0.27375  -0.26739
  Beta  occ. eigenvalues --   -0.26723  -0.25844  -0.25021  -0.24200  -0.23375
  Beta  occ. eigenvalues --   -0.21757  -0.21039  -0.19881  -0.18790  -0.16829
  Beta  occ. eigenvalues --   -0.14358
  Beta virt. eigenvalues --    0.06697   0.07757   0.07890   0.08262   0.09234
  Beta virt. eigenvalues --    0.09697   0.09868   0.10223   0.10520   0.10995
  Beta virt. eigenvalues --    0.11965   0.12417   0.12662   0.12965   0.13571

 Mulliken charges and spin densities:
               1          2
     1  C    1.049309  -1.891034
     2  C   -1.537937   2.548011
     3  C   -0.190016  -0.198621
     4  C    0.996264  -1.618996
     5  C    2.109968  -2.242797
     6  C   -1.728371   2.195902
     7  C   -0.848551   0.339269
     8  C   -0.005072  -0.056028
     9  C   -0.061364  -0.702392
    10  O   -0.231347   0.018269
    11  C    0.787451  -1.519831
    12  O   -0.180743   0.031270
    13  C    0.716651  -1.218111
    14  H    0.048167   0.073841
    15  H   -0.016131   0.183335
    16  H   -0.392571   0.562926
    17  H   -0.092167   0.236086
    18  H   -0.143790   0.302161
    19  H   -0.365420   0.547382
    20  H   -0.231107   0.393601
    21  H   -0.713636   0.880964
    22  H    0.077737   0.126818
    23  H    0.239880  -0.006750
    24  H    0.029725   0.135693
    25  H    0.114265   0.049435
    26  H    0.018585   0.133511
    27  H    0.150628   0.101110
    28  H    0.093601   0.077990
    29  H   -0.168614   0.320429
    30  H    0.057788   0.178454
    31  H   -0.304604   0.455034
    32  H    0.069992   0.033980
    33  H   -0.348568   0.529093
 Sum of Mulliken charges =  -1.00000   1.00000

 Dipole moment (field-independent basis, Debye):
    X=              2.8886    Y=              2.7606    Z=              0.1143  Tot=              3.9973
 Quadrupole moment (field-independent basis, Debye-Ang):
   XX=           -140.7633   YY=           -140.8164   ZZ=           -116.6918
   XY=              0.5575   XZ=              2.8177   YZ=              2.0708

 Summary of Natural Population Analysis:

                                       Natural Population
                Natural  -----------------------------------------------
    Atom  No    Charge         Core      Valence    Rydberg      Total
 -----------------------------------------------------------------------
      C    1   -0.29109      0.99962     2.28313    0.00834     3.29109
      C    2   -0.04349      0.99957     2.02888    0.01505     3.04349
      C    3   -0.18374      0.99960     2.17348    0.01066     3.18374
      C    4   -0.20884      0.99961     2.19945    0.00978     3.20884
      C    5   -0.07416      0.99945     2.06410    0.01061     3.07416
      C    6   -0.02718      0.99945     2.01573    0.01199     3.02718
      C    7   -0.11842      0.99951     2.10544    0.01347     3.11842
      C    8   -0.20430      0.99960     2.19634    0.00836     3.20430
      C    9   -0.00774      0.99959     1.99708    0.01107     3.00774
      O   10   -0.37242      0.99990     3.36590    0.00662     4.37242
      C   11   -0.02276      0.99954     2.00940    0.01382     3.02276
      O   12   -0.37046      0.99990     3.36425    0.00631     4.37046
      C   13   -0.28957      0.99962     2.28098    0.00897     3.28957
      H   14    0.09810      0.00000     0.40082    0.00109     0.40190
      H   15    0.10436      0.00000     0.39428    0.00137     0.39564
      H   16    0.10347      0.00000     0.39524    0.00129     0.39653
      H   17    0.09843      0.00000     0.40007    0.00150     0.40157
      H   18    0.10176      0.00000     0.39666    0.00158     0.39824
      H   19    0.10423      0.00000     0.39451    0.00126     0.39577
      H   20    0.10531      0.00000     0.39257    0.00212     0.39469
      H   21    0.09706      0.00000     0.40076    0.00217     0.40294
      H   22    0.10190      0.00000     0.39607    0.00202     0.39810
      H   23    0.10794      0.00000     0.39036    0.00169     0.39206
      H   24    0.10256      0.00000     0.39624    0.00119     0.39744
      H   25    0.08488      0.00000     0.41397    0.00115     0.41512
      H   26    0.07408      0.00000     0.42450    0.00142     0.42592
      H   27    0.23071      0.00000     0.26629    0.00300     0.26929
      H   28    0.08671      0.00000     0.41195    0.00135     0.41329
      H   29    0.08272      0.00000     0.41578    0.00151     0.41728
      H   30    0.22877      0.00000     0.26756    0.00367     0.27123
      H   31    0.09870      0.00000     0.39997    0.00133     0.40130
      H   32    0.09620      0.00000     0.40251    0.00129     0.40380
      H   33    0.10629      0.00000     0.39241    0.00130     0.39371
 =======================================================================
   * Total *   -0.00000     12.99495    37.83668    0.16837    51.00000

 Normal termination of Gaussian 16 at Mon Dec 14 13:55:19 2020.
