 Gaussian 16, Revision A.03,

 -----------------------------------------------------------
 # opt freq B3LYP/6-31G(d) empiricaldispersion=gd3bj scf=xqc
 -----------------------------------------------------------

 -------------------------------
 CID_112429971_JID_6689_neutraal
 -------------------------------
 Symbolic Z-matrix:
 Charge =  0 Multiplicity = 1

 SCF Done:  E(RB3LYP) =  -1071.92359404     A.U. after   13 cycles
 SCF Done:  E(RB3LYP) =  -1071.93079408     A.U. after   12 cycles
 SCF Done:  E(RB3LYP) =  -1071.93192407     A.U. after   12 cycles
 SCF Done:  E(RB3LYP) =  -1071.93233632     A.U. after   11 cycles
 SCF Done:  E(RB3LYP) =  -1071.93251110     A.U. after   11 cycles
 SCF Done:  E(RB3LYP) =  -1071.93267102     A.U. after   11 cycles
 SCF Done:  E(RB3LYP) =  -1071.93280584     A.U. after   11 cycles
 SCF Done:  E(RB3LYP) =  -1071.93275902     A.U. after   10 cycles
 SCF Done:  E(RB3LYP) =  -1071.93316060     A.U. after   11 cycles
 SCF Done:  E(RB3LYP) =  -1071.93351813     A.U. after   14 cycles
 SCF Done:  E(RB3LYP) =  -1071.94064319     A.U. after    7 cycles
 SCF Done:  E(RB3LYP) =  -1071.94064370     A.U. after    7 cycles
 SCF Done:  E(RB3LYP) =  -1071.94064403     A.U. after    8 cycles
 SCF Done:  E(RB3LYP) =  -1071.94064420     A.U. after    8 cycles
 SCF Done:  E(RB3LYP) =  -1071.94064427     A.U. after    7 cycles
 SCF Done:  E(RB3LYP) =  -1071.94064429     A.U. after    6 cycles
 Optimization completed.
    -- Stationary point found.
 Normal termination of Gaussian 16 at Thu Dec 10 23:22:32 2020.

 --------------------------------------------------------------------
 #N Geom=AllCheck Guess=TCheck SCRF=Check GenChk RB3LYP/6-31G(d) Freq
 --------------------------------------------------------------------

 Structure from the checkpoint file:  "JID_6689.chk"
 -------------------------------
 CID_112429971_JID_6689_neutraal
 -------------------------------
 Charge =  0 Multiplicity = 1

 SCF Done:  E(RB3LYP) =  -1071.94064429     A.U. after    1 cycles

  Exact polarizability: 203.884   2.900 163.566   1.786   5.667 125.545
 Approx polarizability: 244.251   2.754 221.585   4.580  12.207 192.769

                      1                      2                      3
                      A                      A                      A
 Frequencies --     16.9479                20.7767                25.9452
 Red. masses --      4.0017                 3.2017                 4.2963
 Frc consts  --      0.0007                 0.0008                 0.0017
 IR Inten    --      0.1514                 0.1596                 0.2424

                      4                      5                      6
                      A                      A                      A
 Frequencies --     35.2810                43.5183                58.4275
 Red. masses --      3.5066                 2.9165                 2.8413
 Frc consts  --      0.0026                 0.0033                 0.0057
 IR Inten    --      0.3676                 0.0122                 1.1940

                      7                      8                      9
                      A                      A                      A
 Frequencies --     79.8124                81.3044               100.8356
 Red. masses --      3.5349                 2.4058                 2.7360
 Frc consts  --      0.0133                 0.0094                 0.0164
 IR Inten    --      0.9723                 0.4691                 8.8709

                     10                     11                     12
                      A                      A                      A
 Frequencies --    109.5386               147.1976               166.6042
 Red. masses --      2.5181                 1.8899                 1.6151
 Frc consts  --      0.0178                 0.0241                 0.0264
 IR Inten    --      2.5656                 0.7730                 0.6829

                     13                     14                     15
                      A                      A                      A
 Frequencies --    186.8390               200.6823               223.1504
 Red. masses --      2.2793                 2.2109                 1.9476
 Frc consts  --      0.0469                 0.0525                 0.0571
 IR Inten    --      2.9622                 0.4883                 1.8890

                     16                     17                     18
                      A                      A                      A
 Frequencies --    235.4179               249.5673               257.1923
 Red. masses --      1.5719                 1.8999                 2.4719
 Frc consts  --      0.0513                 0.0697                 0.0963
 IR Inten    --      0.3691                 7.8096                 1.7033

                     19                     20                     21
                      A                      A                      A
 Frequencies --    260.9342               271.2974               303.2519
 Red. masses --      1.1581                 2.5251                 2.6377
 Frc consts  --      0.0465                 0.1095                 0.1429
 IR Inten    --      0.5920                 1.4608                 0.7410

                     22                     23                     24
                      A                      A                      A
 Frequencies --    314.7532               343.1938               368.7361
 Red. masses --      2.5378                 2.3708                 3.0272
 Frc consts  --      0.1481                 0.1645                 0.2425
 IR Inten    --      4.1339                 2.5915                 2.5845

                     25                     26                     27
                      A                      A                      A
 Frequencies --    389.2496               417.1637               465.3467
 Red. masses --      2.9441                 2.8870                 2.4350
 Frc consts  --      0.2628                 0.2960                 0.3107
 IR Inten    --      3.6437                 1.6317                 2.9997

                     28                     29                     30
                      A                      A                      A
 Frequencies --    533.2151               557.1256               602.3833
 Red. masses --      3.2920                 2.1266                 2.1751
 Frc consts  --      0.5515                 0.3889                 0.4650
 IR Inten    --      2.4726                27.3626                37.2789

                     31                     32                     33
                      A                      A                      A
 Frequencies --    641.0107               691.4749               728.9872
 Red. masses --      2.2659                 3.1341                 4.4628
 Frc consts  --      0.5485                 0.8829                 1.3973
 IR Inten    --     30.8054                35.6539                11.2247

                     34                     35                     36
                      A                      A                      A
 Frequencies --    741.4887               771.1943               799.0571
 Red. masses --      3.6930                 1.8564                 1.1889
 Frc consts  --      1.1963                 0.6505                 0.4473
 IR Inten    --     10.0015                 3.5280                16.5620

                     37                     38                     39
                      A                      A                      A
 Frequencies --    825.1249               877.7606               898.3601
 Red. masses --      1.6836                 1.8369                 2.6864
 Frc consts  --      0.6754                 0.8338                 1.2774
 IR Inten    --     61.7000                10.2425                 2.0913

                     40                     41                     42
                      A                      A                      A
 Frequencies --    907.9028               938.8146               955.9635
 Red. masses --      2.5622                 1.3808                 2.0094
 Frc consts  --      1.2443                 0.7170                 1.0819
 IR Inten    --      0.8593                 1.9782                14.2092

                     43                     44                     45
                      A                      A                      A
 Frequencies --    975.7922               982.0907               985.9177
 Red. masses --      2.2758                 1.2392                 1.1882
 Frc consts  --      1.2768                 0.7042                 0.6805
 IR Inten    --      7.6163                 9.1254                 5.2758

                     46                     47                     48
                      A                      A                      A
 Frequencies --   1010.1366              1055.1339              1075.1457
 Red. masses --      2.2082                 1.7055                 2.9362
 Frc consts  --      1.3275                 1.1187                 1.9998
 IR Inten    --     16.8226                81.7424                17.2929

                     49                     50                     51
                      A                      A                      A
 Frequencies --   1077.0426              1108.4060              1124.3093
 Red. masses --      2.2201                 2.1497                 2.0835
 Frc consts  --      1.5174                 1.5561                 1.5517
 IR Inten    --     19.9252                29.2301                 8.8000

                     52                     53                     54
                      A                      A                      A
 Frequencies --   1133.0125              1143.3422              1156.7659
 Red. masses --      2.3304                 1.8919                 1.9450
 Frc consts  --      1.7626                 1.4572                 1.5334
 IR Inten    --      1.5227                 3.2180                 3.7299

                     55                     56                     57
                      A                      A                      A
 Frequencies --   1163.9711              1168.9183              1185.8419
 Red. masses --      2.2888                 4.5686                 2.3407
 Frc consts  --      1.8270                 3.6779                 1.9394
 IR Inten    --     39.8592               177.4846                43.8193

                     58                     59                     60
                      A                      A                      A
 Frequencies --   1194.9202              1225.4643              1258.4803
 Red. masses --      1.2859                 1.5351                 1.2874
 Frc consts  --      1.0818                 1.3583                 1.2013
 IR Inten    --      2.6399                40.7273                17.9442

                     61                     62                     63
                      A                      A                      A
 Frequencies --   1270.5667              1274.4720              1296.3500
 Red. masses --      1.2752                 1.3515                 1.1847
 Frc consts  --      1.2129                 1.2934                 1.1730
 IR Inten    --     31.0855                21.6215                 9.8238

                     64                     65                     66
                      A                      A                      A
 Frequencies --   1317.1756              1328.0470              1361.3903
 Red. masses --      1.1668                 1.1331                 1.2753
 Frc consts  --      1.1927                 1.1775                 1.3926
 IR Inten    --     16.6177                13.8956                11.1319

                     67                     68                     69
                      A                      A                      A
 Frequencies --   1383.7150              1386.1214              1395.1926
 Red. masses --      1.4644                 1.1844                 1.3107
 Frc consts  --      1.6520                 1.3408                 1.5032
 IR Inten    --     82.2433                 9.1095                60.5636

                     70                     71                     72
                      A                      A                      A
 Frequencies --   1406.1920              1409.3263              1428.1897
 Red. masses --      1.3675                 1.4537                 1.2494
 Frc consts  --      1.5932                 1.7012                 1.5015
 IR Inten    --     28.2941                17.6391                20.9261

                     73                     74                     75
                      A                      A                      A
 Frequencies --   1439.7085              1442.7117              1458.8251
 Red. masses --      1.4464                 1.2829                 2.1916
 Frc consts  --      1.7664                 1.5732                 2.7479
 IR Inten    --     15.8170                23.3734               103.5252

                     76                     77                     78
                      A                      A                      A
 Frequencies --   1477.8286              1499.2279              1500.6038
 Red. masses --      1.4842                 1.2940                 1.0537
 Frc consts  --      1.9098                 1.7137                 1.3979
 IR Inten    --     48.4891                23.5031                 4.4543

                     79                     80                     81
                      A                      A                      A
 Frequencies --   1503.6161              1504.2485              1512.9642
 Red. masses --      1.1528                 1.1247                 1.0738
 Frc consts  --      1.5357                 1.4994                 1.4482
 IR Inten    --      2.4081                 1.4521                13.3533

                     82                     83                     84
                      A                      A                      A
 Frequencies --   1515.1268              1515.4076              1523.0654
 Red. masses --      1.0483                 1.0545                 1.0528
 Frc consts  --      1.4179                 1.4267                 1.4389
 IR Inten    --      1.3411                22.2484                 0.3865

                     85                     86                     87
                      A                      A                      A
 Frequencies --   1524.9497              1526.4759              1532.8529
 Red. masses --      1.0813                 1.0932                 1.0592
 Frc consts  --      1.4816                 1.5008                 1.4663
 IR Inten    --      8.1217                 7.5042                 9.3057

                     88                     89                     90
                      A                      A                      A
 Frequencies --   1536.9334              1537.9083              1545.8534
 Red. masses --      1.0839                 1.0489                 1.0946
 Frc consts  --      1.5085                 1.4617                 1.5411
 IR Inten    --      6.1091                 3.2391                 4.1907

                     91                     92                     93
                      A                      A                      A
 Frequencies --   1560.3103              1737.8763              2940.0555
 Red. masses --      1.0889                 4.9461                 1.0667
 Frc consts  --      1.5620                 8.8013                 5.4327
 IR Inten    --      3.4400               722.4231                48.9883

                     94                     95                     96
                      A                      A                      A
 Frequencies --   2982.8679              2995.1387              3007.8551
 Red. masses --      1.0486                 1.0448                 1.0757
 Frc consts  --      5.4969                 5.5223                 5.7339
 IR Inten    --     25.5217                92.9089                41.1071

                     97                     98                     99
                      A                      A                      A
 Frequencies --   3010.4676              3017.0960              3034.9076
 Red. masses --      1.0906                 1.1044                 1.1051
 Frc consts  --      5.8237                 5.9233                 5.9972
 IR Inten    --     49.6948                64.8524                62.1249

                    100                    101                    102
                      A                      A                      A
 Frequencies --   3049.1952              3049.6704              3052.9836
 Red. masses --      1.0629                 1.0378                 1.0678
 Frc consts  --      5.8226                 5.6870                 5.8641
 IR Inten    --     21.3929                37.4752                24.1265

                    103                    104                    105
                      A                      A                      A
 Frequencies --   3054.8106              3064.3064              3074.4980
 Red. masses --      1.0367                 1.0306                 1.0841
 Frc consts  --      5.7002                 5.7019                 6.0378
 IR Inten    --     11.5259                29.8462                11.7908

                    106                    107                    108
                      A                      A                      A
 Frequencies --   3093.4590              3111.0102              3122.4290
 Red. masses --      1.1019                 1.1006                 1.0991
 Frc consts  --      6.2127                 6.2758                 6.3134
 IR Inten    --     58.3700                20.3333                29.8997

                    109                    110                    111
                      A                      A                      A
 Frequencies --   3126.9506              3138.7139              3139.0111
 Red. masses --      1.1020                 1.0950                 1.0966
 Frc consts  --      6.3485                 6.3556                 6.3664
 IR Inten    --     40.3320                26.0585                22.8916

                    112                    113                    114
                      A                      A                      A
 Frequencies --   3141.5725              3143.6117              3149.5785
 Red. masses --      1.1038                 1.1067                 1.0910
 Frc consts  --      6.4185                 6.4438                 6.3767
 IR Inten    --     27.0448                10.3301                17.5442

                    115                    116                    117
                      A                      A                      A
 Frequencies --   3152.5124              3561.9698              3608.5059
 Red. masses --      1.1039                 1.0741                 1.0748
 Frc consts  --      6.4640                 8.0291                 8.2458
 IR Inten    --     10.3729                15.2301                 8.8202

 - Thermochemistry -
 -------------------
 Temperature   298.150 Kelvin.  Pressure   1.00000 Atm.
 Atom     1 has atomic number  6 and mass  12.00000

 Molecular mass:   247.17183 amu.
 Principal axes and moments of inertia in atomic units:
                           1         2         3
     Eigenvalues --  2948.265859757.41680**********
           X            0.99997  -0.00528  -0.00522
           Y            0.00523   0.99995  -0.00852
           Z            0.00526   0.00849   0.99995
 This molecule is an asymmetric top.
 Rotational symmetry number  1.
 Warning -- assumption of classical behavior for rotation
           may cause significant error
 Rotational temperatures (Kelvin)      0.02938     0.00888     0.00721
 Rotational constants (GHZ):           0.61214     0.18496     0.15014
 Zero-point vibrational energy     965051.0 (Joules/Mol)
                                  230.65273 (Kcal/Mol)
 Warning -- explicit consideration of  30 degrees of freedom as
           vibrations may cause significant error
 Vibrational temperatures:     24.38    29.89    37.33    50.76    62.61
          (Kelvin)             84.06   114.83   116.98   145.08   157.60
                              211.78   239.71   268.82   288.74   321.06
                              338.71   359.07   370.04   375.43   390.34
                              436.31   452.86   493.78   530.53   560.04
                              600.21   669.53   767.18   801.58   866.70
                              922.27   994.88  1048.85  1066.84  1109.58
                             1149.66  1187.17  1262.90  1292.54  1306.27
                             1350.74  1375.42  1403.95  1413.01  1418.52
                             1453.36  1518.10  1546.89  1549.62  1594.75
                             1617.63  1630.15  1645.01  1664.33  1674.69
                             1681.81  1706.16  1719.22  1763.17  1810.67
                             1828.06  1833.68  1865.16  1895.12  1910.76
                             1958.74  1990.86  1994.32  2007.37  2023.20
                             2027.71  2054.85  2071.42  2075.74  2098.92
                             2126.27  2157.05  2159.03  2163.37  2164.28
                             2176.82  2179.93  2180.33  2191.35  2194.06
                             2196.26  2205.43  2211.30  2212.71  2224.14
                             2244.94  2500.42  4230.08  4291.68  4309.34
                             4327.63  4331.39  4340.93  4366.56  4387.11
                             4387.80  4392.56  4395.19  4408.85  4423.52
                             4450.80  4476.05  4492.48  4498.98  4515.91
                             4516.34  4520.02  4522.96  4531.54  4535.76
                             5124.88  5191.84

 Zero-point correction=                           0.367569 (Hartree/Particle)
 Thermal correction to Energy=                    0.388483
 Thermal correction to Enthalpy=                  0.389427
 Thermal correction to Gibbs Free Energy=         0.313785
 Sum of electronic and zero-point Energies=          -1071.573076
 Sum of electronic and thermal Energies=             -1071.552162
 Sum of electronic and thermal Enthalpies=           -1071.551218
 Sum of electronic and thermal Free Energies=        -1071.626859

                     E (Thermal)             CV                S
                      KCal/Mol        Cal/Mol-Kelvin    Cal/Mol-Kelvin
 Total                  243.777             73.345            159.201
 Electronic               0.000              0.000              0.000
 Translational            0.889              2.981             42.415
 Rotational               0.889              2.981             34.202
 Vibrational            241.999             67.384             82.583
 Vibration     1          0.593              1.986              6.963
 Vibration     2          0.593              1.986              6.559
 Vibration     3          0.593              1.985              6.118
 Vibration     4          0.594              1.982              5.508
 Vibration     5          0.595              1.980              5.092
 Vibration     6          0.596              1.974              4.510
 Vibration     7          0.600              1.963              3.895
 Vibration     8          0.600              1.962              3.859
 Vibration     9          0.604              1.948              3.438
 Vibration    10          0.606              1.942              3.277
 Vibration    11          0.617              1.906              2.708
 Vibration    12          0.624              1.884              2.473
 Vibration    13          0.632              1.858              2.259
 Vibration    14          0.638              1.839              2.127
 Vibration    15          0.649              1.806              1.933
 Vibration    16          0.655              1.787              1.837
 Vibration    17          0.662              1.763              1.734
 Vibration    18          0.667              1.751              1.681
 Vibration    19          0.669              1.744              1.656
 Vibration    20          0.675              1.726              1.588
 Vibration    21          0.695              1.668              1.399
 Vibration    22          0.702              1.645              1.337
 Vibration    23          0.722              1.589              1.197
 Vibration    24          0.741              1.536              1.085
 Vibration    25          0.757              1.493              1.003
 Vibration    26          0.780              1.433              0.902
 Vibration    27          0.823              1.327              0.751
 Vibration    28          0.888              1.177              0.580
 Vibration    29          0.913              1.124              0.530
 Vibration    30          0.961              1.027              0.446

                           ! Non-Optimized Parameters !
 Normal termination of Gaussian 16 at Thu Dec 10 23:35:01 2020.

 ----------------------------------------------------------------------
 # B3LYP/6-311++G(d,p) empiricaldispersion=gd3bj scf=xqc pop=npa geom=c
 heck
 ----------------------------------------------------------------------

 ---------------------------------------
 CID_112429971_JID_6689_Energie_neutraal
 ---------------------------------------
 Structure from the checkpoint file:  "JID_6689.chk"
 Charge =  0 Multiplicity = 1

 SCF Done:  E(RB3LYP) =  -1072.16799475     A.U. after   13 cycles
 Normal termination of Gaussian 16 at Thu Dec 10 23:40:52 2020.

 ----------------------------------------------------------------------
 # B3LYP/6-311++G(d,p) empiricaldispersion=gd3bj scf=xqc pop=npa geom=c
 heck
 ----------------------------------------------------------------------

 -------------------------------------
 CID_112429971_JID_6689_Energie_kation
 -------------------------------------
 Structure from the checkpoint file:  "JID_6689.chk"
 Charge =  1 Multiplicity = 2

 SCF Done:  E(UB3LYP) =  -1071.89061270     A.U. after   25 cycles
 Normal termination of Gaussian 16 at Thu Dec 10 23:56:06 2020.
 Gaussian 16:  ES64L-G16RevA.03 25-Dec-2016

 ----------------------------------------------------------------------
 # B3LYP/6-311++G(d,p) empiricaldispersion=gd3bj scf=xqc pop=npa geom=c
 heck
 ----------------------------------------------------------------------

 ------------------------------------
 CID_112429971_JID_6689_Energie_anion
 ------------------------------------
 Structure from the checkpoint file:  "JID_6689.chk"
 Charge = -1 Multiplicity = 2

                         Standard orientation:
 ---------------------------------------------------------------------
 Center     Atomic      Atomic             Coordinates (Angstroms)
 Number     Number       Type             X           Y           Z
 ---------------------------------------------------------------------
      1          6           0        1.181258    4.026865    0.137516
      2          6           0        0.738645    2.695836    0.740123
      3          7           0        0.065435    1.847425   -0.246270
      4          6           0        0.225119    0.467020   -0.290873
      5          7           0       -0.697720   -0.399897   -0.517989
      6          6           0       -2.082465    0.029513   -0.529645
      7          6           0       -2.999702   -1.185525   -0.325379
      8          6           0       -2.727050   -1.899504    0.996002
      9         16           0       -4.776706   -0.748873   -0.570629
     10          6           0       -5.143398    0.253820    0.912620
     11          7           0        1.528919    0.020059   -0.065813
     12          6           0        2.638595    0.548820   -0.871928
     13          6           0        3.949178    0.582159   -0.078543
     14          6           0        4.240258   -0.736608    0.626780
     15          8           0        4.119246   -1.790730   -0.314322
     16          6           0        4.358704   -3.058212    0.257581
     17          1           0        1.887821    3.867642   -0.683672
     18          1           0        1.663639    4.652698    0.896908
     19          1           0        0.325432    4.584210   -0.261334
     20          1           0        1.595394    2.137625    1.120542
     21          1           0        0.076211    2.877446    1.600415
     22          1           0       -0.874772    2.145219   -0.468424
     23          1           0       -2.299236    0.772159    0.261193
     24          1           0       -2.348591    0.500872   -1.488507
     25          1           0       -2.810079   -1.882682   -1.149626
     26          1           0       -2.916878   -1.240533    1.851301
     27          1           0       -3.352729   -2.790587    1.101593
     28          1           0       -1.672706   -2.190011    1.029279
     29          1           0       -5.060850   -0.333912    1.830475
     30          1           0       -4.498442    1.134071    0.981601
     31          1           0       -6.178206    0.589421    0.805414
     32          1           0        1.517388   -0.994788   -0.075199
     33          1           0        2.775250   -0.066114   -1.770056
     34          1           0        2.375884    1.554634   -1.205576
     35          1           0        4.769035    0.825802   -0.765186
     36          1           0        3.912181    1.371107    0.683672
     37          1           0        5.251463   -0.727099    1.066370
     38          1           0        3.522335   -0.885217    1.449219
     39          1           0        5.383447   -3.136934    0.654560
     40          1           0        3.654331   -3.274046    1.077091
     41          1           0        4.224715   -3.801376   -0.532437
 ---------------------------------------------------------------------

 SCF Done:  E(UB3LYP) =  -1072.15815789     A.U. after   31 cycles

 The electronic state is 2-A.
 Alpha  occ. eigenvalues --  -88.74431 -19.04588 -14.23365 -14.22340 -14.17992
 Alpha  occ. eigenvalues --  -10.16918 -10.13131 -10.13015 -10.11161 -10.11077
 Alpha  occ. eigenvalues --  -10.11040 -10.10081 -10.10040 -10.08433 -10.07222
 Alpha  occ. eigenvalues --  -10.06985  -7.83040  -5.79445  -5.79068  -5.78404
 Alpha  occ. eigenvalues --   -0.95866  -0.89021  -0.80543  -0.78691  -0.72252
 Alpha  occ. eigenvalues --   -0.69511  -0.66168  -0.65038  -0.62134  -0.59350
 Alpha  occ. eigenvalues --   -0.57033  -0.55456  -0.53481  -0.51016  -0.49655
 Alpha  occ. eigenvalues --   -0.46504  -0.42414  -0.41681  -0.41006  -0.39655
 Alpha  occ. eigenvalues --   -0.38150  -0.37711  -0.37410  -0.37019  -0.34985
 Alpha  occ. eigenvalues --   -0.34879  -0.33777  -0.33270  -0.33019  -0.31568
 Alpha  occ. eigenvalues --   -0.31145  -0.30640  -0.29861  -0.28989  -0.28823
 Alpha  occ. eigenvalues --   -0.27743  -0.26761  -0.26399  -0.25900  -0.25207
 Alpha  occ. eigenvalues --   -0.24456  -0.23664  -0.21201  -0.18363  -0.16253
 Alpha  occ. eigenvalues --   -0.15825  -0.13356  -0.13095   0.03772
 Alpha virt. eigenvalues --    0.05130   0.06046   0.07150   0.07519   0.07717
 Alpha virt. eigenvalues --    0.08371   0.08585   0.08951   0.09235   0.10267
 Alpha virt. eigenvalues --    0.10351   0.10420   0.11109   0.11249   0.11644

  Beta  occ. eigenvalues --  -88.74427 -19.04581 -14.23350 -14.22329 -14.17986
  Beta  occ. eigenvalues --  -10.16915 -10.13103 -10.12997 -10.11137 -10.11074
  Beta  occ. eigenvalues --  -10.11038 -10.10040 -10.10026 -10.08419 -10.07186
  Beta  occ. eigenvalues --  -10.06976  -7.83036  -5.79438  -5.79063  -5.78402
  Beta  occ. eigenvalues --   -0.95856  -0.89005  -0.80521  -0.78677  -0.72233
  Beta  occ. eigenvalues --   -0.69484  -0.66123  -0.64998  -0.62102  -0.59320
  Beta  occ. eigenvalues --   -0.56987  -0.55408  -0.53398  -0.50983  -0.49618
  Beta  occ. eigenvalues --   -0.46478  -0.42389  -0.41640  -0.40965  -0.39628
  Beta  occ. eigenvalues --   -0.38122  -0.37694  -0.37388  -0.36990  -0.34954
  Beta  occ. eigenvalues --   -0.34847  -0.33750  -0.33243  -0.32982  -0.31537
  Beta  occ. eigenvalues --   -0.31118  -0.30613  -0.29826  -0.28957  -0.28775
  Beta  occ. eigenvalues --   -0.27716  -0.26743  -0.26365  -0.25879  -0.25179
  Beta  occ. eigenvalues --   -0.24416  -0.23631  -0.21177  -0.18344  -0.16223
  Beta  occ. eigenvalues --   -0.15791  -0.13341  -0.13075
  Beta virt. eigenvalues --    0.05736   0.06175   0.06542   0.07570   0.07755
  Beta virt. eigenvalues --    0.07919   0.08633   0.08823   0.09150   0.09503
  Beta virt. eigenvalues --    0.10499   0.10560   0.10589   0.11136   0.11409

 Mulliken charges and spin densities:
               1          2
     1  C    0.910243  -1.402753
     2  C   -0.505585   0.301368
     3  N   -0.176394  -0.007649
     4  C   -0.080973  -0.021115
     5  N    0.004656  -0.047550
     6  C   -1.024237  -0.071665
     7  C    0.320476   0.379102
     8  C   -0.359541  -0.382530
     9  S   -0.094692   0.128712
    10  C    0.150490  -0.852956
    11  N    0.084455  -0.008520
    12  C   -0.463367   0.113060
    13  C    0.261671  -0.536989
    14  C   -0.190685  -0.223497
    15  O   -0.172477   0.040165
    16  C    0.300614  -0.547615
    17  H   -0.095008   0.215100
    18  H   -0.229095   0.365584
    19  H   -0.279582   0.424455
    20  H    0.186652  -0.012461
    21  H   -0.478147   0.666549
    22  H    0.222413   0.051733
    23  H    0.699618  -0.528139
    24  H    0.048764   0.099538
    25  H    0.244712   0.009110
    26  H   -0.040277   0.178698
    27  H    0.106829   0.031731
    28  H    0.098748   0.040023
    29  H    0.029004   0.140278
    30  H   -0.559006   0.731923
    31  H   -0.097235   0.245278
    32  H    0.429523  -0.138268
    33  H    0.200505   0.006465
    34  H    0.128370   0.012514
    35  H    0.044648   0.132276
    36  H   -0.081131   0.216784
    37  H   -0.311246   0.460474
    38  H    0.113768   0.058871
    39  H   -0.273283   0.401672
    40  H   -0.054395   0.174246
    41  H   -0.019804   0.155997
 Sum of Mulliken charges =  -1.00000   1.00000

 Dipole moment (field-independent basis, Debye):
    X=             -0.1448    Y=             -3.5231    Z=             -2.7551  Tot=              4.4748
 Quadrupole moment (field-independent basis, Debye-Ang):
   XX=           -216.3645   YY=           -171.4587   ZZ=           -141.9496
   XY=             11.5262   XZ=             -3.0541   YZ=             -6.9960

 Summary of Natural Population Analysis:

                                       Natural Population
                Natural  -----------------------------------------------
    Atom  No    Charge         Core      Valence    Rydberg      Total
 -----------------------------------------------------------------------
      C    1   -0.28700      0.99966     2.28187    0.00547     3.28700
      C    2   -0.09084      0.99962     2.08077    0.01044     3.09084
      N    3   -0.33423      0.99967     2.82469    0.00988     3.83423
      C    4    0.31938      0.99958     1.66494    0.01610     2.68062
      N    5   -0.30768      0.99963     2.79833    0.00973     3.80768
      C    6   -0.11018      0.99957     2.09688    0.01373     3.11018
      C    7   -0.16358      0.99957     2.14995    0.01406     3.16358
      C    8   -0.29505      0.99963     2.28909    0.00633     3.29505
      S    9    0.08078      4.99962     2.90081    0.01879     7.91922
      C   10   -0.35471      0.99962     2.34815    0.00694     3.35471
      N   11   -0.33466      0.99967     2.82514    0.00985     3.83466
      C   12   -0.08941      0.99961     2.08050    0.00931     3.08941
      C   13   -0.20089      0.99962     2.19133    0.00993     3.20089
      C   14   -0.01182      0.99959     1.99947    0.01276     3.01182
      O   15   -0.30339      0.99988     3.29395    0.00956     4.30339
      C   16   -0.09714      0.99962     2.08826    0.00925     3.09714
      H   17    0.09591      0.00000     0.40292    0.00117     0.40409
      H   18    0.10118      0.00000     0.39763    0.00119     0.39882
      H   19    0.09895      0.00000     0.39962    0.00143     0.40105
      H   20    0.10095      0.00000     0.39674    0.00231     0.39905
      H   21    0.09081      0.00000     0.40715    0.00204     0.40919
      H   22    0.19171      0.00000     0.30548    0.00281     0.30829
      H   23    0.08436      0.00000     0.41340    0.00224     0.41564
      H   24    0.09279      0.00000     0.40555    0.00166     0.40721
      H   25    0.10466      0.00000     0.39413    0.00121     0.39534
      H   26    0.09793      0.00000     0.40119    0.00088     0.40207
      H   27    0.09929      0.00000     0.39977    0.00094     0.40071
      H   28    0.11183      0.00000     0.38703    0.00114     0.38817
      H   29    0.10022      0.00000     0.39827    0.00151     0.39978
      H   30    0.10516      0.00000     0.39265    0.00219     0.39484
      H   31    0.10666      0.00000     0.39242    0.00092     0.39334
      H   32    0.19238      0.00000     0.30404    0.00358     0.30762
      H   33    0.09265      0.00000     0.40603    0.00132     0.40735
      H   34    0.10122      0.00000     0.39727    0.00151     0.39878
      H   35    0.09839      0.00000     0.40053    0.00108     0.40161
      H   36    0.10055      0.00000     0.39819    0.00126     0.39945
      H   37    0.08287      0.00000     0.41537    0.00176     0.41713
      H   38    0.08212      0.00000     0.41621    0.00167     0.41788
      H   39    0.07972      0.00000     0.41859    0.00169     0.42028
      H   40    0.07869      0.00000     0.42006    0.00125     0.42131
      H   41    0.08943      0.00000     0.40966    0.00091     0.41057
 =======================================================================
   * Total *   -0.00000     19.99418    47.79403    0.21179    68.00000

 Normal termination of Gaussian 16 at Fri Dec 11 00:14:16 2020.
