 Gaussian 16, Revision A.03,

 -----------------------------------------------------------
 # opt freq B3LYP/6-31G(d) empiricaldispersion=gd3bj scf=xqc
 -----------------------------------------------------------

 ------------------------------
 CID_66422666_JID_8409_neutraal
 ------------------------------
 Symbolic Z-matrix:
 Charge =  0 Multiplicity = 1

 SCF Done:  E(RB3LYP) =  -1203.98356611     A.U. after   14 cycles
 SCF Done:  E(RB3LYP) =  -1203.99275067     A.U. after   14 cycles
 SCF Done:  E(RB3LYP) =  -1203.99386848     A.U. after   13 cycles
 SCF Done:  E(RB3LYP) =  -1203.99431417     A.U. after   12 cycles
 SCF Done:  E(RB3LYP) =  -1203.98621290     A.U. after   14 cycles
 SCF Done:  E(RB3LYP) =  -1203.99267291     A.U. after   13 cycles
 SCF Done:  E(RB3LYP) =  -1203.99730664     A.U. after   11 cycles
 SCF Done:  E(RB3LYP) =  -1203.99888989     A.U. after   12 cycles
 SCF Done:  E(RB3LYP) =  -1203.99892443     A.U. after   12 cycles
 SCF Done:  E(RB3LYP) =  -1203.99905204     A.U. after   13 cycles
 SCF Done:  E(RB3LYP) =  -1204.00055041     A.U. after   10 cycles
 SCF Done:  E(RB3LYP) =  -1204.00055048     A.U. after    8 cycles
 SCF Done:  E(RB3LYP) =  -1204.00055090     A.U. after    8 cycles
 SCF Done:  E(RB3LYP) =  -1204.00055094     A.U. after    7 cycles
 SCF Done:  E(RB3LYP) =  -1204.00055096     A.U. after    6 cycles
 Optimization completed.
    -- Stationary point found.
 Normal termination of Gaussian 16 at Fri Dec 11 21:51:44 2020.

 --------------------------------------------------------------------
 #N Geom=AllCheck Guess=TCheck SCRF=Check GenChk RB3LYP/6-31G(d) Freq
 --------------------------------------------------------------------

 Structure from the checkpoint file:  "JID_8409.chk"
 ------------------------------
 CID_66422666_JID_8409_neutraal
 ------------------------------
 Charge =  0 Multiplicity = 1

 SCF Done:  E(RB3LYP) =  -1204.00055096     A.U. after    1 cycles

  Exact polarizability: 180.066   9.528 163.711  -1.331   4.264 136.393
 Approx polarizability: 258.096   4.134 218.772   0.294   5.718 216.080

                      1                      2                      3
                      A                      A                      A
 Frequencies --     22.1577                29.5063                42.0957
 Red. masses --      5.9897                 5.5041                 6.2576
 Frc consts  --      0.0017                 0.0028                 0.0065
 IR Inten    --      0.1291                 1.7854                 0.7241

                      4                      5                      6
                      A                      A                      A
 Frequencies --     52.7501                62.3638                70.1755
 Red. masses --      5.1515                 7.4952                 4.4041
 Frc consts  --      0.0084                 0.0172                 0.0128
 IR Inten    --      1.2780                 0.1211                 1.7047

                      7                      8                      9
                      A                      A                      A
 Frequencies --     76.7841               107.7699               119.9232
 Red. masses --      4.6086                 2.8224                 5.5471
 Frc consts  --      0.0160                 0.0193                 0.0470
 IR Inten    --      0.8485                 0.1905                 2.3647

                     10                     11                     12
                      A                      A                      A
 Frequencies --    155.4098               172.1351               195.2934
 Red. masses --      4.3975                 3.1312                 2.6798
 Frc consts  --      0.0626                 0.0547                 0.0602
 IR Inten    --      1.4500                 2.9819                 6.1272

                     13                     14                     15
                      A                      A                      A
 Frequencies --    252.4592               270.5072               275.1770
 Red. masses --      3.8826                 2.1631                 3.2725
 Frc consts  --      0.1458                 0.0933                 0.1460
 IR Inten    --      2.6796                 0.9809                 1.8379

                     16                     17                     18
                      A                      A                      A
 Frequencies --    320.7180               323.6877               330.0367
 Red. masses --      2.5011                 2.2143                 2.3700
 Frc consts  --      0.1516                 0.1367                 0.1521
 IR Inten    --      1.3320                 1.6424                 1.0316

                     19                     20                     21
                      A                      A                      A
 Frequencies --    361.9930               379.7235               401.4600
 Red. masses --      5.9039                 2.7450                 3.0783
 Frc consts  --      0.4558                 0.2332                 0.2923
 IR Inten    --      0.1387                 0.2379                 4.3455

                     22                     23                     24
                      A                      A                      A
 Frequencies --    443.6749               469.4948               501.6544
 Red. masses --      2.5094                 2.7856                 2.6308
 Frc consts  --      0.2910                 0.3618                 0.3901
 IR Inten    --      6.6944                 2.1299                17.1390

                     25                     26                     27
                      A                      A                      A
 Frequencies --    507.5367               530.4279               538.5535
 Red. masses --      2.6890                 1.8016                 2.1792
 Frc consts  --      0.4081                 0.2986                 0.3724
 IR Inten    --      7.5716                21.5366                15.5169

                     28                     29                     30
                      A                      A                      A
 Frequencies --    590.7767               626.1244               654.0038
 Red. masses --      2.5375                 3.2411                 2.3972
 Frc consts  --      0.5218                 0.7486                 0.6041
 IR Inten    --     62.9502                 6.8916                23.3838

                     31                     32                     33
                      A                      A                      A
 Frequencies --    673.2801               676.5698               718.7074
 Red. masses --      4.2412                 1.4648                 1.7567
 Frc consts  --      1.1328                 0.3951                 0.5346
 IR Inten    --      2.7968                81.4624                50.9601

                     34                     35                     36
                      A                      A                      A
 Frequencies --    742.2475               750.2409               788.5853
 Red. masses --      1.5021                 4.6605                 1.6629
 Frc consts  --      0.4876                 1.5456                 0.6093
 IR Inten    --     44.7706                19.8480                 3.3575

                     37                     38                     39
                      A                      A                      A
 Frequencies --    798.0652               836.5391               845.5054
 Red. masses --      2.3949                 2.8008                 1.5612
 Frc consts  --      0.8987                 1.1548                 0.6576
 IR Inten    --     37.3617                 2.4001                 9.5266

                     40                     41                     42
                      A                      A                      A
 Frequencies --    863.6012               883.9436               893.8808
 Red. masses --      2.8650                 1.6505                 2.4106
 Frc consts  --      1.2589                 0.7598                 1.1348
 IR Inten    --      0.6381                 7.0478                 4.2770

                     43                     44                     45
                      A                      A                      A
 Frequencies --    940.7220               947.6741               982.3176
 Red. masses --      2.2907                 2.2144                 2.1138
 Frc consts  --      1.1944                 1.1717                 1.2017
 IR Inten    --      3.5138                 6.9658                 8.0215

                     46                     47                     48
                      A                      A                      A
 Frequencies --    985.7680              1010.6942              1024.9365
 Red. masses --      1.9503                 1.8360                 1.7835
 Frc consts  --      1.1166                 1.1050                 1.1039
 IR Inten    --      2.1482                 4.9815                 5.7712

                     49                     50                     51
                      A                      A                      A
 Frequencies --   1062.9330              1076.7730              1081.9720
 Red. masses --      1.9887                 2.2038                 2.1049
 Frc consts  --      1.3238                 1.5055                 1.4518
 IR Inten    --     13.6452                 5.4426                 5.5341

                     52                     53                     54
                      A                      A                      A
 Frequencies --   1098.2683              1113.9783              1119.6058
 Red. masses --      2.3878                 2.7428                 1.7811
 Frc consts  --      1.6969                 2.0054                 1.3155
 IR Inten    --     11.3564                18.6772                 3.5999

                     55                     56                     57
                      A                      A                      A
 Frequencies --   1141.9865              1159.4789              1168.8396
 Red. masses --      2.2362                 2.9711                 2.1790
 Frc consts  --      1.7182                 2.3534                 1.7539
 IR Inten    --     51.4973                22.9634               167.6526

                     58                     59                     60
                      A                      A                      A
 Frequencies --   1189.7795              1215.0730              1225.1452
 Red. masses --      1.3541                 1.3177                 1.3031
 Frc consts  --      1.1294                 1.1462                 1.1524
 IR Inten    --     19.9020                31.8608                 3.0909

                     61                     62                     63
                      A                      A                      A
 Frequencies --   1234.4583              1259.0308              1270.2191
 Red. masses --      1.2816                 1.2812                 1.3281
 Frc consts  --      1.1507                 1.1966                 1.2625
 IR Inten    --     13.1116                11.6706                13.0110

                     64                     65                     66
                      A                      A                      A
 Frequencies --   1274.0376              1289.7490              1313.9605
 Red. masses --      1.2433                 1.2585                 1.4683
 Frc consts  --      1.1890                 1.2334                 1.4936
 IR Inten    --      5.2264                 6.1030                46.2423

                     67                     68                     69
                      A                      A                      A
 Frequencies --   1321.2228              1332.5103              1347.8460
 Red. masses --      1.3130                 1.4441                 1.2255
 Frc consts  --      1.3505                 1.5107                 1.3117
 IR Inten    --      2.0590                12.4599                 8.1134

                     70                     71                     72
                      A                      A                      A
 Frequencies --   1355.4065              1364.7006              1371.2783
 Red. masses --      1.2335                 1.2767                 1.2766
 Frc consts  --      1.3352                 1.4010                 1.4143
 IR Inten    --      7.8744                54.7794                10.7106

                     73                     74                     75
                      A                      A                      A
 Frequencies --   1388.6764              1402.0847              1411.2574
 Red. masses --      1.4087                 1.3851                 1.4443
 Frc consts  --      1.6005                 1.6042                 1.6948
 IR Inten    --     17.8001                 3.3234                 7.2060

                     76                     77                     78
                      A                      A                      A
 Frequencies --   1424.6135              1440.2821              1441.4905
 Red. masses --      1.4792                 1.5047                 1.4959
 Frc consts  --      1.7688                 1.8391                 1.8314
 IR Inten    --     38.8083                18.9074                29.3194

                     79                     80                     81
                      A                      A                      A
 Frequencies --   1449.8470              1483.3237              1490.8523
 Red. masses --      1.7961                 1.0966                 1.5055
 Frc consts  --      2.2245                 1.4216                 1.9715
 IR Inten    --     33.4049                 3.1094                18.1996

                     82                     83                     84
                      A                      A                      A
 Frequencies --   1497.7789              1499.5987              1510.6163
 Red. masses --      1.2491                 1.0921                 1.0876
 Frc consts  --      1.6509                 1.4469                 1.4623
 IR Inten    --     45.2019                 8.6963                22.5321

                     85                     86                     87
                      A                      A                      A
 Frequencies --   1516.9838              1520.0030              1527.1596
 Red. masses --      1.0866                 1.0901                 1.0865
 Frc consts  --      1.4733                 1.4840                 1.4930
 IR Inten    --      4.2892                 1.4994                10.0575

                     88                     89                     90
                      A                      A                      A
 Frequencies --   1532.5866              1534.8950              1544.5030
 Red. masses --      1.2042                 1.1509                 1.0881
 Frc consts  --      1.6665                 1.5975                 1.5294
 IR Inten    --     17.0687                 0.4414                10.0476

                     91                     92                     93
                      A                      A                      A
 Frequencies --   1773.1548              1842.8816              2985.1957
 Red. masses --      7.6918                 9.2332                 1.0693
 Frc consts  --     14.2487                18.4756                 5.6145
 IR Inten    --    309.5345               263.9546                68.7905

                     94                     95                     96
                      A                      A                      A
 Frequencies --   3014.2413              3035.8834              3036.4951
 Red. masses --      1.0829                 1.0681                 1.0654
 Frc consts  --      5.7968                 5.8003                 5.7877
 IR Inten    --     27.2902                26.6969                19.5198

                     97                     98                     99
                      A                      A                      A
 Frequencies --   3045.3728              3051.9108              3063.7448
 Red. masses --      1.0663                 1.0671                 1.0611
 Frc consts  --      5.8263                 5.8562                 5.8684
 IR Inten    --     34.0044                16.5268                17.7095

                    100                    101                    102
                      A                      A                      A
 Frequencies --   3068.0414              3068.6962              3071.6103
 Red. masses --      1.0743                 1.0827                 1.0970
 Frc consts  --      5.9579                 6.0069                 6.0977
 IR Inten    --     27.3635                 4.9152                25.3459

                    103                    104                    105
                      A                      A                      A
 Frequencies --   3073.8274              3088.8125              3093.5472
 Red. masses --      1.0726                 1.0613                 1.0965
 Frc consts  --      5.9707                 5.9660                 6.1826
 IR Inten    --     45.2955                21.0980                14.4790

                    106                    107                    108
                      A                      A                      A
 Frequencies --   3099.6447              3113.0339              3122.7600
 Red. masses --      1.0910                 1.0941                 1.1025
 Frc consts  --      6.1756                 6.2469                 6.3343
 IR Inten    --     14.2581                21.6455                 2.9037

                    109                    110                    111
                      A                      A                      A
 Frequencies --   3126.2628              3142.4367              3144.0828
 Red. masses --      1.1020                 1.1077                 1.0932
 Frc consts  --      6.3459                 6.4448                 6.3669
 IR Inten    --     42.4918                 6.6810                29.4814

                    112                    113                    114
                      A                      A                      A
 Frequencies --   3492.5895              3569.0242              3684.6660
 Red. masses --      1.0737                 1.0753                 1.0640
 Frc consts  --      7.7164                 8.0698                 8.5115
 IR Inten    --      1.8682                16.2185                48.4149

 - Thermochemistry -
 -------------------
 Temperature   298.150 Kelvin.  Pressure   1.00000 Atm.
 Atom     1 has atomic number  6 and mass  12.00000

 Molecular mass:   274.13511 amu.
 Principal axes and moments of inertia in atomic units:
                           1         2         3
     Eigenvalues --  4982.734605506.632759130.39840
           X            0.99113   0.13250   0.01039
           Y           -0.13259   0.99113   0.00889
           Z           -0.00912  -0.01019   0.99991
 This molecule is an asymmetric top.
 Rotational symmetry number  1.
 Warning -- assumption of classical behavior for rotation
           may cause significant error
 Rotational temperatures (Kelvin)      0.01738     0.01573     0.00949
 Rotational constants (GHZ):           0.36220     0.32774     0.19766
 Zero-point vibrational energy     915504.3 (Joules/Mol)
                                  218.81079 (Kcal/Mol)
 Warning -- explicit consideration of  28 degrees of freedom as
           vibrations may cause significant error
 Vibrational temperatures:     31.88    42.45    60.57    75.90    89.73
          (Kelvin)            100.97   110.48   155.06   172.54   223.60
                              247.66   280.98   363.23   389.20   395.92
                              461.44   465.71   474.85   520.83   546.34
                              577.61   638.35   675.50   721.77   730.23
                              763.17   774.86   850.00   900.85   940.97
                              968.70   973.43  1034.06  1067.93  1079.43
                             1134.60  1148.24  1203.59  1216.49  1242.53
                             1271.80  1286.10  1353.49  1363.49  1413.34
                             1418.30  1454.16  1474.66  1529.32  1549.24
                             1556.72  1580.16  1602.77  1610.86  1643.06
                             1668.23  1681.70  1711.83  1748.22  1762.71
                             1776.11  1811.46  1827.56  1833.06  1855.66
                             1890.50  1900.94  1917.19  1939.25  1950.13
                             1963.50  1972.96  1998.00  2017.29  2030.48
                             2049.70  2072.24  2073.98  2086.01  2134.17
                             2145.00  2154.97  2157.59  2173.44  2182.60
                             2186.95  2197.24  2205.05  2208.37  2222.20
                             2551.17  2651.50  4295.03  4336.82  4367.96
                             4368.84  4381.61  4391.02  4408.05  4414.23
                             4415.17  4419.36  4422.55  4444.11  4450.92
                             4459.70  4478.96  4492.96  4497.99  4521.27
                             4523.63  5025.06  5135.03  5301.41

 Zero-point correction=                           0.348697 (Hartree/Particle)
 Thermal correction to Energy=                    0.367688
 Thermal correction to Enthalpy=                  0.368632
 Thermal correction to Gibbs Free Energy=         0.299035
 Sum of electronic and zero-point Energies=          -1203.651854
 Sum of electronic and thermal Energies=             -1203.632863
 Sum of electronic and thermal Enthalpies=           -1203.631919
 Sum of electronic and thermal Free Energies=        -1203.701516

                     E (Thermal)             CV                S
                      KCal/Mol        Cal/Mol-Kelvin    Cal/Mol-Kelvin
 Total                  230.728             71.151            146.479
 Electronic               0.000              0.000              0.000
 Translational            0.889              2.981             42.724
 Rotational               0.889              2.981             33.882
 Vibrational            228.950             65.190             69.873
 Vibration     1          0.593              1.985              6.431
 Vibration     2          0.593              1.984              5.862
 Vibration     3          0.595              1.980              5.158
 Vibration     4          0.596              1.977              4.712
 Vibration     5          0.597              1.972              4.381
 Vibration     6          0.598              1.968              4.148
 Vibration     7          0.599              1.965              3.971
 Vibration     8          0.606              1.943              3.309
 Vibration     9          0.609              1.933              3.102
 Vibration    10          0.620              1.897              2.605
 Vibration    11          0.626              1.877              2.412
 Vibration    12          0.636              1.846              2.177
 Vibration    13          0.664              1.759              1.713
 Vibration    14          0.674              1.728              1.593
 Vibration    15          0.677              1.719              1.563
 Vibration    16          0.706              1.634              1.306
 Vibration    17          0.708              1.628              1.291
 Vibration    18          0.713              1.616              1.260
 Vibration    19          0.736              1.551              1.114
 Vibration    20          0.750              1.513              1.040
 Vibration    21          0.767              1.467              0.957
 Vibration    22          0.803              1.375              0.815
 Vibration    23          0.827              1.318              0.739
 Vibration    24          0.857              1.246              0.654
 Vibration    25          0.863              1.233              0.640
 Vibration    26          0.885              1.183              0.586
 Vibration    27          0.894              1.165              0.568
 Vibration    28          0.948              1.051              0.466

 Optimization completed.
    -- Stationary point found.
 Normal termination of Gaussian 16 at Fri Dec 11 22:12:38 2020.

 ----------------------------------------------------------------------
 # B3LYP/6-311++G(d,p) empiricaldispersion=gd3bj scf=xqc pop=npa geom=c
 heck
 ----------------------------------------------------------------------

 --------------------------------------
 CID_66422666_JID_8409_Energie_neutraal
 --------------------------------------
 Structure from the checkpoint file:  "JID_8409.chk"
 Charge =  0 Multiplicity = 1

 SCF Done:  E(RB3LYP) =  -1204.27296485     A.U. after   15 cycles
 Normal termination of Gaussian 16 at Fri Dec 11 22:23:06 2020.

 ----------------------------------------------------------------------
 # B3LYP/6-311++G(d,p) empiricaldispersion=gd3bj scf=xqc pop=npa geom=c
 heck
 ----------------------------------------------------------------------

 ------------------------------------
 CID_66422666_JID_8409_Energie_kation
 ------------------------------------
 Structure from the checkpoint file:  "JID_8409.chk"
 Charge =  1 Multiplicity = 2

 SCF Done:  E(UB3LYP) =  -1203.97279977     A.U. after   31 cycles
 Normal termination of Gaussian 16 at Fri Dec 11 22:53:57 2020.
 Gaussian 16:  ES64L-G16RevA.03 25-Dec-2016

 ----------------------------------------------------------------------
 # B3LYP/6-311++G(d,p) empiricaldispersion=gd3bj scf=xqc pop=npa geom=c
 heck
 ----------------------------------------------------------------------

 -----------------------------------
 CID_66422666_JID_8409_Energie_anion
 -----------------------------------
 Structure from the checkpoint file:  "JID_8409.chk"
 Charge = -1 Multiplicity = 2

                         Standard orientation:
 ---------------------------------------------------------------------
 Center     Atomic      Atomic             Coordinates (Angstroms)
 Number     Number       Type             X           Y           Z
 ---------------------------------------------------------------------
      1          6           0       -1.982831   -0.760213   -1.598540
      2          6           0       -2.351007   -1.956569   -0.729838
      3         16           0       -3.376062   -1.449781    0.703410
      4          6           0       -2.245572   -0.148936    1.320826
      5          6           0       -1.857860    0.873196    0.250534
      6          7           0       -1.158891    0.207650   -0.861241
      7          6           0       -0.915273    1.916394    0.868329
      8          6           0       -0.461864    2.945999   -0.162705
      9          8           0       -1.272859    3.463680   -0.926068
     10          7           0        0.861179    3.302207   -0.185342
     11          6           0        1.987485    2.516016    0.313939
     12          6           0        2.340468    1.325160   -0.590521
     13          6           0        3.332086    0.340639    0.044730
     14          6           0        2.750941   -0.498366    1.196451
     15          6           0        1.586791   -1.412434    0.797518
     16          6           0        1.996216   -2.541757   -0.116091
     17          8           0        3.117473   -2.799615   -0.496938
     18          8           0        0.923656   -3.292585   -0.485816
     19          1           0       -1.387966   -1.109757   -2.451264
     20          1           0       -2.906923   -0.304276   -1.992248
     21          1           0       -2.956207   -2.667537   -1.299876
     22          1           0       -1.448432   -2.466750   -0.381864
     23          1           0       -1.343936   -0.621157    1.726759
     24          1           0       -2.770650    0.348382    2.141788
     25          1           0       -2.767116    1.385616   -0.099102
     26          1           0       -0.892085    0.936947   -1.520549
     27          1           0       -1.456068    2.465646    1.648824
     28          1           0       -0.078466    1.405069    1.347827
     29          1           0        1.060793    3.945025   -0.944510
     30          1           0        2.845441    3.191067    0.405591
     31          1           0        1.759013    2.183037    1.328629
     32          1           0        1.413450    0.804542   -0.855078
     33          1           0        2.754463    1.712567   -1.530648
     34          1           0        3.705792   -0.342556   -0.723903
     35          1           0        4.206680    0.891510    0.418056
     36          1           0        3.553642   -1.113199    1.618204
     37          1           0        2.405943    0.156513    2.006717
     38          1           0        1.136209   -1.872162    1.687565
     39          1           0        0.769517   -0.869174    0.304257
     40          1           0        1.274231   -3.998472   -1.060871
 ---------------------------------------------------------------------

 SCF Done:  E(UB3LYP) =  -1204.26441628     A.U. after   33 cycles
 SCF Done:  E(UB3LYP) =  -1204.26441628     a.u. after    1 cycles

 The electronic state is 2-A.
 Alpha  occ. eigenvalues --  -88.75130 -19.07769 -19.02596 -19.00412 -14.25042
 Alpha  occ. eigenvalues --  -14.22088 -10.21609 -10.18990 -10.12511 -10.12041
 Alpha  occ. eigenvalues --  -10.11444 -10.11374 -10.10770 -10.09749 -10.08989
 Alpha  occ. eigenvalues --  -10.08166 -10.07790 -10.07553  -7.83759  -5.80139
 Alpha  occ. eigenvalues --   -5.79810  -5.79120  -1.01865  -0.95492  -0.92998
 Alpha  occ. eigenvalues --   -0.83856  -0.83724  -0.72383  -0.71373  -0.70978
 Alpha  occ. eigenvalues --   -0.67753  -0.64048  -0.61834  -0.56938  -0.56328
 Alpha  occ. eigenvalues --   -0.54143  -0.51627  -0.48550  -0.47520  -0.46971
 Alpha  occ. eigenvalues --   -0.43141  -0.41674  -0.41221  -0.40705  -0.39799
 Alpha  occ. eigenvalues --   -0.39547  -0.38873  -0.37014  -0.35933  -0.35067
 Alpha  occ. eigenvalues --   -0.34291  -0.33834  -0.32836  -0.32221  -0.32077
 Alpha  occ. eigenvalues --   -0.31067  -0.30870  -0.30419  -0.29744  -0.29593
 Alpha  occ. eigenvalues --   -0.28387  -0.27347  -0.26823  -0.25533  -0.24480
 Alpha  occ. eigenvalues --   -0.24208  -0.23878  -0.23546  -0.22077  -0.19370
 Alpha  occ. eigenvalues --   -0.17761  -0.16894  -0.15728  -0.13931   0.03773
 Alpha virt. eigenvalues --    0.05295   0.05973   0.06755   0.07620   0.07754
 Alpha virt. eigenvalues --    0.08282   0.08623   0.09099   0.09285   0.09628
 Alpha virt. eigenvalues --    0.09985   0.10905   0.11051   0.11397   0.11986

  Beta  occ. eigenvalues --  -88.75129 -19.07725 -19.02583 -19.00408 -14.25025
  Beta  occ. eigenvalues --  -14.22082 -10.21604 -10.18988 -10.12511 -10.12010
  Beta  occ. eigenvalues --  -10.11434 -10.11359 -10.10760 -10.09732 -10.08969
  Beta  occ. eigenvalues --  -10.08150 -10.07776 -10.07543  -7.83758  -5.80138
  Beta  occ. eigenvalues --   -5.79807  -5.79119  -1.01807  -0.95481  -0.92948
  Beta  occ. eigenvalues --   -0.83840  -0.83698  -0.72350  -0.71357  -0.70960
  Beta  occ. eigenvalues --   -0.67710  -0.64017  -0.61779  -0.56893  -0.56292
  Beta  occ. eigenvalues --   -0.54112  -0.51558  -0.48512  -0.47487  -0.46911
  Beta  occ. eigenvalues --   -0.43116  -0.41630  -0.41192  -0.40674  -0.39775
  Beta  occ. eigenvalues --   -0.39522  -0.38834  -0.36992  -0.35896  -0.35028
  Beta  occ. eigenvalues --   -0.34271  -0.33812  -0.32814  -0.32193  -0.32041
  Beta  occ. eigenvalues --   -0.31040  -0.30847  -0.30396  -0.29708  -0.29565
  Beta  occ. eigenvalues --   -0.28365  -0.27310  -0.26798  -0.25511  -0.24458
  Beta  occ. eigenvalues --   -0.24175  -0.23844  -0.23506  -0.22062  -0.19338
  Beta  occ. eigenvalues --   -0.17746  -0.16871  -0.15710  -0.13923
  Beta virt. eigenvalues --    0.06001   0.06447   0.06835   0.07102   0.08028
  Beta virt. eigenvalues --    0.08057   0.08538   0.08862   0.09282   0.09601
  Beta virt. eigenvalues --    0.09806   0.10287   0.11072   0.11117   0.11804

 Mulliken charges and spin densities:
               1          2
     1  C   -0.289617   0.005162
     2  C   -0.224701  -0.248630
     3  S   -0.160803   0.023379
     4  C    0.203194  -0.481176
     5  C   -1.174550   0.880177
     6  N    0.006228  -0.027884
     7  C    1.352441  -1.303338
     8  C   -0.682321   0.243901
     9  O   -0.308632   0.014942
    10  N   -0.186364   0.166204
    11  C    0.815923  -1.595118
    12  C   -0.417490   0.457856
    13  C   -0.272518  -0.109199
    14  C    0.575032  -0.964056
    15  C   -0.091730  -0.035207
    16  C   -0.545645   0.296366
    17  O   -0.247971  -0.004543
    18  O   -0.148442   0.007768
    19  H   -0.171607   0.340101
    20  H    0.123449   0.006709
    21  H   -0.130999   0.350532
    22  H    0.431381  -0.204452
    23  H   -0.037123   0.199182
    24  H    0.052582   0.179315
    25  H    0.183636   0.007678
    26  H    0.274036   0.016794
    27  H   -0.030010   0.251294
    28  H    0.165473  -0.052623
    29  H   -0.044114   0.338323
    30  H   -0.631255   0.822613
    31  H   -0.049058   0.241240
    32  H   -0.164164   0.320933
    33  H   -0.167393   0.342355
    34  H    0.089310   0.097974
    35  H   -0.018106   0.168607
    36  H    0.044585   0.158258
    37  H   -0.028293   0.169735
    38  H   -0.363630   0.583455
    39  H    1.570876  -1.268106
    40  H   -0.301609   0.603480
 Sum of Mulliken charges =  -1.00000   1.00000

 Dipole moment (field-independent basis, Debye):
    X=             -3.3442    Y=             -0.0865    Z=              0.7692  Tot=              3.4326
 Quadrupole moment (field-independent basis, Debye-Ang):
   XX=           -183.3608   YY=           -199.7912   ZZ=           -153.4940
   XY=             -1.3431   XZ=              0.7306   YZ=             -0.3082

 Summary of Natural Population Analysis:

                                       Natural Population
                Natural  -----------------------------------------------
    Atom  No    Charge         Core      Valence    Rydberg      Total
 -----------------------------------------------------------------------
      C    1   -0.09063      0.99961     2.07940    0.01162     3.09063
      C    2   -0.25791      0.99958     2.24757    0.01076     3.25791
      S    3    0.08499      4.99964     2.89902    0.01635     7.91501
      C    4   -0.25302      0.99955     2.24192    0.01155     3.25302
      C    5   -0.01230      0.99957     2.00027    0.01246     3.01230
      N    6   -0.34983      0.99972     2.83918    0.01093     3.84983
      C    7   -0.23638      0.99955     2.22749    0.00933     3.23638
      C    8    0.34295      0.99966     1.63415    0.02324     2.65705
      O    9   -0.32883      0.99988     3.32344    0.00551     4.32883
      N   10   -0.31322      0.99967     2.80273    0.01083     3.81322
      C   11   -0.08842      0.99960     2.07785    0.01097     3.08842
      C   12   -0.20261      0.99961     2.19463    0.00837     3.20261
      C   13   -0.19317      0.99962     2.18560    0.00795     3.19317
      C   14   -0.18916      0.99963     2.18111    0.00843     3.18916
      C   15   -0.25748      0.99956     2.24867    0.00925     3.25748
      C   16    0.41086      0.99972     1.56462    0.02480     2.58914
      O   17   -0.30894      0.99987     3.30324    0.00583     4.30894
      O   18   -0.34778      0.99988     3.34088    0.00702     4.34778
      H   19    0.10014      0.00000     0.39878    0.00108     0.39986
      H   20    0.08287      0.00000     0.41564    0.00150     0.41713
      H   21    0.10649      0.00000     0.39246    0.00104     0.39351
      H   22    0.11410      0.00000     0.38370    0.00220     0.38590
      H   23    0.10311      0.00000     0.39489    0.00201     0.39689
      H   24    0.10830      0.00000     0.39074    0.00096     0.39170
      H   25    0.09394      0.00000     0.40414    0.00192     0.40606
      H   26    0.18046      0.00000     0.31684    0.00270     0.31954
      H   27    0.11541      0.00000     0.38366    0.00092     0.38459
      H   28    0.10534      0.00000     0.39262    0.00204     0.39466
      H   29    0.19414      0.00000     0.30326    0.00260     0.30586
      H   30    0.10220      0.00000     0.39551    0.00229     0.39780
      H   31    0.09531      0.00000     0.40286    0.00184     0.40469
      H   32    0.10095      0.00000     0.39598    0.00307     0.39905
      H   33    0.09887      0.00000     0.39991    0.00122     0.40113
      H   34    0.10782      0.00000     0.39096    0.00123     0.39218
      H   35    0.09710      0.00000     0.40178    0.00111     0.40290
      H   36    0.10418      0.00000     0.39473    0.00108     0.39582
      H   37    0.09557      0.00000     0.40313    0.00130     0.40443
      H   38    0.11546      0.00000     0.38309    0.00146     0.38454
      H   39    0.12618      0.00000     0.37063    0.00320     0.37382
      H   40    0.24297      0.00000     0.24718    0.00985     0.25703
 =======================================================================
   * Total *    0.00000     21.99392    51.75426    0.25182    74.00000

 Normal termination of Gaussian 16 at Fri Dec 11 23:25:50 2020.
