 Gaussian 16, Revision A.03,

 -----------------------------------------------------------
 # opt freq B3LYP/6-31G(d) empiricaldispersion=gd3bj scf=xqc
 -----------------------------------------------------------

 ------------------------------
 CID_62786058_JID_7342_neutraal
 ------------------------------
 Symbolic Z-matrix:
 Charge =  0 Multiplicity = 1

 SCF Done:  E(RB3LYP) =  -743.948621324     A.U. after   14 cycles
 SCF Done:  E(RB3LYP) =  -743.953259484     A.U. after   13 cycles
 SCF Done:  E(RB3LYP) =  -743.955379550     A.U. after   12 cycles
 SCF Done:  E(RB3LYP) =  -743.957156709     A.U. after   14 cycles
 SCF Done:  E(RB3LYP) =  -743.957731353     A.U. after   12 cycles
 SCF Done:  E(RB3LYP) =  -743.958003645     A.U. after   12 cycles
 SCF Done:  E(RB3LYP) =  -743.958091337     A.U. after   11 cycles
 SCF Done:  E(RB3LYP) =  -743.958154885     A.U. after   12 cycles
 SCF Done:  E(RB3LYP) =  -743.958169835     A.U. after   11 cycles
 SCF Done:  E(RB3LYP) =  -743.958180056     A.U. after   10 cycles
 SCF Done:  E(RB3LYP) =  -743.958224572     A.U. after    7 cycles
 SCF Done:  E(RB3LYP) =  -743.958224694     A.U. after    7 cycles
 SCF Done:  E(RB3LYP) =  -743.958224802     A.U. after    7 cycles
 SCF Done:  E(RB3LYP) =  -743.958224871     A.U. after    7 cycles
 SCF Done:  E(RB3LYP) =  -743.958224886     A.U. after    7 cycles
 Optimization completed.
    -- Stationary point found.
 Normal termination of Gaussian 16 at Sun Dec 13 20:35:55 2020.

 --------------------------------------------------------------------
 #N Geom=AllCheck Guess=TCheck SCRF=Check GenChk RB3LYP/6-31G(d) Freq
 --------------------------------------------------------------------

 Structure from the checkpoint file:  "JID_7342.chk"
 ------------------------------
 CID_62786058_JID_7342_neutraal
 ------------------------------
 Charge =  0 Multiplicity = 1

 SCF Done:  E(RB3LYP) =  -743.958224886     A.U. after    1 cycles

  Exact polarizability: 229.145  -0.029 151.387 -12.930  -0.432  99.930
 Approx polarizability: 308.911   1.227 242.452 -28.103   2.669 160.485

                      1                      2                      3
                      A                      A                      A
 Frequencies --     18.2975                25.6701                27.4758
 Red. masses --      4.1989                 2.3083                 1.3610
 Frc consts  --      0.0008                 0.0009                 0.0006
 IR Inten    --      0.0599                 0.1468                 0.4830

                      4                      5                      6
                      A                      A                      A
 Frequencies --     43.9923                84.9660                88.7893
 Red. masses --      3.9452                 3.8817                 3.7347
 Frc consts  --      0.0045                 0.0165                 0.0173
 IR Inten    --      0.4619                 6.2983                 3.6660

                      7                      8                      9
                      A                      A                      A
 Frequencies --    156.7099               182.3726               214.4457
 Red. masses --      5.1628                 3.6222                 1.8316
 Frc consts  --      0.0747                 0.0710                 0.0496
 IR Inten    --      0.0679                 3.7010                 0.7227

                     10                     11                     12
                      A                      A                      A
 Frequencies --    226.8573               233.3440               234.9912
 Red. masses --      4.1513                 3.7701                 4.9381
 Frc consts  --      0.1259                 0.1209                 0.1607
 IR Inten    --      6.8106                 2.0901                 0.2384

                     13                     14                     15
                      A                      A                      A
 Frequencies --    283.6927               308.2712               357.7593
 Red. masses --      1.5744                 3.0331                 3.0729
 Frc consts  --      0.0747                 0.1698                 0.2317
 IR Inten    --      0.9966                 2.7262                 1.2145

                     16                     17                     18
                      A                      A                      A
 Frequencies --    436.6256               449.5514               458.1430
 Red. masses --      2.3805                 3.7459                 3.5250
 Frc consts  --      0.2674                 0.4460                 0.4359
 IR Inten    --     25.9198                 2.4243                 7.7367

                     19                     20                     21
                      A                      A                      A
 Frequencies --    488.0764               522.9399               550.9435
 Red. masses --      1.9140                 2.0216                 6.0989
 Frc consts  --      0.2686                 0.3257                 1.0907
 IR Inten    --     75.3830                38.7674                 8.3502

                     22                     23                     24
                      A                      A                      A
 Frequencies --    579.3121               583.5789               608.1981
 Red. masses --      4.5277                 4.6899                 4.1595
 Frc consts  --      0.8953                 0.9410                 0.9065
 IR Inten    --      8.0544                 6.8043                 8.7642

                     25                     26                     27
                      A                      A                      A
 Frequencies --    637.7950               661.6734               706.9834
 Red. masses --      3.2417                 6.1944                 2.4608
 Frc consts  --      0.7769                 1.5978                 0.7247
 IR Inten    --      3.2080                 4.4441                 6.3965

                     28                     29                     30
                      A                      A                      A
 Frequencies --    758.3676               786.5759               788.9158
 Red. masses --      5.1738                 2.8638                 1.5506
 Frc consts  --      1.7531                 1.0439                 0.5686
 IR Inten    --      3.8074                 7.1350                35.8732

                     31                     32                     33
                      A                      A                      A
 Frequencies --    815.6944               818.6812               878.9365
 Red. masses --      3.1427                 2.1414                 1.3586
 Frc consts  --      1.2320                 0.8456                 0.6184
 IR Inten    --      6.7960                28.8850                 0.8421

                     34                     35                     36
                      A                      A                      A
 Frequencies --    900.4862               948.6432               965.2615
 Red. masses --      1.4269                 3.4404                 1.2775
 Frc consts  --      0.6817                 1.8242                 0.7013
 IR Inten    --     17.2198                 4.9052                 0.3144

                     37                     38                     39
                      A                      A                      A
 Frequencies --    968.6899               991.3685              1001.3655
 Red. masses --      2.9887                 1.3806                 8.3926
 Frc consts  --      1.6524                 0.7994                 4.9583
 IR Inten    --     10.0416                 0.0082                21.2202

                     40                     41                     42
                      A                      A                      A
 Frequencies --   1013.3342              1021.7766              1037.2893
 Red. masses --      2.7232                 2.5753                 1.8501
 Frc consts  --      1.6476                 1.5841                 1.1729
 IR Inten    --      2.8754                 7.1148                 4.7040

                     43                     44                     45
                      A                      A                      A
 Frequencies --   1078.1940              1094.3958              1129.9139
 Red. masses --      1.6367                 2.9601                 1.7570
 Frc consts  --      1.1210                 2.0888                 1.3216
 IR Inten    --      5.7288                60.5780                21.6224

                     46                     47                     48
                      A                      A                      A
 Frequencies --   1145.1248              1168.0547              1186.3294
 Red. masses --      1.5012                 3.0517                 1.2711
 Frc consts  --      1.1598                 2.4531                 1.0540
 IR Inten    --      4.8893                27.0771                 0.7207

                     49                     50                     51
                      A                      A                      A
 Frequencies --   1193.4732              1208.9893              1228.0728
 Red. masses --      1.8123                 1.1822                 1.4843
 Frc consts  --      1.5209                 1.0181                 1.3189
 IR Inten    --     55.5585                 0.3024                 7.5446

                     52                     53                     54
                      A                      A                      A
 Frequencies --   1256.5955              1272.1658              1310.5622
 Red. masses --      1.2281                 4.0556                 2.1025
 Frc consts  --      1.1425                 3.8671                 2.1277
 IR Inten    --     31.1862                11.7196                37.0880

                     55                     56                     57
                      A                      A                      A
 Frequencies --   1316.4061              1337.0923              1367.0989
 Red. masses --      2.2996                 1.6946                 1.7959
 Frc consts  --      2.3479                 1.7850                 1.9775
 IR Inten    --     79.6054               110.4115                49.9372

                     58                     59                     60
                      A                      A                      A
 Frequencies --   1376.0855              1411.9654              1419.6066
 Red. masses --      4.2106                 1.9606                 1.8448
 Frc consts  --      4.6977                 2.3030                 2.1904
 IR Inten    --     10.6153                 9.1634               119.8810

                     61                     62                     63
                      A                      A                      A
 Frequencies --   1436.8293              1477.2523              1495.3647
 Red. masses --      1.5814                 2.7724                 1.5274
 Frc consts  --      1.9235                 3.5647                 2.0123
 IR Inten    --     68.2914               152.8378                38.9767

                     64                     65                     66
                      A                      A                      A
 Frequencies --   1506.5072              1507.6669              1508.2603
 Red. masses --      1.1841                 1.7977                 1.0508
 Frc consts  --      1.5834                 2.4075                 1.4084
 IR Inten    --      9.9714                 5.3249                 5.2900

                     67                     68                     69
                      A                      A                      A
 Frequencies --   1521.6296              1536.1808              1543.0821
 Red. masses --      1.0477                 1.0893                 1.3348
 Frc consts  --      1.4293                 1.5146                 1.8726
 IR Inten    --      5.5711                48.3491                65.5400

                     70                     71                     72
                      A                      A                      A
 Frequencies --   1546.7096              1572.1815              1620.8614
 Red. masses --      1.6931                 2.9018                 5.2614
 Frc consts  --      2.3865                 4.2259                 8.1441
 IR Inten    --     24.4726               191.6031               138.4381

                     73                     74                     75
                      A                      A                      A
 Frequencies --   1644.3609              1649.5175              1674.0153
 Red. masses --      5.6846                 5.7793                 6.0553
 Frc consts  --      9.0561                 9.2648                 9.9978
 IR Inten    --    507.6654               277.3786                43.8992

                     76                     77                     78
                      A                      A                      A
 Frequencies --   3004.0516              3027.0248              3040.5571
 Red. masses --      1.0640                 1.0348                 1.0981
 Frc consts  --      5.6570                 5.5867                 5.9814
 IR Inten    --     41.7501                57.3666                22.5355

                     79                     80                     81
                      A                      A                      A
 Frequencies --   3062.3306              3086.1993              3119.1018
 Red. masses --      1.0379                 1.1067                 1.0996
 Frc consts  --      5.7346                 6.2106                 6.3030
 IR Inten    --     12.4492                42.4070                12.5044

                     82                     83                     84
                      A                      A                      A
 Frequencies --   3162.0090              3164.9829              3167.1431
 Red. masses --      1.0997                 1.0906                 1.1021
 Frc consts  --      6.4784                 6.4365                 6.5132
 IR Inten    --     24.4938                44.8059                 4.7770

                     85                     86                     87
                      A                      A                      A
 Frequencies --   3187.8653              3204.0269              3213.4348
 Red. masses --      1.0867                 1.0937                 1.0907
 Frc consts  --      6.5065                 6.6154                 6.6359
 IR Inten    --      5.6080                22.9743                 0.9077

                     88                     89                     90
                      A                      A                      A
 Frequencies --   3232.2379              3232.2951              3607.6579
 Red. masses --      1.0920                 1.0927                 1.0764
 Frc consts  --      6.7218                 6.7264                 8.2541
 IR Inten    --     15.4997                 8.4587                40.4714

 - Thermochemistry -
 -------------------
 Temperature   298.150 Kelvin.  Pressure   1.00000 Atm.
 Atom     1 has atomic number  6 and mass  12.00000

 Molecular mass:   229.12151 amu.
 Principal axes and moments of inertia in atomic units:
                           1         2         3
     Eigenvalues --  1656.29835********************
           X            1.00000   0.00000   0.00146
           Y            0.00002   0.99988  -0.01564
           Z           -0.00146   0.01564   0.99988
 This molecule is an asymmetric top.
 Rotational symmetry number  1.
 Warning -- assumption of classical behavior for rotation
           may cause significant error
 Rotational temperatures (Kelvin)      0.05229     0.00851     0.00776
 Rotational constants (GHZ):           1.08962     0.17722     0.16178
 Zero-point vibrational energy     694541.7 (Joules/Mol)
                                  165.99945 (Kcal/Mol)
 Warning -- explicit consideration of  24 degrees of freedom as
           vibrations may cause significant error
 Vibrational temperatures:     26.33    36.93    39.53    63.30   122.25
          (Kelvin)            127.75   225.47   262.39   308.54   326.40
                              335.73   338.10   408.17   443.53   514.74
                              628.21   646.80   659.17   702.23   752.39
                              792.68   833.50   839.64   875.06   917.64
                              952.00  1017.19  1091.12  1131.71  1135.07
                             1173.60  1177.90  1264.59  1295.60  1364.89
                             1388.80  1393.73  1426.36  1440.74  1457.96
                             1470.11  1492.43  1551.28  1574.59  1625.69
                             1647.58  1680.57  1706.86  1717.14  1739.47
                             1766.92  1807.96  1830.36  1885.61  1894.01
                             1923.78  1966.95  1979.88  2031.50  2042.50
                             2067.28  2125.44  2151.50  2167.53  2169.20
                             2170.05  2189.29  2210.22  2220.15  2225.37
                             2262.02  2332.06  2365.87  2373.29  2408.53
                             4322.16  4355.21  4374.68  4406.01  4440.35
                             4487.69  4549.43  4553.70  4556.81  4586.63
                             4609.88  4623.42  4650.47  4650.55  5190.62

 Zero-point correction=                           0.264537 (Hartree/Particle)
 Thermal correction to Energy=                    0.280362
 Thermal correction to Enthalpy=                  0.281306
 Thermal correction to Gibbs Free Energy=         0.217921
 Sum of electronic and zero-point Energies=           -743.693688
 Sum of electronic and thermal Energies=              -743.677863
 Sum of electronic and thermal Enthalpies=            -743.676919
 Sum of electronic and thermal Free Energies=         -743.740304

                     E (Thermal)             CV                S
                      KCal/Mol        Cal/Mol-Kelvin    Cal/Mol-Kelvin
 Total                  175.930             58.921            133.405
 Electronic               0.000              0.000              0.000
 Translational            0.889              2.981             42.189
 Rotational               0.889              2.981             33.597
 Vibrational            174.152             52.959             57.618
 Vibration     1          0.593              1.986              6.811
 Vibration     2          0.593              1.985              6.139
 Vibration     3          0.593              1.984              6.004
 Vibration     4          0.595              1.980              5.071
 Vibration     5          0.601              1.960              3.773
 Vibration     6          0.602              1.957              3.687
 Vibration     7          0.620              1.895              2.589
 Vibration     8          0.630              1.864              2.304
 Vibration     9          0.644              1.819              2.005
 Vibration    10          0.651              1.800              1.904
 Vibration    11          0.654              1.790              1.853
 Vibration    12          0.655              1.787              1.840
 Vibration    13          0.682              1.704              1.511
 Vibration    14          0.698              1.658              1.372
 Vibration    15          0.733              1.559              1.132
 Vibration    16          0.797              1.390              0.837
 Vibration    17          0.808              1.362              0.797
 Vibration    18          0.816              1.343              0.772
 Vibration    19          0.844              1.276              0.689
 Vibration    20          0.878              1.199              0.603
 Vibration    21          0.906              1.138              0.542
 Vibration    22          0.936              1.076              0.487
 Vibration    23          0.940              1.067              0.479
 Vibration    24          0.967              1.014              0.436

 Optimization completed.
    -- Stationary point found.
 Normal termination of Gaussian 16 at Sun Dec 13 20:45:25 2020.

 ----------------------------------------------------------------------
 # B3LYP/6-311++G(d,p) empiricaldispersion=gd3bj scf=xqc pop=npa geom=c
 heck
 ----------------------------------------------------------------------

 --------------------------------------
 CID_62786058_JID_7342_Energie_neutraal
 --------------------------------------
 Structure from the checkpoint file:  "JID_7342.chk"
 Charge =  0 Multiplicity = 1

 SCF Done:  E(RB3LYP) =  -744.158842259     A.U. after   15 cycles
 Normal termination of Gaussian 16 at Sun Dec 13 20:50:02 2020.

 ----------------------------------------------------------------------
 # B3LYP/6-311++G(d,p) empiricaldispersion=gd3bj scf=xqc pop=npa geom=c
 heck
 ----------------------------------------------------------------------

 ------------------------------------
 CID_62786058_JID_7342_Energie_kation
 ------------------------------------
 Structure from the checkpoint file:  "JID_7342.chk"
 Charge =  1 Multiplicity = 2

 SCF Done:  E(UB3LYP) =  -743.870666383     A.U. after   26 cycles
 Normal termination of Gaussian 16 at Sun Dec 13 21:01:59 2020.
 Gaussian 16:  ES64L-G16RevA.03 25-Dec-2016

 ----------------------------------------------------------------------
 # B3LYP/6-311++G(d,p) empiricaldispersion=gd3bj scf=xqc pop=npa geom=c
 heck
 ----------------------------------------------------------------------

 -----------------------------------
 CID_62786058_JID_7342_Energie_anion
 -----------------------------------
 Structure from the checkpoint file:  "JID_7342.chk"
 Charge = -1 Multiplicity = 2

                         Standard orientation:
 ---------------------------------------------------------------------
 Center     Atomic      Atomic             Coordinates (Angstroms)
 Number     Number       Type             X           Y           Z
 ---------------------------------------------------------------------
      1          6           0        4.886583   -1.961330    1.037030
      2          6           0        4.150647   -0.842119    0.350897
      3          7           0        4.887324   -0.024772   -0.422873
      4          6           0        4.208975    0.963736   -1.020285
      5          6           0        2.844665    1.161824   -0.878344
      6          6           0        2.170076    0.239961   -0.054036
      7          7           0        2.835707   -0.757453    0.565160
      8          7           0        0.825552    0.274054    0.165336
      9          6           0       -0.042027    1.368193   -0.232231
     10          6           0       -1.492130    1.030816    0.033199
     11          6           0       -2.018362   -0.179153   -0.416493
     12          6           0       -3.362844   -0.497811   -0.189995
     13          6           0       -4.190262    0.404848    0.489299
     14          6           0       -3.655335    1.614827    0.935483
     15          6           0       -2.317393    1.931688    0.717203
     16          8           0       -3.769479   -1.706805   -0.671418
     17          6           0       -5.123167   -2.080913   -0.474451
     18          1           0        5.313753   -2.641961    0.291687
     19          1           0        5.722772   -1.561705    1.620344
     20          1           0        4.212819   -2.518553    1.690169
     21          1           0        4.794908    1.637527   -1.644417
     22          1           0        2.338803    1.982339   -1.372087
     23          1           0        0.501036   -0.346681    0.895365
     24          1           0        0.223360    2.302451    0.286150
     25          1           0        0.101604    1.551450   -1.305938
     26          1           0       -1.397238   -0.894126   -0.946683
     27          1           0       -5.233062    0.177547    0.674875
     28          1           0       -4.296191    2.312423    1.467309
     29          1           0       -1.910593    2.872149    1.077566
     30          1           0       -5.371412   -2.146527    0.592986
     31          1           0       -5.810313   -1.376459   -0.961229
     32          1           0       -5.231052   -3.065638   -0.931761
 ---------------------------------------------------------------------

 SCF Done:  E(UB3LYP) =  -744.149778323     A.U. after   33 cycles
 SCF Done:  E(UB3LYP) =  -744.149778323     a.u. after    1 cycles

 The electronic state is 2-A.
 Alpha  occ. eigenvalues --  -19.05825 -14.23941 -14.20078 -14.19925 -10.15484
 Alpha  occ. eigenvalues --  -10.14085 -10.13953 -10.12385 -10.12298 -10.10834
 Alpha  occ. eigenvalues --  -10.09065 -10.07976 -10.07649 -10.07596 -10.07523
 Alpha  occ. eigenvalues --  -10.07403 -10.07167  -0.97457  -0.89297  -0.84615
 Alpha  occ. eigenvalues --   -0.77532  -0.75879  -0.69984  -0.67063  -0.66372
 Alpha  occ. eigenvalues --   -0.62726  -0.60268  -0.59912  -0.54737  -0.52265
 Alpha  occ. eigenvalues --   -0.50470  -0.49102  -0.45571  -0.43045  -0.42441
 Alpha  occ. eigenvalues --   -0.39873  -0.39363  -0.37366  -0.37036  -0.36282
 Alpha  occ. eigenvalues --   -0.36059  -0.34824  -0.34566  -0.33474  -0.31873
 Alpha  occ. eigenvalues --   -0.31311  -0.30643  -0.29833  -0.29064  -0.28223
 Alpha  occ. eigenvalues --   -0.27473  -0.26536  -0.23886  -0.23520  -0.22698
 Alpha  occ. eigenvalues --   -0.20202  -0.18875  -0.16099  -0.15264  -0.13390
 Alpha  occ. eigenvalues --   -0.13147   0.04161
 Alpha virt. eigenvalues --    0.05514   0.06403   0.07005   0.07201   0.07471
 Alpha virt. eigenvalues --    0.08108   0.08321   0.08992   0.09343   0.09409
 Alpha virt. eigenvalues --    0.09753   0.10228   0.10880   0.11232   0.11632

  Beta  occ. eigenvalues --  -19.05817 -14.23936 -14.19956 -14.19934 -10.15455
  Beta  occ. eigenvalues --  -10.14038 -10.13963 -10.12332 -10.12292 -10.10658
  Beta  occ. eigenvalues --  -10.09026 -10.07924 -10.07642 -10.07600 -10.07532
  Beta  occ. eigenvalues --  -10.07356 -10.07122  -0.97439  -0.89174  -0.84550
  Beta  occ. eigenvalues --   -0.77391  -0.75785  -0.69857  -0.66977  -0.66295
  Beta  occ. eigenvalues --   -0.62679  -0.60204  -0.59834  -0.54493  -0.52170
  Beta  occ. eigenvalues --   -0.50410  -0.49028  -0.45511  -0.42985  -0.42371
  Beta  occ. eigenvalues --   -0.39818  -0.39304  -0.37327  -0.36952  -0.36168
  Beta  occ. eigenvalues --   -0.35977  -0.34709  -0.34457  -0.33415  -0.31811
  Beta  occ. eigenvalues --   -0.31241  -0.30615  -0.29646  -0.28993  -0.28104
  Beta  occ. eigenvalues --   -0.27422  -0.26485  -0.23603  -0.23468  -0.22570
  Beta  occ. eigenvalues --   -0.20101  -0.18292  -0.15832  -0.15162  -0.13233
  Beta  occ. eigenvalues --   -0.13017
  Beta virt. eigenvalues --    0.06335   0.06845   0.07031   0.07277   0.07633
  Beta virt. eigenvalues --    0.07778   0.08291   0.08699   0.09110   0.09642
  Beta virt. eigenvalues --    0.09794   0.09882   0.10742   0.10988   0.11227

 Mulliken charges and spin densities:
               1          2
     1  C   -0.477084  -0.058978
     2  C   -0.202695   0.044773
     3  N   -0.098248  -0.012438
     4  C   -0.425713   0.287722
     5  C    0.372226  -0.019306
     6  C   -0.183985  -0.097983
     7  N   -0.143977   0.076186
     8  N    0.007126  -0.000820
     9  C    0.572232  -0.768798
    10  C    0.650941  -0.080593
    11  C   -0.300875   0.020400
    12  C   -0.657027   0.264541
    13  C    0.401555  -0.089944
    14  C    0.795250  -1.096610
    15  C   -1.294526   0.438889
    16  O   -0.220415   0.064403
    17  C    1.032009  -1.320099
    18  H    0.147880   0.002165
    19  H    0.138341   0.007973
    20  H    0.133732   0.006740
    21  H    0.088517   0.055446
    22  H    0.015175   0.128046
    23  H    0.288864  -0.005151
    24  H    0.138905   0.038334
    25  H   -0.051607   0.220256
    26  H    0.200750   0.010012
    27  H   -0.324586   0.509620
    28  H   -0.462585   0.631476
    29  H   -0.021374   0.142018
    30  H   -0.410433   0.569625
    31  H   -0.327894   0.482254
    32  H   -0.380480   0.549840
 Sum of Mulliken charges =  -1.00000   1.00000

 Dipole moment (field-independent basis, Debye):
    X=              7.7146    Y=              1.9507    Z=              0.0370  Tot=              7.9575
 Quadrupole moment (field-independent basis, Debye-Ang):
   XX=           -237.2448   YY=           -132.5686   ZZ=           -125.1300
   XY=            -10.7948   XZ=              4.5743   YZ=             -2.2127

 Summary of Natural Population Analysis:

                                       Natural Population
                Natural  -----------------------------------------------
    Atom  No    Charge         Core      Valence    Rydberg      Total
 -----------------------------------------------------------------------
      C    1   -0.30144      0.99963     2.29695    0.00486     3.30144
      C    2    0.22795      0.99964     1.75462    0.01779     2.77205
      N    3   -0.28391      0.99969     2.77211    0.01211     3.78391
      C    4    0.07661      0.99961     1.90872    0.01506     2.92339
      C    5   -0.18102      0.99952     2.17456    0.00695     3.18102
      C    6    0.22331      0.99954     1.76348    0.01366     2.77669
      N    7   -0.26528      0.99965     2.75566    0.00997     3.76528
      N    8   -0.30104      0.99966     2.79233    0.00905     3.80104
      C    9   -0.09085      0.99958     2.08084    0.01042     3.09085
      C   10   -0.01454      0.99951     2.00456    0.01047     3.01454
      C   11   -0.11467      0.99947     2.10614    0.00907     3.11467
      C   12    0.16402      0.99939     1.82236    0.01423     2.83598
      C   13   -0.13960      0.99952     2.13099    0.00909     3.13960
      C   14   -0.08129      0.99958     2.07112    0.01059     3.08129
      C   15   -0.12065      0.99951     2.11117    0.00996     3.12065
      O   16   -0.27302      0.99986     3.26321    0.00996     4.27302
      C   17   -0.10055      0.99960     2.09188    0.00907     3.10055
      H   18    0.10456      0.00000     0.39460    0.00084     0.39544
      H   19    0.10425      0.00000     0.39490    0.00085     0.39575
      H   20    0.10494      0.00000     0.39433    0.00073     0.39506
      H   21    0.08423      0.00000     0.41455    0.00123     0.41577
      H   22    0.10611      0.00000     0.39272    0.00116     0.39389
      H   23    0.19666      0.00000     0.30050    0.00285     0.30334
      H   24    0.08942      0.00000     0.40835    0.00222     0.41058
      H   25    0.10226      0.00000     0.39624    0.00150     0.39774
      H   26    0.10901      0.00000     0.38950    0.00149     0.39099
      H   27    0.10849      0.00000     0.38942    0.00209     0.39151
      H   28    0.10042      0.00000     0.39847    0.00112     0.39958
      H   29    0.09902      0.00000     0.40004    0.00094     0.40098
      H   30    0.08729      0.00000     0.41056    0.00215     0.41271
      H   31    0.08559      0.00000     0.41239    0.00202     0.41441
      H   32    0.09373      0.00000     0.40497    0.00130     0.40627
 =======================================================================
   * Total *    0.00000     16.99294    43.80226    0.20480    61.00000

 Normal termination of Gaussian 16 at Sun Dec 13 21:16:38 2020.
