 Gaussian 16, Revision A.03,

 -----------------------------------------------------------
 # opt freq B3LYP/6-31G(d) empiricaldispersion=gd3bj scf=xqc
 -----------------------------------------------------------

 ------------------------------
 CID_61229267_JID_5984_neutraal
 ------------------------------
 Symbolic Z-matrix:
 Charge =  0 Multiplicity = 1

 SCF Done:  E(RB3LYP) =  -670.287785538     A.U. after   14 cycles
 SCF Done:  E(RB3LYP) =  -670.290215330     A.U. after   12 cycles
 SCF Done:  E(RB3LYP) =  -670.290628469     A.U. after   12 cycles
 SCF Done:  E(RB3LYP) =  -670.290775605     A.U. after   11 cycles
 SCF Done:  E(RB3LYP) =  -670.290822014     A.U. after   11 cycles
 SCF Done:  E(RB3LYP) =  -670.290850846     A.U. after   11 cycles
 SCF Done:  E(RB3LYP) =  -670.290867719     A.U. after   11 cycles
 SCF Done:  E(RB3LYP) =  -670.290877265     A.U. after   10 cycles
 SCF Done:  E(RB3LYP) =  -670.290882039     A.U. after    9 cycles
 SCF Done:  E(RB3LYP) =  -670.290883733     A.U. after    9 cycles
 SCF Done:  E(RB3LYP) =  -670.290902484     A.U. after    9 cycles
 SCF Done:  E(RB3LYP) =  -670.290904919     A.U. after   10 cycles
 SCF Done:  E(RB3LYP) =  -670.290907626     A.U. after    9 cycles
 SCF Done:  E(RB3LYP) =  -670.290908692     A.U. after    9 cycles
 SCF Done:  E(RB3LYP) =  -670.290908729     A.U. after    6 cycles
 Optimization completed.
    -- Stationary point found.
 Normal termination of Gaussian 16 at Thu Dec 10 17:45:31 2020.

 --------------------------------------------------------------------
 #N Geom=AllCheck Guess=TCheck SCRF=Check GenChk RB3LYP/6-31G(d) Freq
 --------------------------------------------------------------------

 Structure from the checkpoint file:  "JID_5984.chk"
 ------------------------------
 CID_61229267_JID_5984_neutraal
 ------------------------------
 Charge =  0 Multiplicity = 1

 SCF Done:  E(RB3LYP) =  -670.290908729     A.U. after    1 cycles

  Exact polarizability: 171.901   6.139 118.668  18.284  -1.450  96.992
 Approx polarizability: 235.661  10.713 198.889  30.653  -4.456 164.605

                      1                      2                      3
                      A                      A                      A
 Frequencies --     18.9285                28.5676                30.1350
 Red. masses --      3.4063                 3.0827                 3.9655
 Frc consts  --      0.0007                 0.0015                 0.0021
 IR Inten    --      0.2419                 0.6463                 0.6606

                      4                      5                      6
                      A                      A                      A
 Frequencies --     57.2853               150.6407               158.6829
 Red. masses --      5.0789                 4.3178                 3.8157
 Frc consts  --      0.0098                 0.0577                 0.0566
 IR Inten    --      0.3542                 2.1014                 3.1750

                      7                      8                      9
                      A                      A                      A
 Frequencies --    190.4503               229.0707               248.5760
 Red. masses --      2.5002                 5.9706                 5.1167
 Frc consts  --      0.0534                 0.1846                 0.1863
 IR Inten    --      0.1053                 2.6298                 1.9779

                     10                     11                     12
                      A                      A                      A
 Frequencies --    298.7935               316.1634               344.5931
 Red. masses --      1.1911                 2.6580                 3.6550
 Frc consts  --      0.0627                 0.1565                 0.2557
 IR Inten    --      0.2217                 1.0154                 1.7574

                     13                     14                     15
                      A                      A                      A
 Frequencies --    418.7211               455.1186               523.7012
 Red. masses --      3.7183                 3.0308                 5.5120
 Frc consts  --      0.3841                 0.3699                 0.8907
 IR Inten    --      0.3425                 2.0397                 0.4132

                     16                     17                     18
                      A                      A                      A
 Frequencies --    537.2272               571.7600               587.9362
 Red. masses --      4.3031                 3.3967                 4.0981
 Frc consts  --      0.7317                 0.6542                 0.8346
 IR Inten    --      1.2540                 0.2148                11.3920

                     19                     20                     21
                      A                      A                      A
 Frequencies --    606.5746               646.3800               701.4852
 Red. masses --      3.4382                 5.5610                 2.4819
 Frc consts  --      0.7453                 1.3689                 0.7196
 IR Inten    --      7.1707                 4.6855                 6.9870

                     22                     23                     24
                      A                      A                      A
 Frequencies --    723.9072               736.4591               769.1506
 Red. masses --      5.1684                 4.8823                 1.2942
 Frc consts  --      1.5958                 1.5602                 0.4511
 IR Inten    --      9.2880                10.8160                18.2981

                     25                     26                     27
                      A                      A                      A
 Frequencies --    802.7883               837.6792               877.6501
 Red. masses --      1.3249                 1.3926                 1.3409
 Frc consts  --      0.5031                 0.5757                 0.6085
 IR Inten    --     21.0375                16.7290                 1.3937

                     28                     29                     30
                      A                      A                      A
 Frequencies --    889.8165               894.1676               896.6496
 Red. masses --      1.2955                 1.4319                 5.4306
 Frc consts  --      0.6043                 0.6745                 2.5724
 IR Inten    --      8.0687                21.8542                23.0670

                     31                     32                     33
                      A                      A                      A
 Frequencies --    904.5336               940.9604               963.8785
 Red. masses --      3.1669                 8.1583                 1.2612
 Frc consts  --      1.5266                 4.2559                 0.6904
 IR Inten    --     13.9663                 0.8933                 0.2901

                     34                     35                     36
                      A                      A                      A
 Frequencies --   1014.7186              1019.5005              1039.7327
 Red. masses --      2.2756                 5.4078                 3.9541
 Frc consts  --      1.3805                 3.3116                 2.5185
 IR Inten    --      5.2134                 0.0768                38.0949

                     37                     38                     39
                      A                      A                      A
 Frequencies --   1057.3503              1079.1335              1106.2877
 Red. masses --      1.8489                 2.3977                 2.5443
 Frc consts  --      1.2179                 1.6451                 1.8347
 IR Inten    --      0.4305                17.6233                39.4535

                     40                     41                     42
                      A                      A                      A
 Frequencies --   1118.8572              1138.6080              1152.2516
 Red. masses --      1.5446                 1.6567                 2.6045
 Frc consts  --      1.1393                 1.2654                 2.0374
 IR Inten    --      0.0968                 4.3007                31.0083

                     43                     44                     45
                      A                      A                      A
 Frequencies --   1188.5654              1206.2051              1212.8650
 Red. masses --      1.7831                 1.4608                 1.2122
 Frc consts  --      1.4841                 1.2522                 1.0506
 IR Inten    --     70.0610                17.8350                 5.2678

                     46                     47                     48
                      A                      A                      A
 Frequencies --   1268.9656              1295.6829              1300.7136
 Red. masses --      2.3607                 1.8592                 1.4702
 Frc consts  --      2.2397                 1.8389                 1.4655
 IR Inten    --     82.8107                 4.3174                11.2269

                     49                     50                     51
                      A                      A                      A
 Frequencies --   1312.6430              1333.3041              1363.1725
 Red. masses --      1.1512                 1.6811                 2.2293
 Frc consts  --      1.1687                 1.7607                 2.4407
 IR Inten    --      0.0234                83.5018                17.3908

                     52                     53                     54
                      A                      A                      A
 Frequencies --   1381.2853              1389.7270              1440.4682
 Red. masses --      3.6048                 1.7455                 1.2623
 Frc consts  --      4.0522                 1.9862                 1.5432
 IR Inten    --     60.5446                13.6157                 5.0569

                     55                     56                     57
                      A                      A                      A
 Frequencies --   1451.6925              1486.1166              1496.5937
 Red. masses --      1.8986                 6.1307                 2.0672
 Frc consts  --      2.3574                 7.9775                 2.7280
 IR Inten    --     37.4784                18.2592                12.6747

                     58                     59                     60
                      A                      A                      A
 Frequencies --   1513.8414              1528.3571              1531.0593
 Red. masses --      1.2867                 1.1375                 1.0401
 Frc consts  --      1.7374                 1.5654                 1.4365
 IR Inten    --     22.9767                 2.8644                 6.0113

                     61                     62                     63
                      A                      A                      A
 Frequencies --   1539.1783              1541.6441              1644.3307
 Red. masses --      1.1894                 1.8311                 5.6579
 Frc consts  --      1.6602                 2.5641                 9.0132
 IR Inten    --     20.6226                25.2974                70.0485

                     64                     65                     66
                      A                      A                      A
 Frequencies --   1667.8855              1674.5966              3028.7969
 Red. masses --      5.6661                 6.0080                 1.0607
 Frc consts  --      9.2868                 9.9266                 5.7327
 IR Inten    --      8.6748                75.7619                23.7889

                     67                     68                     69
                      A                      A                      A
 Frequencies --   3032.4672              3052.9197              3053.1839
 Red. masses --      1.0670                 1.0373                 1.0998
 Frc consts  --      5.7808                 5.6962                 6.0404
 IR Inten    --     37.3246                20.9926                15.3228

                     70                     71                     72
                      A                      A                      A
 Frequencies --   3093.3295              3119.3890              3123.6058
 Red. masses --      1.0971                 1.1028                 1.1021
 Frc consts  --      6.1854                 6.3227                 6.3355
 IR Inten    --     21.9635                34.7971                39.2063

                     73                     74                     75
                      A                      A                      A
 Frequencies --   3179.7866              3198.8561              3225.4821
 Red. masses --      1.0869                 1.0935                 1.0895
 Frc consts  --      6.4747                 6.5927                 6.6784
 IR Inten    --      6.7632                26.5418                 3.1406

                     76                     77                     78
                      A                      A                      A
 Frequencies --   3236.4585              3253.0079              3302.8056
 Red. masses --      1.0918                 1.0958                 1.0993
 Frc consts  --      6.7378                 6.8319                 7.0656
 IR Inten    --     10.0754                 2.5467                 0.2331

 - Thermochemistry -
 -------------------
 Temperature   298.150 Kelvin.  Pressure   1.00000 Atm.
 Atom     1 has atomic number  6 and mass  12.00000

 Molecular mass:   203.09463 amu.
 Principal axes and moments of inertia in atomic units:
                           1         2         3
     Eigenvalues --  1300.780136374.888876639.45479
           X            0.99982   0.00760   0.01766
           Y           -0.00829   0.99918   0.03959
           Z           -0.01734  -0.03973   0.99906
 This molecule is an asymmetric top.
 Rotational symmetry number  1.
 Warning -- assumption of classical behavior for rotation
           may cause significant error
 Rotational temperatures (Kelvin)      0.06659     0.01359     0.01305
 Rotational constants (GHZ):           1.38743     0.28310     0.27182
 Zero-point vibrational energy     602641.9 (Joules/Mol)
                                  144.03487 (Kcal/Mol)
 Warning -- explicit consideration of  19 degrees of freedom as
           vibrations may cause significant error
 Vibrational temperatures:     27.23    41.10    43.36    82.42   216.74
          (Kelvin)            228.31   274.02   329.58   357.65   429.90
                              454.89   495.79   602.45   654.81   753.49
                              772.95   822.64   845.91   872.73   930.00
                             1009.28  1041.54  1059.60  1106.64  1155.03
                             1205.23  1262.74  1280.25  1286.51  1290.08
                             1301.42  1353.83  1386.81  1459.95  1466.83
                             1495.94  1521.29  1552.63  1591.70  1609.79
                             1638.20  1657.83  1710.08  1735.46  1745.04
                             1825.76  1864.20  1871.44  1888.60  1918.33
                             1961.30  1987.36  1999.51  2072.51  2088.66
                             2138.19  2153.26  2178.08  2198.97  2202.85
                             2214.53  2218.08  2365.83  2399.72  2409.37
                             4357.76  4363.04  4392.47  4392.85  4450.61
                             4488.10  4494.17  4575.00  4602.44  4640.75
                             4656.54  4680.35  4752.00

 Zero-point correction=                           0.229534 (Hartree/Particle)
 Thermal correction to Energy=                    0.242820
 Thermal correction to Enthalpy=                  0.243765
 Thermal correction to Gibbs Free Energy=         0.186569
 Sum of electronic and zero-point Energies=           -670.061375
 Sum of electronic and thermal Energies=              -670.048088
 Sum of electronic and thermal Enthalpies=            -670.047144
 Sum of electronic and thermal Free Energies=         -670.104340

                     E (Thermal)             CV                S
                      KCal/Mol        Cal/Mol-Kelvin    Cal/Mol-Kelvin
 Total                  152.372             50.164            120.378
 Electronic               0.000              0.000              0.000
 Translational            0.889              2.981             41.830
 Rotational               0.889              2.981             32.376
 Vibrational            150.595             44.202             46.172
 Vibration     1          0.593              1.986              6.744
 Vibration     2          0.593              1.984              5.926
 Vibration     3          0.594              1.984              5.821
 Vibration     4          0.596              1.975              4.549
 Vibration     5          0.618              1.902              2.664
 Vibration     6          0.621              1.893              2.565
 Vibration     7          0.634              1.853              2.223
 Vibration     8          0.652              1.797              1.886
 Vibration     9          0.662              1.765              1.741
 Vibration    10          0.692              1.676              1.424
 Vibration    11          0.703              1.643              1.330
 Vibration    12          0.723              1.586              1.191
 Vibration    13          0.782              1.430              0.896
 Vibration    14          0.813              1.350              0.780
 Vibration    15          0.879              1.198              0.601
 Vibration    16          0.892              1.168              0.571
 Vibration    17          0.928              1.092              0.501
 Vibration    18          0.945              1.058              0.471
 Vibration    19          0.965              1.018              0.438

 Optimization completed.
    -- Stationary point found.
 Normal termination of Gaussian 16 at Thu Dec 10 17:53:14 2020.

 ----------------------------------------------------------------------
 # B3LYP/6-311++G(d,p) empiricaldispersion=gd3bj scf=xqc pop=npa geom=c
 heck
 ----------------------------------------------------------------------

 --------------------------------------
 CID_61229267_JID_5984_Energie_neutraal
 --------------------------------------
 Structure from the checkpoint file:  "JID_5984.chk"
 Charge =  0 Multiplicity = 1

 SCF Done:  E(RB3LYP) =  -670.469497090     A.U. after   15 cycles
 Normal termination of Gaussian 16 at Thu Dec 10 17:57:00 2020.

 ----------------------------------------------------------------------
 # B3LYP/6-311++G(d,p) empiricaldispersion=gd3bj scf=xqc pop=npa geom=c
 heck
 ----------------------------------------------------------------------

 ------------------------------------
 CID_61229267_JID_5984_Energie_kation
 ------------------------------------
 Structure from the checkpoint file:  "JID_5984.chk"
 Charge =  1 Multiplicity = 2

 SCF Done:  E(UB3LYP) =  -670.170034471     A.U. after   24 cycles
 Normal termination of Gaussian 16 at Thu Dec 10 18:04:59 2020.
 Gaussian 16:  ES64L-G16RevA.03 25-Dec-2016

 ----------------------------------------------------------------------
 # B3LYP/6-311++G(d,p) empiricaldispersion=gd3bj scf=xqc pop=npa geom=c
 heck
 ----------------------------------------------------------------------

 -----------------------------------
 CID_61229267_JID_5984_Energie_anion
 -----------------------------------
 Structure from the checkpoint file:  "JID_5984.chk"
 Charge = -1 Multiplicity = 2

                         Standard orientation:
 ---------------------------------------------------------------------
 Center     Atomic      Atomic             Coordinates (Angstroms)
 Number     Number       Type             X           Y           Z
 ---------------------------------------------------------------------
      1          6           0       -4.459881   -1.515800   -0.624630
      2          6           0       -4.173772   -0.015835   -0.550520
      3          6           0       -2.771316    0.377583   -0.123353
      4          6           0       -1.803565   -0.564065    0.216882
      5          6           0       -0.519401   -0.165490    0.611765
      6          6           0       -0.183338    1.187237    0.664588
      7          6           0       -1.157689    2.132078    0.325112
      8          6           0       -2.432110    1.740164   -0.062963
      9          8           0        0.332320   -1.198620    0.925021
     10          6           0        1.629794   -0.887484    1.411155
     11          6           0        2.560598   -0.445136    0.320956
     12          6           0        2.385310   -0.532722   -1.026635
     13          8           0        3.456026   -0.037895   -1.674966
     14          7           0        4.395653    0.398544   -0.737638
     15          6           0        3.850967    0.153385    0.431442
     16          1           0       -3.796362   -2.016145   -1.338748
     17          1           0       -5.491163   -1.690579   -0.947777
     18          1           0       -4.329491   -1.998555    0.350227
     19          1           0       -4.375685    0.438292   -1.530520
     20          1           0       -4.889408    0.453252    0.139087
     21          1           0       -2.014229   -1.627082    0.192923
     22          1           0        0.812078    1.513666    0.938257
     23          1           0       -0.902766    3.187665    0.360908
     24          1           0       -3.174871    2.488923   -0.326537
     25          1           0        1.573663   -0.132941    2.208070
     26          1           0        1.984385   -1.817819    1.866799
     27          1           0        1.574112   -0.893028   -1.640953
     28          1           0        4.399820    0.413192    1.328500
 ---------------------------------------------------------------------

 SCF Done:  E(UB3LYP) =  -670.457366784     A.U. after   33 cycles
 SCF Done:  E(UB3LYP) =  -670.457366784     a.u. after    1 cycles

 The electronic state is 2-A.
 Alpha  occ. eigenvalues --  -19.11127 -19.06445 -14.26190 -10.14800 -10.14266
 Alpha  occ. eigenvalues --  -10.13837 -10.11216 -10.09437 -10.09151 -10.08387
 Alpha  occ. eigenvalues --  -10.08222 -10.07763 -10.07453 -10.07338 -10.06956
 Alpha  occ. eigenvalues --   -1.04851  -0.98030  -0.77476  -0.76690  -0.71926
 Alpha  occ. eigenvalues --   -0.69622  -0.66276  -0.63428  -0.60929  -0.55144
 Alpha  occ. eigenvalues --   -0.52467  -0.51368  -0.50150  -0.47856  -0.44533
 Alpha  occ. eigenvalues --   -0.43144  -0.39673  -0.39549  -0.37699  -0.37187
 Alpha  occ. eigenvalues --   -0.36080  -0.35430  -0.34160  -0.33186  -0.32231
 Alpha  occ. eigenvalues --   -0.30834  -0.29752  -0.28808  -0.28262  -0.26687
 Alpha  occ. eigenvalues --   -0.26510  -0.25585  -0.23911  -0.23208  -0.21434
 Alpha  occ. eigenvalues --   -0.20743  -0.17057  -0.15623  -0.13349   0.04231
 Alpha virt. eigenvalues --    0.05586   0.06441   0.06943   0.07762   0.07913
 Alpha virt. eigenvalues --    0.08372   0.08418   0.08880   0.09476   0.09896
 Alpha virt. eigenvalues --    0.10361   0.11430   0.12282   0.12502   0.12821

  Beta  occ. eigenvalues --  -19.11041 -19.06441 -14.26065 -10.14768 -10.14267
  Beta  occ. eigenvalues --  -10.13766 -10.11178 -10.09452 -10.09153 -10.08373
  Beta  occ. eigenvalues --  -10.08202 -10.07750 -10.07437 -10.07328 -10.06924
  Beta  occ. eigenvalues --   -1.04695  -0.98022  -0.77320  -0.76663  -0.71841
  Beta  occ. eigenvalues --   -0.69589  -0.66231  -0.63392  -0.60865  -0.55089
  Beta  occ. eigenvalues --   -0.52418  -0.51245  -0.50082  -0.47769  -0.44481
  Beta  occ. eigenvalues --   -0.43072  -0.39629  -0.39510  -0.37411  -0.37090
  Beta  occ. eigenvalues --   -0.36052  -0.35327  -0.34130  -0.33150  -0.32177
  Beta  occ. eigenvalues --   -0.30775  -0.29704  -0.28762  -0.28223  -0.26654
  Beta  occ. eigenvalues --   -0.26466  -0.25544  -0.23879  -0.23158  -0.21289
  Beta  occ. eigenvalues --   -0.20322  -0.16719  -0.15530  -0.13315
  Beta virt. eigenvalues --    0.06353   0.07036   0.07209   0.07426   0.07897
  Beta virt. eigenvalues --    0.08478   0.08617   0.08738   0.09112   0.09935
  Beta virt. eigenvalues --    0.10282   0.10641   0.11783   0.12388   0.12785

 Mulliken charges and spin densities:
               1          2
     1  C    0.315799  -0.891789
     2  C    0.831847  -1.317700
     3  C   -0.678800   1.848260
     4  C   -0.674033  -0.546318
     5  C   -0.419147  -0.120655
     6  C    1.292512  -0.976108
     7  C   -0.308040   0.005901
     8  C    0.008801   0.176283
     9  O   -0.093973   0.016362
    10  C    1.161914  -1.882637
    11  C   -0.065126   0.343548
    12  C   -0.338947   0.170826
    13  O    0.133968   0.020046
    14  N   -0.330932   0.076428
    15  C    0.084919  -0.078296
    16  H   -0.072842   0.217908
    17  H   -0.649666   0.819073
    18  H   -0.035270   0.179149
    19  H   -0.039287   0.197662
    20  H   -0.111374   0.275934
    21  H    0.273849  -0.109610
    22  H    0.251994  -0.070748
    23  H   -0.261789   0.437144
    24  H   -0.015109   0.157396
    25  H   -0.325327   0.521508
    26  H   -0.434910   0.638725
    27  H    0.085354   0.105493
    28  H   -0.586388   0.786218
 Sum of Mulliken charges =  -1.00000   1.00000

 Dipole moment (field-independent basis, Debye):
    X=              0.5518    Y=              0.2319    Z=             -0.7691  Tot=              0.9746
 Quadrupole moment (field-independent basis, Debye-Ang):
   XX=           -198.1204   YY=           -121.2212   ZZ=           -124.6713
   XY=             -9.6590   XZ=             -8.5889   YZ=             -0.8492

 Summary of Natural Population Analysis:

                                       Natural Population
                Natural  -----------------------------------------------
    Atom  No    Charge         Core      Valence    Rydberg      Total
 -----------------------------------------------------------------------
      C    1   -0.28837      0.99967     2.28309    0.00561     3.28837
      C    2   -0.19780      0.99961     2.18954    0.00865     3.19780
      C    3   -0.00466      0.99952     1.99475    0.01039     3.00466
      C    4   -0.12511      0.99947     2.11736    0.00828     3.12511
      C    5    0.16190      0.99937     1.82494    0.01379     2.83810
      C    6   -0.14890      0.99951     2.14009    0.00930     3.14890
      C    7   -0.08640      0.99957     2.07743    0.00939     3.08640
      C    8   -0.11516      0.99951     2.10657    0.00908     3.11516
      O    9   -0.27583      0.99986     3.26621    0.00976     4.27583
      C   10   -0.01402      0.99952     2.00114    0.01336     3.01402
      C   11   -0.10656      0.99951     2.09643    0.01062     3.10656
      C   12    0.09649      0.99946     1.89081    0.01323     2.90351
      O   13   -0.15686      0.99987     3.14786    0.00913     4.15686
      N   14   -0.06266      0.99971     2.54961    0.01334     3.56266
      C   15   -0.00256      0.99960     1.98793    0.01503     3.00256
      H   16    0.09793      0.00000     0.40094    0.00113     0.40207
      H   17    0.10357      0.00000     0.39492    0.00151     0.39643
      H   18    0.09746      0.00000     0.40142    0.00112     0.40254
      H   19    0.10234      0.00000     0.39639    0.00127     0.39766
      H   20    0.10265      0.00000     0.39613    0.00123     0.39735
      H   21    0.10761      0.00000     0.39059    0.00180     0.39239
      H   22    0.10957      0.00000     0.38857    0.00186     0.39043
      H   23    0.10014      0.00000     0.39896    0.00090     0.39986
      H   24    0.09928      0.00000     0.39972    0.00100     0.40072
      H   25    0.09444      0.00000     0.40330    0.00226     0.40556
      H   26    0.10156      0.00000     0.39656    0.00188     0.39844
      H   27    0.10380      0.00000     0.39495    0.00126     0.39620
      H   28    0.10615      0.00000     0.39194    0.00190     0.39385
 =======================================================================
   * Total *   -0.00000     14.99377    38.82816    0.17806    54.00000

 Normal termination of Gaussian 16 at Thu Dec 10 18:16:42 2020.
