 Gaussian 16, Revision A.03,

 -----------------------------------------------------------
 # opt freq B3LYP/6-31G(d) empiricaldispersion=gd3bj scf=xqc
 -----------------------------------------------------------

 ------------------------------
 CID_81466800_JID_7753_neutraal
 ------------------------------
 Symbolic Z-matrix:
 Charge =  0 Multiplicity = 1

 SCF Done:  E(RB3LYP) =  -695.628084769     A.U. after   14 cycles
 SCF Done:  E(RB3LYP) =  -695.631724272     A.U. after   12 cycles
 SCF Done:  E(RB3LYP) =  -695.632174774     A.U. after   11 cycles
 SCF Done:  E(RB3LYP) =  -695.632251480     A.U. after   11 cycles
 SCF Done:  E(RB3LYP) =  -695.632275147     A.U. after   10 cycles
 SCF Done:  E(RB3LYP) =  -695.632287023     A.U. after   10 cycles
 SCF Done:  E(RB3LYP) =  -695.632293638     A.U. after   10 cycles
 SCF Done:  E(RB3LYP) =  -695.632296240     A.U. after    9 cycles
 SCF Done:  E(RB3LYP) =  -695.632296602     A.U. after    7 cycles
 SCF Done:  E(RB3LYP) =  -695.632296679     A.U. after    6 cycles
 Optimization completed.
    -- Stationary point found.
 Normal termination of Gaussian 16 at Sun Dec 13 12:27:58 2020.

 --------------------------------------------------------------------
 #N Geom=AllCheck Guess=TCheck SCRF=Check GenChk RB3LYP/6-31G(d) Freq
 --------------------------------------------------------------------

 Structure from the checkpoint file:  "JID_7753.chk"
 ------------------------------
 CID_81466800_JID_7753_neutraal
 ------------------------------
 Charge =  0 Multiplicity = 1

 SCF Done:  E(RB3LYP) =  -695.632296679     A.U. after    1 cycles

  Exact polarizability: 222.729  -8.198 156.683  11.222  14.966 134.326
 Approx polarizability: 287.576 -13.659 242.905  26.600  37.197 203.168

                      1                      2                      3
                      A                      A                      A
 Frequencies --     24.0851                26.6427                37.1901
 Red. masses --      3.3205                 2.9120                 3.2165
 Frc consts  --      0.0011                 0.0012                 0.0026
 IR Inten    --      0.0106                 0.1035                 0.0255

                      4                      5                      6
                      A                      A                      A
 Frequencies --     51.2738                98.8289               129.3273
 Red. masses --      3.6061                 3.4756                 2.9816
 Frc consts  --      0.0056                 0.0200                 0.0294
 IR Inten    --      0.1885                 0.3292                 1.1890

                      7                      8                      9
                      A                      A                      A
 Frequencies --    131.3923               210.0245               222.9388
 Red. masses --      3.0324                 2.0819                 2.5368
 Frc consts  --      0.0308                 0.0541                 0.0743
 IR Inten    --      0.5988                 0.3949                 1.4525

                     10                     11                     12
                      A                      A                      A
 Frequencies --    231.6645               236.9341               240.7590
 Red. masses --      1.1443                 1.0646                 1.4226
 Frc consts  --      0.0362                 0.0352                 0.0486
 IR Inten    --      0.6418                 0.0944                 0.3432

                     13                     14                     15
                      A                      A                      A
 Frequencies --    266.6351               276.1733               291.6565
 Red. masses --      1.3104                 2.0514                 2.2880
 Frc consts  --      0.0549                 0.0922                 0.1147
 IR Inten    --      1.7617                 1.3809                 2.0811

                     16                     17                     18
                      A                      A                      A
 Frequencies --    311.2644               321.2490               325.0822
 Red. masses --      2.5335                 2.3537                 3.2292
 Frc consts  --      0.1446                 0.1431                 0.2011
 IR Inten    --      0.5682                 2.5018                 1.7812

                     19                     20                     21
                      A                      A                      A
 Frequencies --    368.6806               403.0817               456.3316
 Red. masses --      2.3053                 2.5847                 2.6848
 Frc consts  --      0.1846                 0.2474                 0.3294
 IR Inten    --      2.5119                 2.4434                 2.8083

                     22                     23                     24
                      A                      A                      A
 Frequencies --    470.7540               486.2264               494.3284
 Red. masses --      2.7922                 2.8027                 2.5766
 Frc consts  --      0.3646                 0.3904                 0.3710
 IR Inten    --      6.3528                 3.5317                 0.1858

                     25                     26                     27
                      A                      A                      A
 Frequencies --    566.0589               585.9121               600.9167
 Red. masses --      3.4314                 2.7435                 2.7795
 Frc consts  --      0.6478                 0.5549                 0.5914
 IR Inten    --     19.1948                13.4668                38.6755

                     28                     29                     30
                      A                      A                      A
 Frequencies --    633.9608               654.1697               715.7606
 Red. masses --      2.9820                 3.4709                 1.9753
 Frc consts  --      0.7061                 0.8751                 0.5962
 IR Inten    --     24.0089                26.9395                12.5575

                     31                     32                     33
                      A                      A                      A
 Frequencies --    723.6730               762.1002               794.0214
 Red. masses --      4.4491                 2.6535                 1.7561
 Frc consts  --      1.3728                 0.9080                 0.6523
 IR Inten    --      3.8183                13.6641                30.3885

                     34                     35                     36
                      A                      A                      A
 Frequencies --    798.1980               867.0039               872.1619
 Red. masses --      2.9293                 1.6532                 1.4740
 Frc consts  --      1.0996                 0.7322                 0.6606
 IR Inten    --      9.7072                11.3951                 1.0475

                     37                     38                     39
                      A                      A                      A
 Frequencies --    878.4772               892.3648               910.3497
 Red. masses --      2.1029                 2.1028                 2.2541
 Frc consts  --      0.9562                 0.9866                 1.1006
 IR Inten    --      5.7128                 3.7715                 1.4957

                     40                     41                     42
                      A                      A                      A
 Frequencies --    918.0962               942.6919               957.8079
 Red. masses --      1.8157                 1.1731                 1.2582
 Frc consts  --      0.9017                 0.6142                 0.6801
 IR Inten    --      1.2183                 0.8436                 0.2012

                     43                     44                     45
                      A                      A                      A
 Frequencies --    972.7054               974.8680              1004.9395
 Red. masses --      2.4089                 1.4893                 2.1102
 Frc consts  --      1.3429                 0.8339                 1.2556
 IR Inten    --     12.0843                 0.1931                 4.1954

                     46                     47                     48
                      A                      A                      A
 Frequencies --   1016.1848              1022.6409              1045.9060
 Red. masses --      4.7036                 1.9820                 1.9382
 Frc consts  --      2.8617                 1.2212                 1.2492
 IR Inten    --     10.5757                15.6535                 2.5341

                     49                     50                     51
                      A                      A                      A
 Frequencies --   1074.1830              1082.1647              1115.2853
 Red. masses --      1.9894                 1.5985                 1.6161
 Frc consts  --      1.3525                 1.1030                 1.1844
 IR Inten    --      6.9479                15.1248                21.0762

                     52                     53                     54
                      A                      A                      A
 Frequencies --   1132.4196              1136.1149              1142.9810
 Red. masses --      1.5590                 2.3014                 2.3358
 Frc consts  --      1.1779                 1.7502                 1.7979
 IR Inten    --      3.1887                 0.6422                 8.6797

                     55                     56                     57
                      A                      A                      A
 Frequencies --   1156.8067              1167.4635              1188.0100
 Red. masses --      1.4247                 1.5677                 1.7454
 Frc consts  --      1.1233                 1.2589                 1.4514
 IR Inten    --      9.0991                 1.5429                 1.5056

                     58                     59                     60
                      A                      A                      A
 Frequencies --   1205.2533              1209.2646              1231.5608
 Red. masses --      1.2527                 1.6453                 1.7210
 Frc consts  --      1.0722                 1.4175                 1.5380
 IR Inten    --      7.3651                26.6436                 9.3191

                     61                     62                     63
                      A                      A                      A
 Frequencies --   1245.9776              1271.4074              1277.1024
 Red. masses --      1.7597                 2.0415                 1.8737
 Frc consts  --      1.6096                 1.9443                 1.8006
 IR Inten    --     33.3396                11.7288                28.2812

                     64                     65                     66
                      A                      A                      A
 Frequencies --   1294.1060              1310.9029              1331.5184
 Red. masses --      1.4934                 2.4676                 1.3782
 Frc consts  --      1.4735                 2.4985                 1.4397
 IR Inten    --     15.4398                53.7849                 1.3604

                     67                     68                     69
                      A                      A                      A
 Frequencies --   1341.7749              1363.7731              1368.5374
 Red. masses --      1.8804                 1.3261                 1.4829
 Frc consts  --      1.9946                 1.4531                 1.6363
 IR Inten    --     54.0027                 3.3720                10.5080

                     70                     71                     72
                      A                      A                      A
 Frequencies --   1371.2643              1377.7240              1394.0750
 Red. masses --      1.6160                 1.8752                 1.4916
 Frc consts  --      1.7903                 2.0971                 1.7079
 IR Inten    --      4.8722                 8.6694                36.3675

                     73                     74                     75
                      A                      A                      A
 Frequencies --   1396.9988              1407.9450              1425.6543
 Red. masses --      1.7005                 1.4268                 1.2316
 Frc consts  --      1.9553                 1.6664                 1.4748
 IR Inten    --      9.3716                10.1140                 2.9596

                     76                     77                     78
                      A                      A                      A
 Frequencies --   1438.4048              1446.8520              1481.9046
 Red. masses --      1.3186                 1.2267                 1.1877
 Frc consts  --      1.6074                 1.5130                 1.5368
 IR Inten    --     15.7517                 0.8235                 4.1676

                     79                     80                     81
                      A                      A                      A
 Frequencies --   1488.0728              1515.8536              1517.4850
 Red. masses --      2.2962                 1.0514                 1.0440
 Frc consts  --      2.9957                 1.4234                 1.4164
 IR Inten    --     62.4756                 6.5256                 0.0099

                     82                     83                     84
                      A                      A                      A
 Frequencies --   1520.9218              1522.4388              1526.2538
 Red. masses --      1.0491                 1.0858                 1.0824
 Frc consts  --      1.4298                 1.4828                 1.4856
 IR Inten    --      2.0670                 5.0932                 4.5755

                     85                     86                     87
                      A                      A                      A
 Frequencies --   1530.8558              1531.6701              1533.8055
 Red. masses --      1.0577                 1.1505                 1.2111
 Frc consts  --      1.4604                 1.5902                 1.6786
 IR Inten    --      7.7215                18.6924                 4.7931

                     88                     89                     90
                      A                      A                      A
 Frequencies --   1535.7556              1538.8681              1541.7310
 Red. masses --      1.3174                 1.0754                 1.1066
 Frc consts  --      1.8307                 1.5005                 1.5498
 IR Inten    --      2.9443                11.1030                 6.2087

                     91                     92                     93
                      A                      A                      A
 Frequencies --   1566.7483              1649.0997              1668.9005
 Red. masses --      1.8157                 4.9391                 5.6443
 Frc consts  --      2.6260                 7.9139                 9.2624
 IR Inten    --    101.3219                47.6409               147.9881

                     94                     95                     96
                      A                      A                      A
 Frequencies --   2897.8311              2910.3956              2938.0068
 Red. masses --      1.0806                 1.0737                 1.0624
 Frc consts  --      5.3464                 5.3587                 5.4032
 IR Inten    --     32.3266                80.4904               131.3438

                     97                     98                     99
                      A                      A                      A
 Frequencies --   3030.6355              3043.5747              3047.9237
 Red. masses --      1.0842                 1.0348                 1.0353
 Frc consts  --      5.8669                 5.6477                 5.6669
 IR Inten    --     18.0222                27.0884                38.1808

                    100                    101                    102
                      A                      A                      A
 Frequencies --   3051.1048              3076.8340              3087.2785
 Red. masses --      1.0354                 1.0621                 1.0701
 Frc consts  --      5.6788                 5.9243                 6.0092
 IR Inten    --     18.9775                23.6919                32.3351

                    103                    104                    105
                      A                      A                      A
 Frequencies --   3105.8484              3107.9918              3108.2020
 Red. masses --      1.0896                 1.0887                 1.1024
 Frc consts  --      6.1925                 6.1961                 6.2747
 IR Inten    --     11.4205                24.4390                 0.5751

                    106                    107                    108
                      A                      A                      A
 Frequencies --   3114.2187              3119.5470              3120.1672
 Red. masses --      1.1018                 1.1019                 1.1027
 Frc consts  --      6.2956                 6.3177                 6.3251
 IR Inten    --     82.7301                38.8898                27.9477

                    109                    110                    111
                      A                      A                      A
 Frequencies --   3121.8729              3122.7687              3125.4086
 Red. masses --      1.1029                 1.1022                 1.1018
 Frc consts  --      6.3330                 6.3329                 6.3410
 IR Inten    --     10.2998                32.0939                40.7062

                    112                    113                    114
                      A                      A                      A
 Frequencies --   3130.7701              3170.6436              3185.9133
 Red. masses --      1.1028                 1.0862                 1.0898
 Frc consts  --      6.3688                 6.4335                 6.5175
 IR Inten    --     37.8182                 8.5057                25.3501

                    115                    116                    117
                      A                      A                      A
 Frequencies --   3200.1976              3202.3929              3550.5729
 Red. masses --      1.0896                 1.0939                 1.0746
 Frc consts  --      6.5748                 6.6095                 7.9813
 IR Inten    --     38.1117                 6.1568                 8.2518

 - Thermochemistry -
 -------------------
 Temperature   298.150 Kelvin.  Pressure   1.00000 Atm.
 Atom     1 has atomic number  6 and mass  12.00000

 Molecular mass:   232.19395 amu.
 Principal axes and moments of inertia in atomic units:
                           1         2         3
     Eigenvalues --  1867.027398705.818429132.81833
           X            0.99996  -0.00793  -0.00273
           Y            0.00789   0.99989  -0.01238
           Z            0.00283   0.01236   0.99992
 This molecule is an asymmetric top.
 Rotational symmetry number  1.
 Warning -- assumption of classical behavior for rotation
           may cause significant error
 Rotational temperatures (Kelvin)      0.04639     0.00995     0.00948
 Rotational constants (GHZ):           0.96664     0.20730     0.19761
 Zero-point vibrational energy     971185.2 (Joules/Mol)
                                  232.11883 (Kcal/Mol)
 Warning -- explicit consideration of  27 degrees of freedom as
           vibrations may cause significant error
 Vibrational temperatures:     34.65    38.33    53.51    73.77   142.19
          (Kelvin)            186.07   189.04   302.18   320.76   333.31
                              340.90   346.40   383.63   397.35   419.63
                              447.84   462.21   467.72   530.45   579.94
                              656.56   677.31   699.57   711.23   814.43
                              843.00   864.59   912.13   941.20  1029.82
                             1041.20  1096.49  1142.42  1148.43  1247.43
                             1254.85  1263.93  1283.91  1309.79  1320.94
                             1356.32  1378.07  1399.51  1402.62  1445.88
                             1462.06  1471.35  1504.83  1545.51  1556.99
                             1604.65  1629.30  1634.62  1644.49  1664.39
                             1679.72  1709.28  1734.09  1739.86  1771.94
                             1792.68  1829.27  1837.47  1861.93  1886.10
                             1915.76  1930.51  1962.17  1969.02  1972.94
                             1982.24  2005.76  2009.97  2025.72  2051.20
                             2069.54  2081.70  2132.13  2141.00  2180.98
                             2183.32  2188.27  2190.45  2195.94  2202.56
                             2203.73  2206.80  2209.61  2214.09  2218.21
                             2254.20  2372.69  2401.18  4169.33  4187.41
                             4227.14  4360.41  4379.03  4385.28  4389.86
                             4426.88  4441.91  4468.62  4471.71  4472.01
                             4480.67  4488.33  4489.22  4491.68  4492.97
                             4496.77  4504.48  4561.85  4583.82  4604.37
                             4607.53  5108.48

 Zero-point correction=                           0.369905 (Hartree/Particle)
 Thermal correction to Energy=                    0.387392
 Thermal correction to Enthalpy=                  0.388337
 Thermal correction to Gibbs Free Energy=         0.323412
 Sum of electronic and zero-point Energies=           -695.262392
 Sum of electronic and thermal Energies=              -695.244904
 Sum of electronic and thermal Enthalpies=            -695.243960
 Sum of electronic and thermal Free Energies=         -695.308884

                     E (Thermal)             CV                S
                      KCal/Mol        Cal/Mol-Kelvin    Cal/Mol-Kelvin
 Total                  243.092             67.852            136.644
 Electronic               0.000              0.000              0.000
 Translational            0.889              2.981             42.229
 Rotational               0.889              2.981             33.362
 Vibrational            241.315             61.890             61.054
 Vibration     1          0.593              1.985              6.265
 Vibration     2          0.593              1.984              6.065
 Vibration     3          0.594              1.982              5.403
 Vibration     4          0.596              1.977              4.768
 Vibration     5          0.604              1.950              3.477
 Vibration     6          0.612              1.924              2.956
 Vibration     7          0.612              1.922              2.926
 Vibration     8          0.642              1.825              2.043
 Vibration     9          0.649              1.806              1.935
 Vibration    10          0.653              1.793              1.866
 Vibration    11          0.656              1.784              1.826
 Vibration    12          0.658              1.778              1.797
 Vibration    13          0.672              1.734              1.618
 Vibration    14          0.678              1.717              1.557
 Vibration    15          0.687              1.689              1.464
 Vibration    16          0.700              1.652              1.356
 Vibration    17          0.707              1.633              1.304
 Vibration    18          0.709              1.625              1.284
 Vibration    19          0.741              1.537              1.085
 Vibration    20          0.768              1.463              0.951
 Vibration    21          0.815              1.347              0.777
 Vibration    22          0.828              1.315              0.735
 Vibration    23          0.842              1.281              0.693
 Vibration    24          0.850              1.263              0.672
 Vibration    25          0.922              1.105              0.512
 Vibration    26          0.943              1.062              0.475
 Vibration    27          0.959              1.030              0.448

                           ! Non-Optimized Parameters !
 Normal termination of Gaussian 16 at Sun Dec 13 12:45:32 2020.

 ----------------------------------------------------------------------
 # B3LYP/6-311++G(d,p) empiricaldispersion=gd3bj scf=xqc pop=npa geom=c
 heck
 ----------------------------------------------------------------------

 --------------------------------------
 CID_81466800_JID_7753_Energie_neutraal
 --------------------------------------
 Structure from the checkpoint file:  "JID_7753.chk"
 Charge =  0 Multiplicity = 1

 SCF Done:  E(RB3LYP) =  -695.819820745     A.U. after   14 cycles
 Normal termination of Gaussian 16 at Sun Dec 13 12:53:46 2020.

 ----------------------------------------------------------------------
 # B3LYP/6-311++G(d,p) empiricaldispersion=gd3bj scf=xqc pop=npa geom=c
 heck
 ----------------------------------------------------------------------

 ------------------------------------
 CID_81466800_JID_7753_Energie_kation
 ------------------------------------
 Structure from the checkpoint file:  "JID_7753.chk"
 Charge =  1 Multiplicity = 2

 SCF Done:  E(UB3LYP) =  -695.558381183     A.U. after   24 cycles
 Normal termination of Gaussian 16 at Sun Dec 13 13:14:02 2020.
 Gaussian 16:  ES64L-G16RevA.03 25-Dec-2016

 ----------------------------------------------------------------------
 # B3LYP/6-311++G(d,p) empiricaldispersion=gd3bj scf=xqc pop=npa geom=c
 heck
 ----------------------------------------------------------------------

 -----------------------------------
 CID_81466800_JID_7753_Energie_anion
 -----------------------------------
 Structure from the checkpoint file:  "JID_7753.chk"
 Charge = -1 Multiplicity = 2

                         Standard orientation:
 ---------------------------------------------------------------------
 Center     Atomic      Atomic             Coordinates (Angstroms)
 Number     Number       Type             X           Y           Z
 ---------------------------------------------------------------------
      1          6           0       -5.014734    0.616351   -0.125638
      2          6           0       -3.878208   -0.348419   -0.445485
      3          6           0       -2.921983    0.160845   -1.552817
      4          6           0       -1.493796   -0.166840   -1.051234
      5          6           0       -1.765408   -1.133040    0.114683
      6          7           0       -2.981067   -0.572175    0.697553
      7          6           0       -3.542709   -1.379901    1.762521
      8          7           0       -0.831359    1.060710   -0.621141
      9          6           0        0.481433    1.038633   -0.141590
     10          6           0        0.931838    2.099266    0.664822
     11          6           0        2.247907    2.133532    1.109848
     12          6           0        3.145502    1.120460    0.770970
     13          6           0        2.717531    0.052316   -0.025556
     14          6           0        1.392586    0.019222   -0.469326
     15          6           0        3.667797   -1.072859   -0.402437
     16          6           0        4.854298   -0.556981   -1.233307
     17          6           0        4.154659   -1.839208    0.838736
     18          1           0       -5.616231    0.807340   -1.021255
     19          1           0       -4.609569    1.569885    0.231070
     20          1           0       -5.685113    0.219262    0.643884
     21          1           0       -4.314474   -1.315657   -0.769701
     22          1           0       -3.134364   -0.326282   -2.508254
     23          1           0       -3.021867    1.239632   -1.710971
     24          1           0       -0.889657   -0.627367   -1.835787
     25          1           0       -0.949628   -1.155660    0.843349
     26          1           0       -1.922747   -2.165448   -0.261462
     27          1           0       -3.849631   -2.387393    1.417943
     28          1           0       -2.800558   -1.503262    2.557923
     29          1           0       -4.418160   -0.886031    2.194705
     30          1           0       -1.443121    1.604979   -0.021770
     31          1           0        0.240990    2.896376    0.930120
     32          1           0        2.577142    2.961628    1.732349
     33          1           0        4.169704    1.161306    1.129651
     34          1           0        1.072586   -0.819256   -1.079141
     35          1           0        3.106496   -1.779020   -1.029095
     36          1           0        5.466583    0.142840   -0.653209
     37          1           0        5.499492   -1.386606   -1.545923
     38          1           0        4.507641   -0.032481   -2.129922
     39          1           0        3.309686   -2.229429    1.416015
     40          1           0        4.794028   -2.681821    0.549742
     41          1           0        4.737471   -1.187541    1.499710
 ---------------------------------------------------------------------

 SCF Done:  E(UB3LYP) =  -695.805789326     A.U. after   33 cycles
 SCF Done:  E(UB3LYP) =  -695.805789326     a.u. after    1 cycles

 The electronic state is 2-A.
 Alpha  occ. eigenvalues --  -14.22743 -14.21390 -10.12149 -10.11603 -10.10808
 Alpha  occ. eigenvalues --  -10.09689 -10.09508 -10.08933 -10.08774 -10.08473
 Alpha  occ. eigenvalues --  -10.07808 -10.07667 -10.07350 -10.07153 -10.07125
 Alpha  occ. eigenvalues --  -10.06970 -10.06943  -0.86119  -0.83150  -0.76116
 Alpha  occ. eigenvalues --   -0.71247  -0.69063  -0.66749  -0.64763  -0.62730
 Alpha  occ. eigenvalues --   -0.59630  -0.59046  -0.57223  -0.53469  -0.52162
 Alpha  occ. eigenvalues --   -0.48691  -0.48405  -0.46511  -0.42712  -0.41045
 Alpha  occ. eigenvalues --   -0.40287  -0.38788  -0.37707  -0.36989  -0.35625
 Alpha  occ. eigenvalues --   -0.35019  -0.34158  -0.33698  -0.32742  -0.32619
 Alpha  occ. eigenvalues --   -0.31245  -0.30569  -0.29942  -0.29758  -0.29170
 Alpha  occ. eigenvalues --   -0.28638  -0.27527  -0.27043  -0.26165  -0.25883
 Alpha  occ. eigenvalues --   -0.25126  -0.24822  -0.24116  -0.23865  -0.23464
 Alpha  occ. eigenvalues --   -0.20143  -0.15800  -0.13390  -0.11299   0.04070
 Alpha virt. eigenvalues --    0.05492   0.06368   0.06870   0.07076   0.07623
 Alpha virt. eigenvalues --    0.07828   0.08037   0.08762   0.08945   0.09072
 Alpha virt. eigenvalues --    0.09644   0.09848   0.10356   0.10767   0.11260

  Beta  occ. eigenvalues --  -14.22740 -14.21369 -10.12149 -10.11594 -10.10795
  Beta  occ. eigenvalues --  -10.09675 -10.09483 -10.08924 -10.08775 -10.08470
  Beta  occ. eigenvalues --  -10.07794 -10.07662 -10.07344 -10.07134 -10.07116
  Beta  occ. eigenvalues --  -10.06947 -10.06914  -0.86099  -0.83133  -0.76106
  Beta  occ. eigenvalues --   -0.71227  -0.69035  -0.66721  -0.64749  -0.62710
  Beta  occ. eigenvalues --   -0.59586  -0.58998  -0.57172  -0.53441  -0.52137
  Beta  occ. eigenvalues --   -0.48665  -0.48367  -0.46456  -0.42684  -0.41008
  Beta  occ. eigenvalues --   -0.40257  -0.38761  -0.37667  -0.36954  -0.35601
  Beta  occ. eigenvalues --   -0.34994  -0.34125  -0.33682  -0.32713  -0.32593
  Beta  occ. eigenvalues --   -0.31219  -0.30540  -0.29920  -0.29733  -0.29150
  Beta  occ. eigenvalues --   -0.28605  -0.27496  -0.27017  -0.26142  -0.25852
  Beta  occ. eigenvalues --   -0.25102  -0.24784  -0.24085  -0.23834  -0.23444
  Beta  occ. eigenvalues --   -0.20132  -0.15793  -0.13280  -0.11290
  Beta virt. eigenvalues --    0.05867   0.06319   0.06779   0.07359   0.07593
  Beta virt. eigenvalues --    0.07789   0.08018   0.08253   0.08830   0.09188
  Beta virt. eigenvalues --    0.09505   0.10036   0.10257   0.10572   0.10882

 Mulliken charges and spin densities:
               1          2
     1  C    0.899794  -1.550131
     2  C   -0.758221   0.757923
     3  C    0.529971  -1.332974
     4  C   -0.641595   0.751241
     5  C   -0.254529  -0.343559
     6  N    0.170186   0.047640
     7  C    0.556992  -0.844537
     8  N    0.215386  -0.052935
     9  C    0.910892  -1.097164
    10  C    0.085391  -0.025974
    11  C   -0.239742  -0.137682
    12  C    0.030974  -0.587030
    13  C    0.344711   0.355440
    14  C   -0.511058   0.284519
    15  C   -1.309184   1.509240
    16  C    0.135407  -0.829197
    17  C    0.230977  -0.921516
    18  H   -0.189458   0.328963
    19  H   -0.173189   0.310899
    20  H   -0.173433   0.312652
    21  H   -0.145395   0.302994
    22  H   -0.191848   0.344175
    23  H    0.009558   0.177702
    24  H   -0.229980   0.495363
    25  H    0.410039  -0.239199
    26  H   -0.269659   0.407209
    27  H   -0.126205   0.244668
    28  H   -0.173725   0.304632
    29  H   -0.120749   0.245780
    30  H    0.590489  -0.341794
    31  H   -0.135270   0.253823
    32  H   -0.010240   0.171225
    33  H    0.133235  -0.020998
    34  H    0.264469  -0.172933
    35  H   -0.315592   0.488190
    36  H   -0.048835   0.195394
    37  H   -0.211697   0.354703
    38  H    0.053707   0.082633
    39  H   -0.081976   0.220687
    40  H   -0.221707   0.364111
    41  H   -0.038890   0.185815
 Sum of Mulliken charges =  -1.00000   1.00000

 Dipole moment (field-independent basis, Debye):
    X=              2.0217    Y=              3.7612    Z=              0.9960  Tot=              4.3847
 Quadrupole moment (field-independent basis, Debye-Ang):
   XX=           -220.7479   YY=           -151.4475   ZZ=           -147.3602
   XY=              5.4378   XZ=              2.3948   YZ=             -0.1991

 Summary of Natural Population Analysis:

                                       Natural Population
                Natural  -----------------------------------------------
    Atom  No    Charge         Core      Valence    Rydberg      Total
 -----------------------------------------------------------------------
      C    1   -0.28657      0.99964     2.28064    0.00629     3.28657
      C    2   -0.00671      0.99961     1.99416    0.01294     3.00671
      C    3   -0.19098      0.99960     2.18177    0.00960     3.19098
      C    4   -0.01348      0.99958     2.00038    0.01352     3.01348
      C    5   -0.09092      0.99960     2.08047    0.01085     3.09092
      N    6   -0.28301      0.99970     2.77109    0.01222     3.78301
      C    7   -0.17618      0.99965     2.16810    0.00843     3.17618
      N    8   -0.31283      0.99968     2.80289    0.01027     3.81283
      C    9    0.09649      0.99949     1.89387    0.01014     2.90351
      C   10   -0.12681      0.99953     2.11889    0.00839     3.12681
      C   11   -0.09103      0.99957     2.08198    0.00947     3.09103
      C   12   -0.12707      0.99950     2.11932    0.00825     3.12707
      C   13    0.00152      0.99951     1.98729    0.01168     2.99848
      C   14   -0.13204      0.99947     2.12464    0.00793     3.13204
      C   15   -0.11902      0.99958     2.10890    0.01054     3.11902
      C   16   -0.28023      0.99965     2.27432    0.00626     3.28023
      C   17   -0.28023      0.99965     2.27442    0.00617     3.28023
      H   18    0.10128      0.00000     0.39778    0.00094     0.39872
      H   19    0.09828      0.00000     0.40033    0.00138     0.40172
      H   20    0.10082      0.00000     0.39798    0.00119     0.39918
      H   21    0.08013      0.00000     0.41731    0.00256     0.41987
      H   22    0.10662      0.00000     0.39232    0.00106     0.39338
      H   23    0.10173      0.00000     0.39685    0.00141     0.39827
      H   24    0.09976      0.00000     0.39853    0.00171     0.40024
      H   25    0.10277      0.00000     0.39560    0.00162     0.39723
      H   26    0.08352      0.00000     0.41487    0.00162     0.41648
      H   27    0.08163      0.00000     0.41705    0.00132     0.41837
      H   28    0.09685      0.00000     0.40221    0.00094     0.40315
      H   29    0.09646      0.00000     0.40231    0.00123     0.40354
      H   30    0.18375      0.00000     0.31298    0.00327     0.31625
      H   31    0.09762      0.00000     0.40110    0.00128     0.40238
      H   32    0.09771      0.00000     0.40153    0.00076     0.40229
      H   33    0.09880      0.00000     0.39992    0.00128     0.40120
      H   34    0.10202      0.00000     0.39592    0.00206     0.39798
      H   35    0.09720      0.00000     0.40074    0.00206     0.40280
      H   36    0.09571      0.00000     0.40338    0.00091     0.40429
      H   37    0.09878      0.00000     0.40033    0.00089     0.40122
      H   38    0.10096      0.00000     0.39828    0.00077     0.39904
      H   39    0.10235      0.00000     0.39668    0.00096     0.39765
      H   40    0.09882      0.00000     0.40020    0.00098     0.40118
      H   41    0.09550      0.00000     0.40352    0.00098     0.40450
 =======================================================================
   * Total *   -0.00000     16.99301    46.81083    0.19616    64.00000

 Normal termination of Gaussian 16 at Sun Dec 13 13:41:26 2020.
