 Gaussian 16, Revision A.03,

 -----------------------------------------------------------
 # opt freq B3LYP/6-31G(d) empiricaldispersion=gd3bj scf=xqc
 -----------------------------------------------------------

 ------------------------------
 CID_28602266_JID_5320_neutraal
 ------------------------------
 Symbolic Z-matrix:
 Charge =  0 Multiplicity = 1

 SCF Done:  E(RB3LYP) =  -686.368005491     A.U. after   15 cycles
 SCF Done:  E(RB3LYP) =  -686.371639683     A.U. after   13 cycles
 SCF Done:  E(RB3LYP) =  -686.371777471     A.U. after   13 cycles
 SCF Done:  E(RB3LYP) =  -686.372925021     A.U. after   13 cycles
 SCF Done:  E(RB3LYP) =  -686.374888137     A.U. after   13 cycles
 SCF Done:  E(RB3LYP) =  -686.377660257     A.U. after   14 cycles
 SCF Done:  E(RB3LYP) =  -686.378588364     A.U. after   12 cycles
 SCF Done:  E(RB3LYP) =  -686.379897994     A.U. after   13 cycles
 SCF Done:  E(RB3LYP) =  -686.380217874     A.U. after   13 cycles
 SCF Done:  E(RB3LYP) =  -686.380402202     A.U. after   12 cycles
 SCF Done:  E(RB3LYP) =  -686.380539390     A.U. after    9 cycles
 SCF Done:  E(RB3LYP) =  -686.380540437     A.U. after    9 cycles
 SCF Done:  E(RB3LYP) =  -686.380540604     A.U. after    8 cycles
 SCF Done:  E(RB3LYP) =  -686.380540714     A.U. after    8 cycles
 SCF Done:  E(RB3LYP) =  -686.380540781     A.U. after    8 cycles
 SCF Done:  E(RB3LYP) =  -686.380540819     A.U. after    8 cycles
 Optimization completed.
    -- Stationary point found.
 Normal termination of Gaussian 16 at Thu Dec 10 15:35:19 2020.

 --------------------------------------------------------------------
 #N Geom=AllCheck Guess=TCheck SCRF=Check GenChk RB3LYP/6-31G(d) Freq
 --------------------------------------------------------------------

 Structure from the checkpoint file:  "JID_5320.chk"
 ------------------------------
 CID_28602266_JID_5320_neutraal
 ------------------------------
 Charge =  0 Multiplicity = 1

 SCF Done:  E(RB3LYP) =  -686.380540819     A.U. after    1 cycles

  Exact polarizability: 152.097   2.688 154.041  15.515   0.144  82.386
 Approx polarizability: 221.805  16.967 261.901  38.070   3.681 125.907

                      1                      2                      3
                      A                      A                      A
 Frequencies --     30.1407                34.8902                53.8671
 Red. masses --      6.5211                 4.5805                 4.6203
 Frc consts  --      0.0035                 0.0033                 0.0079
 IR Inten    --      3.7449                 0.8163                 1.9402

                      4                      5                      6
                      A                      A                      A
 Frequencies --    102.9175               122.5358               129.4098
 Red. masses --      3.7041                 2.6853                 1.3268
 Frc consts  --      0.0231                 0.0238                 0.0131
 IR Inten    --      3.0140                 4.2796                 0.1849

                      7                      8                      9
                      A                      A                      A
 Frequencies --    154.3896               169.2081               177.4597
 Red. masses --      2.2159                 2.8891                 1.7793
 Frc consts  --      0.0311                 0.0487                 0.0330
 IR Inten    --      0.7556                 1.6846                 1.6661

                     10                     11                     12
                      A                      A                      A
 Frequencies --    185.4402               262.1609               288.6095
 Red. masses --      5.1662                 3.6482                 4.3754
 Frc consts  --      0.1047                 0.1477                 0.2147
 IR Inten    --      2.4664                 5.1450                 3.0202

                     13                     14                     15
                      A                      A                      A
 Frequencies --    333.7876               361.4372               385.3208
 Red. masses --      4.3036                 4.7269                 4.0336
 Frc consts  --      0.2825                 0.3638                 0.3528
 IR Inten    --     14.0804                 7.7958                 0.3857

                     16                     17                     18
                      A                      A                      A
 Frequencies --    406.1530               454.6872               525.2643
 Red. masses --      4.5276                 4.5154                 3.5728
 Frc consts  --      0.4400                 0.5500                 0.5808
 IR Inten    --      2.3183                 3.8960                 6.9406

                     19                     20                     21
                      A                      A                      A
 Frequencies --    547.8241               558.7973               580.6693
 Red. masses --      4.3925                 3.8424                 5.2192
 Frc consts  --      0.7767                 0.7069                 1.0368
 IR Inten    --      8.4606                 2.1490                 1.2679

                     22                     23                     24
                      A                      A                      A
 Frequencies --    586.4998               631.3342               698.0687
 Red. masses --      4.5792                 5.7111                 4.6720
 Frc consts  --      0.9281                 1.3412                 1.3414
 IR Inten    --      5.4810                 4.4890                11.9591

                     25                     26                     27
                      A                      A                      A
 Frequencies --    728.6246               753.4394               768.6071
 Red. masses --      5.0118                 4.6503                 1.2654
 Frc consts  --      1.5677                 1.5554                 0.4404
 IR Inten    --      2.2816                 2.8423                49.9237

                     28                     29                     30
                      A                      A                      A
 Frequencies --    824.0870               861.9730               868.4929
 Red. masses --      5.3777                 4.2181                 1.4805
 Frc consts  --      2.1517                 1.8465                 0.6579
 IR Inten    --      1.5405                12.8381                 2.6914

                     31                     32                     33
                      A                      A                      A
 Frequencies --    951.8104               970.6256               984.5257
 Red. masses --      1.3333                 2.9758                 1.2730
 Frc consts  --      0.7117                 1.6518                 0.7270
 IR Inten    --      1.5175                35.1673                 0.3501

                     34                     35                     36
                      A                      A                      A
 Frequencies --   1033.6924              1053.8838              1088.7083
 Red. masses --      3.2895                 4.5462                 2.2461
 Frc consts  --      2.0709                 2.9750                 1.5685
 IR Inten    --      5.6225                62.0148                20.0170

                     37                     38                     39
                      A                      A                      A
 Frequencies --   1129.4378              1147.4853              1162.3740
 Red. masses --      2.1924                 1.5483                 1.5208
 Frc consts  --      1.6478                 1.2012                 1.2106
 IR Inten    --      2.4904                28.6337                 7.9510

                     40                     41                     42
                      A                      A                      A
 Frequencies --   1186.3962              1205.5868              1219.1364
 Red. masses --      1.2763                 1.2130                 1.4796
 Frc consts  --      1.0584                 1.0388                 1.2957
 IR Inten    --      0.6815                 1.1484                 1.5576

                     43                     44                     45
                      A                      A                      A
 Frequencies --   1228.4331              1246.9333              1272.5452
 Red. masses --      2.1464                 1.7553                 3.0916
 Frc consts  --      1.9084                 1.6081                 2.9497
 IR Inten    --     17.0595                50.0962               172.4444

                     46                     47                     48
                      A                      A                      A
 Frequencies --   1309.5657              1328.9208              1358.8557
 Red. masses --      2.4281                 2.0885                 3.7047
 Frc consts  --      2.4534                 2.1731                 4.0304
 IR Inten    --    142.6160                29.4798                20.8467

                     49                     50                     51
                      A                      A                      A
 Frequencies --   1381.9349              1425.0752              1483.4172
 Red. masses --      1.4922                 2.1318                 1.2539
 Frc consts  --      1.6790                 2.5508                 1.6257
 IR Inten    --     32.5608                63.1676                53.2325

                     52                     53                     54
                      A                      A                      A
 Frequencies --   1490.3523              1494.9838              1513.3518
 Red. masses --      1.3786                 1.2735                 1.0475
 Frc consts  --      1.8041                 1.6769                 1.4135
 IR Inten    --     24.9418                 2.9428                 6.0093

                     55                     56                     57
                      A                      A                      A
 Frequencies --   1514.9834              1522.5694              1524.5763
 Red. masses --      1.4445                 1.0461                 1.0688
 Frc consts  --      1.9533                 1.4289                 1.4637
 IR Inten    --      2.6390                12.2838                 1.9876

                     58                     59                     60
                      A                      A                      A
 Frequencies --   1532.3788              1559.9493              1617.6045
 Red. masses --      1.2235                 1.9232                 5.8021
 Frc consts  --      1.6928                 2.7574                 8.9450
 IR Inten    --      2.7578               167.2666                31.5369

                     61                     62                     63
                      A                      A                      A
 Frequencies --   1662.0528              1828.3307              2335.4240
 Red. masses --      5.2911                11.2873                12.6729
 Frc consts  --      8.6116                22.2306                40.7246
 IR Inten    --     90.7072               212.8231                55.2415

                     64                     65                     66
                      A                      A                      A
 Frequencies --   3066.4465              3075.7610              3080.4325
 Red. masses --      1.0377                 1.0603                 1.0295
 Frc consts  --      5.7488                 5.9100                 5.7557
 IR Inten    --     30.9191                24.3461                28.7003

                     67                     68                     69
                      A                      A                      A
 Frequencies --   3127.9643              3137.0376              3155.4281
 Red. masses --      1.1003                 1.1055                 1.1039
 Frc consts  --      6.3427                 6.4097                 6.4758
 IR Inten    --      4.0277                17.2206                12.2010

                     70                     71                     72
                      A                      A                      A
 Frequencies --   3156.8521              3191.0468              3194.2857
 Red. masses --      1.1077                 1.1074                 1.0873
 Frc consts  --      6.5043                 6.6438                 6.5366
 IR Inten    --     18.6839                12.3023                 5.8276

                     73                     74                     75
                      A                      A                      A
 Frequencies --   3208.4093              3223.9599              3235.5080
 Red. masses --      1.0896                 1.0960                 1.0919
 Frc consts  --      6.6086                 6.7120                 6.7346
 IR Inten    --      6.0556                16.3519                 7.0986

 - Thermochemistry -
 -------------------
 Temperature   298.150 Kelvin.  Pressure   1.00000 Atm.
 Atom     1 has atomic number  6 and mass  12.00000

 Molecular mass:   204.08988 amu.
 Principal axes and moments of inertia in atomic units:
                           1         2         3
     Eigenvalues --  1908.251004209.122075274.37147
           X            0.99972  -0.02111  -0.01022
           Y            0.02103   0.99975  -0.00706
           Z            0.01037   0.00684   0.99992
 This molecule is an asymmetric top.
 Rotational symmetry number  1.
 Warning -- assumption of classical behavior for rotation
           may cause significant error
 Rotational temperatures (Kelvin)      0.04539     0.02058     0.01642
 Rotational constants (GHZ):           0.94576     0.42877     0.34217
 Zero-point vibrational energy     569453.1 (Joules/Mol)
                                  136.10257 (Kcal/Mol)
 Warning -- explicit consideration of  22 degrees of freedom as
           vibrations may cause significant error
 Vibrational temperatures:     43.37    50.20    77.50   148.08   176.30
          (Kelvin)            186.19   222.13   243.45   255.32   266.81
                              377.19   415.24   480.25   520.03   554.39
                              584.36   654.19   755.74   788.20   803.98
                              835.45   843.84   908.35  1004.37  1048.33
                             1084.03  1105.85  1185.68  1240.19  1249.57
                             1369.44  1396.51  1416.51  1487.25  1516.30
                             1566.41  1625.01  1650.98  1672.40  1706.96
                             1734.57  1754.07  1767.44  1794.06  1830.91
                             1884.17  1912.02  1955.09  1988.30  2050.37
                             2134.31  2144.28  2150.95  2177.38  2179.72
                             2190.64  2193.53  2204.75  2244.42  2327.37
                             2391.32  2630.56  3360.15  4411.93  4425.33
                             4432.06  4500.44  4513.50  4539.96  4542.01
                             4591.20  4595.86  4616.19  4638.56  4655.17

 Zero-point correction=                           0.216893 (Hartree/Particle)
 Thermal correction to Energy=                    0.231458
 Thermal correction to Enthalpy=                  0.232402
 Thermal correction to Gibbs Free Energy=         0.173934
 Sum of electronic and zero-point Energies=           -686.163648
 Sum of electronic and thermal Energies=              -686.149083
 Sum of electronic and thermal Enthalpies=            -686.148139
 Sum of electronic and thermal Free Energies=         -686.206607

                     E (Thermal)             CV                S
                      KCal/Mol        Cal/Mol-Kelvin    Cal/Mol-Kelvin
 Total                  145.242             52.852            123.057
 Electronic               0.000              0.000              0.000
 Translational            0.889              2.981             41.844
 Rotational               0.889              2.981             32.116
 Vibrational            143.465             46.891             49.097
 Vibration     1          0.594              1.984              5.820
 Vibration     2          0.594              1.983              5.530
 Vibration     3          0.596              1.976              4.670
 Vibration     4          0.605              1.947              3.398
 Vibration     5          0.610              1.930              3.060
 Vibration     6          0.612              1.924              2.955
 Vibration     7          0.620              1.898              2.617
 Vibration     8          0.625              1.880              2.444
 Vibration     9          0.628              1.870              2.355
 Vibration    10          0.632              1.860              2.273
 Vibration    11          0.669              1.742              1.647
 Vibration    12          0.685              1.695              1.482
 Vibration    13          0.715              1.608              1.242
 Vibration    14          0.736              1.552              1.116
 Vibration    15          0.754              1.502              1.018
 Vibration    16          0.771              1.457              0.940
 Vibration    17          0.813              1.351              0.782
 Vibration    18          0.880              1.194              0.598
 Vibration    19          0.903              1.144              0.549
 Vibration    20          0.914              1.120              0.526
 Vibration    21          0.937              1.073              0.484
 Vibration    22          0.944              1.061              0.473

 Optimization completed.
    -- Stationary point found.
 Normal termination of Gaussian 16 at Thu Dec 10 15:43:57 2020.

 ----------------------------------------------------------------------
 # B3LYP/6-311++G(d,p) empiricaldispersion=gd3bj scf=xqc pop=npa geom=c
 heck
 ----------------------------------------------------------------------

 --------------------------------------
 CID_28602266_JID_5320_Energie_neutraal
 --------------------------------------
 Structure from the checkpoint file:  "JID_5320.chk"
 Charge =  0 Multiplicity = 1

 SCF Done:  E(RB3LYP) =  -686.571190007     A.U. after   15 cycles
 Normal termination of Gaussian 16 at Thu Dec 10 15:47:51 2020.

 ----------------------------------------------------------------------
 # B3LYP/6-311++G(d,p) empiricaldispersion=gd3bj scf=xqc pop=npa geom=c
 heck
 ----------------------------------------------------------------------

 ------------------------------------
 CID_28602266_JID_5320_Energie_kation
 ------------------------------------
 Structure from the checkpoint file:  "JID_5320.chk"
 Charge =  1 Multiplicity = 2

 SCF Done:  E(UB3LYP) =  -686.285871798     A.U. after   23 cycles
 Normal termination of Gaussian 16 at Thu Dec 10 15:56:02 2020.
 Gaussian 16:  ES64L-G16RevA.03 25-Dec-2016

 ----------------------------------------------------------------------
 # B3LYP/6-311++G(d,p) empiricaldispersion=gd3bj scf=xqc pop=npa geom=c
 heck
 ----------------------------------------------------------------------

 -----------------------------------
 CID_28602266_JID_5320_Energie_anion
 -----------------------------------
 Structure from the checkpoint file:  "JID_5320.chk"
 Charge = -1 Multiplicity = 2

                         Standard orientation:
 ---------------------------------------------------------------------
 Center     Atomic      Atomic             Coordinates (Angstroms)
 Number     Number       Type             X           Y           Z
 ---------------------------------------------------------------------
      1          6           0        0.046167   -2.197537   -0.182490
      2          7           0        0.110538   -0.945144    0.574605
      3          6           0        1.343822   -0.688882    1.280739
      4          6           0        2.474483   -0.047401    0.468943
      5          8           0        3.377651    0.587882    0.966003
      6          8           0        2.353174   -0.293603   -0.847607
      7          6           0        3.377681    0.282953   -1.676498
      8          6           0       -0.740629    0.114843    0.308248
      9          6           0       -0.315826    1.451594    0.477820
     10          6           0       -1.154617    2.521756    0.196113
     11          6           0       -2.455384    2.318157   -0.272297
     12          6           0       -2.910251    1.017034   -0.419363
     13          6           0       -2.085572   -0.083124   -0.119327
     14          6           0       -2.696616   -1.374178   -0.161544
     15          7           0       -3.241810   -2.402993   -0.178229
     16          1           0        1.064652   -2.546987   -0.366916
     17          1           0       -0.421329   -2.030350   -1.154873
     18          1           0       -0.515648   -2.975136    0.343805
     19          1           0        1.171260   -0.047045    2.148508
     20          1           0        1.724775   -1.639245    1.671112
     21          1           0        3.379739    1.370650   -1.571840
     22          1           0        4.359561   -0.104898   -1.394402
     23          1           0        3.124453   -0.006135   -2.696029
     24          1           0        0.691578    1.662615    0.813963
     25          1           0       -0.777096    3.531472    0.330939
     26          1           0       -3.103166    3.157340   -0.501969
     27          1           0       -3.926023    0.819147   -0.746156
 ---------------------------------------------------------------------

 SCF Done:  E(UB3LYP) =  -686.570716331     A.U. after   31 cycles

 The electronic state is 2-A.
 Alpha  occ. eigenvalues --  -19.07454 -19.01773 -14.22430 -14.16402 -10.20343
 Alpha  occ. eigenvalues --  -10.12773 -10.11953 -10.10034 -10.08757 -10.06745
 Alpha  occ. eigenvalues --  -10.06128 -10.04825 -10.04449 -10.04375 -10.03866
 Alpha  occ. eigenvalues --   -1.01507  -0.92794  -0.84637  -0.76799  -0.72776
 Alpha  occ. eigenvalues --   -0.66647  -0.63797  -0.63207  -0.61396  -0.56178
 Alpha  occ. eigenvalues --   -0.50418  -0.48749  -0.47083  -0.43874  -0.41116
 Alpha  occ. eigenvalues --   -0.39750  -0.39349  -0.37523  -0.36864  -0.34473
 Alpha  occ. eigenvalues --   -0.33664  -0.32966  -0.31593  -0.31044  -0.30050
 Alpha  occ. eigenvalues --   -0.29040  -0.28062  -0.26576  -0.26211  -0.25209
 Alpha  occ. eigenvalues --   -0.23767  -0.22504  -0.21863  -0.21462  -0.20031
 Alpha  occ. eigenvalues --   -0.19381  -0.17024  -0.13332  -0.08942   0.04529
 Alpha virt. eigenvalues --    0.06220   0.07895   0.08427   0.09200   0.09376
 Alpha virt. eigenvalues --    0.09917   0.10625   0.11352   0.11506   0.11852
 Alpha virt. eigenvalues --    0.12302   0.13118   0.13748   0.14503   0.14706

  Beta  occ. eigenvalues --  -19.07437 -19.01752 -14.22418 -14.16192 -10.20313
  Beta  occ. eigenvalues --  -10.12732 -10.11952 -10.09972 -10.08749 -10.06728
  Beta  occ. eigenvalues --  -10.05937 -10.04627 -10.04528 -10.04359 -10.03526
  Beta  occ. eigenvalues --   -1.01465  -0.92754  -0.84568  -0.76475  -0.72455
  Beta  occ. eigenvalues --   -0.66547  -0.63357  -0.62997  -0.61295  -0.56052
  Beta  occ. eigenvalues --   -0.49820  -0.48667  -0.47002  -0.43772  -0.41034
  Beta  occ. eigenvalues --   -0.39643  -0.39238  -0.37402  -0.36793  -0.34333
  Beta  occ. eigenvalues --   -0.33578  -0.32851  -0.31492  -0.30958  -0.29937
  Beta  occ. eigenvalues --   -0.28935  -0.27974  -0.26502  -0.25500  -0.25038
  Beta  occ. eigenvalues --   -0.23549  -0.22224  -0.21589  -0.20903  -0.19722
  Beta  occ. eigenvalues --   -0.19247  -0.16604  -0.11858  -0.08425
  Beta virt. eigenvalues --    0.06902   0.08102   0.08383   0.09018   0.09596
  Beta virt. eigenvalues --    0.09712   0.10227   0.10763   0.11509   0.11738
  Beta virt. eigenvalues --    0.11914   0.12440   0.13108   0.13748   0.14418

 Mulliken charges and spin densities:
               1          2
     1  C   -0.203628  -0.195746
     2  N    0.289352   0.044788
     3  C   -0.127895  -0.370592
     4  C   -0.411036   0.299008
     5  O   -0.235306   0.020542
     6  O   -0.065038   0.071118
     7  C    0.832473  -1.046165
     8  C   -0.566643   0.235312
     9  C    0.106875   0.009498
    10  C   -0.130234   0.115692
    11  C   -0.375231  -0.074132
    12  C   -0.140597   0.206490
    13  C    1.136849   0.151613
    14  C   -1.109357  -0.150419
    15  N   -0.328787   0.115840
    16  H   -0.086064   0.208939
    17  H    0.114027   0.045862
    18  H    0.204208  -0.009736
    19  H    0.237417  -0.008887
    20  H    0.074760   0.115501
    21  H   -0.120256   0.293591
    22  H   -0.316950   0.485775
    23  H   -0.259895   0.418457
    24  H    0.160318  -0.017837
    25  H    0.092927   0.015588
    26  H    0.091102   0.018151
    27  H    0.136608   0.001747
 Sum of Mulliken charges =  -1.00000   1.00000

 Dipole moment (field-independent basis, Debye):
    X=              1.6024    Y=              1.6480    Z=              1.8786  Tot=              2.9686
 Quadrupole moment (field-independent basis, Debye-Ang):
   XX=           -154.3272   YY=           -118.3114   ZZ=           -108.9105
   XY=            -14.0694   XZ=              4.7507   YZ=             -4.2490

 Summary of Natural Population Analysis:

                                       Natural Population
                Natural  -----------------------------------------------
    Atom  No    Charge         Core      Valence    Rydberg      Total
 -----------------------------------------------------------------------
      C    1   -0.17594      0.99964     2.16800    0.00831     3.17594
      N    2   -0.25073      0.99965     2.74084    0.01024     3.75073
      C    3   -0.12694      0.99957     2.11620    0.01117     3.12694
      C    4    0.40532      0.99970     1.56895    0.02603     2.59468
      O    5   -0.30960      0.99987     3.30391    0.00582     4.30960
      O    6   -0.27437      0.99986     3.26497    0.00955     4.27437
      C    7   -0.10403      0.99959     2.09531    0.00912     3.10403
      C    8    0.13011      0.99947     1.85925    0.01116     2.86989
      C    9   -0.13776      0.99954     2.13083    0.00739     3.13776
      C   10   -0.02610      0.99958     2.01647    0.01006     3.02610
      C   11   -0.14703      0.99956     2.13773    0.00973     3.14703
      C   12   -0.03364      0.99955     2.02391    0.01019     3.03364
      C   13   -0.09254      0.99939     2.08476    0.00838     3.09254
      C   14    0.15099      0.99964     1.82989    0.01948     2.84901
      N   15   -0.18163      0.99979     2.67112    0.01073     3.68163
      H   16    0.09428      0.00000     0.40460    0.00112     0.40572
      H   17    0.10469      0.00000     0.39420    0.00112     0.39531
      H   18    0.09693      0.00000     0.40202    0.00105     0.40307
      H   19    0.11214      0.00000     0.38683    0.00103     0.38786
      H   20    0.10914      0.00000     0.39014    0.00072     0.39086
      H   21    0.09282      0.00000     0.40607    0.00111     0.40718
      H   22    0.09099      0.00000     0.40754    0.00147     0.40901
      H   23    0.09419      0.00000     0.40450    0.00130     0.40581
      H   24    0.09803      0.00000     0.40052    0.00146     0.40197
      H   25    0.08969      0.00000     0.40941    0.00091     0.41031
      H   26    0.09460      0.00000     0.40430    0.00110     0.40540
      H   27    0.09639      0.00000     0.40277    0.00084     0.40361
 =======================================================================
   * Total *    0.00000     14.99439    38.82502    0.18059    54.00000

 Normal termination of Gaussian 16 at Thu Dec 10 16:06:42 2020.
