 Gaussian 16, Revision A.03,

 -----------------------------------------------------------
 # opt freq B3LYP/6-31G(d) empiricaldispersion=gd3bj scf=xqc
 -----------------------------------------------------------

 ------------------------------
 CID_22219795_JID_3087_neutraal
 ------------------------------
 Symbolic Z-matrix:
 Charge =  0 Multiplicity = 1

 SCF Done:  E(RB3LYP) =  -539.548380187     A.U. after   13 cycles
 SCF Done:  E(RB3LYP) =  -539.551231827     A.U. after   11 cycles
 SCF Done:  E(RB3LYP) =  -539.551031281     A.U. after   11 cycles
 SCF Done:  E(RB3LYP) =  -539.551886985     A.U. after   10 cycles
 SCF Done:  E(RB3LYP) =  -539.552074195     A.U. after   11 cycles
 SCF Done:  E(RB3LYP) =  -539.552183938     A.U. after   11 cycles
 SCF Done:  E(RB3LYP) =  -539.552316016     A.U. after   11 cycles
 SCF Done:  E(RB3LYP) =  -539.552539589     A.U. after   10 cycles
 SCF Done:  E(RB3LYP) =  -539.552657301     A.U. after   12 cycles
 SCF Done:  E(RB3LYP) =  -539.552674894     A.U. after   10 cycles
 SCF Done:  E(RB3LYP) =  -539.552686273     A.U. after    8 cycles
 SCF Done:  E(RB3LYP) =  -539.552687062     A.U. after    9 cycles
 SCF Done:  E(RB3LYP) =  -539.552687708     A.U. after    9 cycles
 SCF Done:  E(RB3LYP) =  -539.552687926     A.U. after    8 cycles
 SCF Done:  E(RB3LYP) =  -539.552687959     A.U. after    6 cycles
 Optimization completed.
    -- Stationary point found.
 Normal termination of Gaussian 16 at Wed Dec  9 22:29:21 2020.

 --------------------------------------------------------------------
 #N Geom=AllCheck Guess=TCheck SCRF=Check GenChk RB3LYP/6-31G(d) Freq
 --------------------------------------------------------------------

 Structure from the checkpoint file:  "JID_3087.chk"
 ------------------------------
 CID_22219795_JID_3087_neutraal
 ------------------------------
 Charge =  0 Multiplicity = 1

 SCF Done:  E(RB3LYP) =  -539.552687959     A.U. after    1 cycles

  Exact polarizability: 168.005   0.612 133.877   4.900   1.813  83.679
 Approx polarizability: 225.585   1.312 212.334  10.014   0.735 123.662

                      1                      2                      3
                      A                      A                      A
 Frequencies --     42.4106                49.8877                86.9307
 Red. masses --      3.0222                 2.4778                 3.3903
 Frc consts  --      0.0032                 0.0036                 0.0151
 IR Inten    --      2.2013                 7.6080                 1.4466

                      4                      5                      6
                      A                      A                      A
 Frequencies --    114.8282               128.9581               169.7277
 Red. masses --      2.9569                 2.7198                 2.5269
 Frc consts  --      0.0230                 0.0266                 0.0429
 IR Inten    --      0.8603                 8.1029                 5.9014

                      7                      8                      9
                      A                      A                      A
 Frequencies --    202.2844               215.7426               231.1850
 Red. masses --      1.7929                 1.7001                 1.1868
 Frc consts  --      0.0432                 0.0466                 0.0374
 IR Inten    --      5.8786                35.7603                 7.2664

                     10                     11                     12
                      A                      A                      A
 Frequencies --    273.9334               287.2334               302.2197
 Red. masses --      2.5934                 1.6203                 1.4953
 Frc consts  --      0.1147                 0.0788                 0.0805
 IR Inten    --     13.5172                17.5560                30.6315

                     13                     14                     15
                      A                      A                      A
 Frequencies --    313.4586               334.2316               376.3399
 Red. masses --      3.0297                 1.4387                 3.4103
 Frc consts  --      0.1754                 0.0947                 0.2846
 IR Inten    --      2.0035                 0.5140                 2.4473

                     16                     17                     18
                      A                      A                      A
 Frequencies --    396.0019               417.0971               460.9849
 Red. masses --      2.5457                 2.3631                 3.1143
 Frc consts  --      0.2352                 0.2422                 0.3899
 IR Inten    --     10.7727                 2.7121                 3.9223

                     19                     20                     21
                      A                      A                      A
 Frequencies --    538.1998               571.9904               611.7353
 Red. masses --      3.6181                 3.3869                 2.6654
 Frc consts  --      0.6175                 0.6529                 0.5877
 IR Inten    --      5.0416                 3.2482                 1.5504

                     22                     23                     24
                      A                      A                      A
 Frequencies --    628.9704               719.3315               737.2933
 Red. masses --      4.3317                 5.0561                 3.1306
 Frc consts  --      1.0096                 1.5414                 1.0027
 IR Inten    --      2.3724                 2.6980                 4.2091

                     25                     26                     27
                      A                      A                      A
 Frequencies --    775.9975               848.1254               861.4264
 Red. masses --      3.4926                 1.3173                 1.7561
 Frc consts  --      1.2391                 0.5583                 0.7678
 IR Inten    --      5.2312                78.1567                66.3960

                     28                     29                     30
                      A                      A                      A
 Frequencies --    873.4617               876.0359               914.0914
 Red. masses --      1.8329                 1.3162                 1.4002
 Frc consts  --      0.8239                 0.5951                 0.6893
 IR Inten    --     56.8842                61.4813                14.8211

                     31                     32                     33
                      A                      A                      A
 Frequencies --    941.1267               951.1585               974.3897
 Red. masses --      1.5619                 1.7554                 1.3057
 Frc consts  --      0.8151                 0.9357                 0.7304
 IR Inten    --      0.7580                 5.4547                 0.2620

                     34                     35                     36
                      A                      A                      A
 Frequencies --    982.1079              1014.5123              1025.6176
 Red. masses --      1.4880                 1.7071                 1.8998
 Frc consts  --      0.8456                 1.0352                 1.1774
 IR Inten    --      2.1842                28.1953                22.7060

                     37                     38                     39
                      A                      A                      A
 Frequencies --   1053.4405              1077.3511              1081.4381
 Red. masses --      2.5908                 2.4347                 2.1138
 Frc consts  --      1.6940                 1.6650                 1.4565
 IR Inten    --      1.8010                 6.6063                 7.0830

                     40                     41                     42
                      A                      A                      A
 Frequencies --   1141.1117              1149.9946              1179.6374
 Red. masses --      2.3988                 1.5768                 1.7012
 Frc consts  --      1.8403                 1.2286                 1.3947
 IR Inten    --      1.6822                 8.3705                 3.4837

                     43                     44                     45
                      A                      A                      A
 Frequencies --   1187.3947              1198.4887              1224.0886
 Red. masses --      1.2563                 1.2192                 2.0435
 Frc consts  --      1.0436                 1.0318                 1.8041
 IR Inten    --      6.1609                 1.0719                 1.4477

                     46                     47                     48
                      A                      A                      A
 Frequencies --   1238.4004              1272.1052              1308.7913
 Red. masses --      1.9457                 2.9403                 1.4502
 Frc consts  --      1.7581                 2.8034                 1.4636
 IR Inten    --      2.1120                 2.4494                 8.9626

                     49                     50                     51
                      A                      A                      A
 Frequencies --   1317.4798              1334.8082              1353.6763
 Red. masses --      1.3895                 1.4073                 1.3550
 Frc consts  --      1.4210                 1.4773                 1.4629
 IR Inten    --      1.5389                 4.4536                 2.9875

                     52                     53                     54
                      A                      A                      A
 Frequencies --   1364.6828              1406.9345              1427.2275
 Red. masses --      2.3405                 1.3919                 1.3196
 Frc consts  --      2.5681                 1.6233                 1.5837
 IR Inten    --      3.8650                 3.4751                10.7756

                     55                     56                     57
                      A                      A                      A
 Frequencies --   1436.2958              1447.1374              1453.0871
 Red. masses --      1.4613                 1.2882                 1.3219
 Frc consts  --      1.7761                 1.5895                 1.6444
 IR Inten    --     40.6056                 5.0135                 4.4707

                     58                     59                     60
                      A                      A                      A
 Frequencies --   1470.6102              1517.5119              1520.3219
 Red. masses --      2.1930                 1.0571                 1.0466
 Frc consts  --      2.7943                 1.4342                 1.4253
 IR Inten    --     19.4680                 3.4763                 0.9243

                     61                     62                     63
                      A                      A                      A
 Frequencies --   1534.3776              1535.9829              1538.2456
 Red. masses --      1.1250                 1.0733                 1.0493
 Frc consts  --      1.5605                 1.4919                 1.4629
 IR Inten    --      2.3248                 4.2497                 6.0318

                     64                     65                     66
                      A                      A                      A
 Frequencies --   1554.6860              1565.4970              1626.3702
 Red. masses --      2.3349                 1.0931                 6.2454
 Frc consts  --      3.3251                 1.5784                 9.7331
 IR Inten    --      8.4768                 0.6141                 0.8175

                     67                     68                     69
                      A                      A                      A
 Frequencies --   1673.5054              1692.0209              1693.4393
 Red. masses --      4.8506                 1.1051                 1.1216
 Frc consts  --      8.0039                 1.8641                 1.8951
 IR Inten    --      4.4748                39.9333                 9.1044

                     70                     71                     72
                      A                      A                      A
 Frequencies --   2959.5718              3019.0457              3025.6825
 Red. masses --      1.0731                 1.0697                 1.0837
 Frc consts  --      5.5381                 5.7444                 5.8454
 IR Inten    --     72.4559                56.0757                15.4695

                     73                     74                     75
                      A                      A                      A
 Frequencies --   3038.3045              3047.6682              3055.7183
 Red. masses --      1.0877                 1.0362                 1.0369
 Frc consts  --      5.9159                 5.6706                 5.7043
 IR Inten    --     34.0110                30.8519                39.5557

                     76                     77                     78
                      A                      A                      A
 Frequencies --   3081.2169              3112.8077              3117.8137
 Red. masses --      1.0914                 1.1009                 1.1006
 Frc consts  --      6.1051                 6.2848                 6.3037
 IR Inten    --     34.9775                 5.1728                66.3194

                     79                     80                     81
                      A                      A                      A
 Frequencies --   3126.2171              3133.0225              3152.8588
 Red. masses --      1.1018                 1.1020                 1.0886
 Frc consts  --      6.3446                 6.3730                 6.3756
 IR Inten    --     23.0241                32.3621                26.3411

                     82                     83                     84
                      A                      A                      A
 Frequencies --   3180.2783              3219.6653              3465.6442
 Red. masses --      1.0887                 1.0924                 1.0514
 Frc consts  --      6.4879                 6.6722                 7.4402
 IR Inten    --     18.2041                 6.1422                 8.1120

                     85                     86                     87
                      A                      A                      A
 Frequencies --   3466.3949              3555.2758              3562.8259
 Red. masses --      1.0495                 1.0930                 1.0893
 Frc consts  --      7.4302                 8.1397                 8.1469
 IR Inten    --      3.1188                 1.1930                 0.1554

 - Thermochemistry -
 -------------------
 Temperature   298.150 Kelvin.  Pressure   1.00000 Atm.
 Atom     1 has atomic number  6 and mass  12.00000

 Molecular mass:   178.14700 amu.
 Principal axes and moments of inertia in atomic units:
                           1         2         3
     Eigenvalues --  1357.149283762.798494614.33617
           X            1.00000  -0.00148   0.00216
           Y            0.00145   0.99990   0.01385
           Z           -0.00218  -0.01385   0.99990
 This molecule is an asymmetric top.
 Rotational symmetry number  1.
 Warning -- assumption of classical behavior for rotation
           may cause significant error
 Rotational temperatures (Kelvin)      0.06382     0.02302     0.01877
 Rotational constants (GHZ):           1.32980     0.47963     0.39112
 Zero-point vibrational energy     730590.4 (Joules/Mol)
                                  174.61530 (Kcal/Mol)
 Warning -- explicit consideration of  21 degrees of freedom as
           vibrations may cause significant error
 Vibrational temperatures:     61.02    71.78   125.07   165.21   185.54
          (Kelvin)            244.20   291.04   310.41   332.62   394.13
                              413.26   434.83   451.00   480.88   541.47
                              569.76   600.11   663.25   774.35   822.97
                              880.15   904.95  1034.96  1060.80  1116.49
                             1220.26  1239.40  1256.72  1260.42  1315.17
                             1354.07  1368.50  1401.93  1413.03  1459.66
                             1475.63  1515.67  1550.07  1555.95  1641.81
                             1654.59  1697.24  1708.40  1724.36  1761.19
                             1781.78  1830.28  1883.06  1895.56  1920.49
                             1947.64  1963.47  2024.26  2053.46  2066.51
                             2082.11  2090.67  2115.88  2183.36  2187.40
                             2207.63  2209.94  2213.19  2236.85  2252.40
                             2339.98  2407.80  2434.44  2436.48  4258.16
                             4343.73  4353.28  4371.44  4384.91  4396.50
                             4433.18  4478.64  4485.84  4497.93  4507.72
                             4536.26  4575.71  4632.38  4986.29  4987.37
                             5115.25  5126.11

 Zero-point correction=                           0.278267 (Hartree/Particle)
 Thermal correction to Energy=                    0.292278
 Thermal correction to Enthalpy=                  0.293222
 Thermal correction to Gibbs Free Energy=         0.237686
 Sum of electronic and zero-point Energies=           -539.274421
 Sum of electronic and thermal Energies=              -539.260410
 Sum of electronic and thermal Enthalpies=            -539.259466
 Sum of electronic and thermal Free Energies=         -539.315002

                     E (Thermal)             CV                S
                      KCal/Mol        Cal/Mol-Kelvin    Cal/Mol-Kelvin
 Total                  183.407             53.147            116.887
 Electronic               0.000              0.000              0.000
 Translational            0.889              2.981             41.439
 Rotational               0.889              2.981             31.533
 Vibrational            181.630             47.185             43.914
 Vibration     1          0.595              1.980              5.143
 Vibration     2          0.595              1.978              4.822
 Vibration     3          0.601              1.958              3.728
 Vibration     4          0.608              1.937              3.186
 Vibration     5          0.611              1.924              2.962
 Vibration     6          0.625              1.880              2.438
 Vibration     7          0.639              1.837              2.112
 Vibration     8          0.645              1.817              1.995
 Vibration     9          0.653              1.793              1.870
 Vibration    10          0.676              1.721              1.571
 Vibration    11          0.684              1.697              1.490
 Vibration    12          0.694              1.669              1.405
 Vibration    13          0.701              1.648              1.344
 Vibration    14          0.716              1.607              1.240
 Vibration    15          0.747              1.521              1.054
 Vibration    16          0.763              1.479              0.977
 Vibration    17          0.780              1.433              0.902
 Vibration    18          0.819              1.337              0.763
 Vibration    19          0.893              1.166              0.569
 Vibration    20          0.928              1.092              0.500
 Vibration    21          0.971              1.007              0.430

 Optimization completed.
    -- Stationary point found.
 Normal termination of Gaussian 16 at Wed Dec  9 22:37:07 2020.

 ----------------------------------------------------------------------
 # B3LYP/6-311++G(d,p) empiricaldispersion=gd3bj scf=xqc pop=npa geom=c
 heck
 ----------------------------------------------------------------------

 --------------------------------------
 CID_22219795_JID_3087_Energie_neutraal
 --------------------------------------
 Structure from the checkpoint file:  "JID_3087.chk"
 Charge =  0 Multiplicity = 1

 SCF Done:  E(RB3LYP) =  -539.713244195     A.U. after   14 cycles
 Normal termination of Gaussian 16 at Wed Dec  9 22:40:39 2020.

 ----------------------------------------------------------------------
 # B3LYP/6-311++G(d,p) empiricaldispersion=gd3bj scf=xqc pop=npa geom=c
 heck
 ----------------------------------------------------------------------

 ------------------------------------
 CID_22219795_JID_3087_Energie_kation
 ------------------------------------
 Structure from the checkpoint file:  "JID_3087.chk"
 Charge =  1 Multiplicity = 2

 SCF Done:  E(UB3LYP) =  -539.417741542     A.U. after   27 cycles
 Normal termination of Gaussian 16 at Wed Dec  9 22:50:19 2020.
 Gaussian 16:  ES64L-G16RevA.03 25-Dec-2016

 ----------------------------------------------------------------------
 # B3LYP/6-311++G(d,p) empiricaldispersion=gd3bj scf=xqc pop=npa geom=c
 heck
 ----------------------------------------------------------------------

 -----------------------------------
 CID_22219795_JID_3087_Energie_anion
 -----------------------------------
 Structure from the checkpoint file:  "JID_3087.chk"
 Charge = -1 Multiplicity = 2

                         Standard orientation:
 ---------------------------------------------------------------------
 Center     Atomic      Atomic             Coordinates (Angstroms)
 Number     Number       Type             X           Y           Z
 ---------------------------------------------------------------------
      1          6           0        1.999463   -1.914618   -1.114741
      2          6           0        1.551766   -1.476378    0.294855
      3          6           0        2.764452   -1.172980    1.186695
      4          6           0        0.446497   -0.420816    0.196500
      5          6           0        0.602025    0.982802    0.186996
      6          6           0       -0.541495    1.777664    0.009510
      7          6           0       -1.811740    1.240979   -0.155337
      8          6           0       -1.978710   -0.146030   -0.143310
      9          6           0       -0.848972   -0.940530    0.038696
     10          6           0       -3.342592   -0.772356   -0.339603
     11          7           0       -4.389861    0.009869    0.326883
     12          6           0        1.919655    1.713775    0.366755
     13          7           0        2.748900    1.680254   -0.851000
     14          1           0        2.447410   -1.085903   -1.673937
     15          1           0        1.145947   -2.271162   -1.699935
     16          1           0        2.738667   -2.722458   -1.053931
     17          1           0        1.068378   -2.353350    0.745688
     18          1           0        3.444214   -0.440765    0.740905
     19          1           0        2.459177   -0.804576    2.171282
     20          1           0        3.339724   -2.093943    1.335424
     21          1           0       -0.419271    2.857944    0.001306
     22          1           0       -2.679065    1.881375   -0.276889
     23          1           0       -0.974228   -2.022374    0.060775
     24          1           0       -3.585588   -0.784199   -1.411498
     25          1           0       -3.294675   -1.829779   -0.023968
     26          1           0       -5.299156   -0.414841    0.154276
     27          1           0       -4.241123   -0.016336    1.334641
     28          1           0        1.693516    2.767572    0.560421
     29          1           0        2.434202    1.343590    1.265073
     30          1           0        3.606819    2.205256   -0.682047
     31          1           0        3.039680    0.724008   -1.040854
 ---------------------------------------------------------------------

 SCF Done:  E(UB3LYP) =  -539.699474148     A.U. after   33 cycles
 SCF Done:  E(UB3LYP) =  -539.699474148     a.u. after    1 cycles

 The electronic state is 2-A.
 Alpha  occ. eigenvalues --  -14.19921 -14.19662 -10.09948 -10.09837 -10.08488
 Alpha  occ. eigenvalues --  -10.08346 -10.08087 -10.07793 -10.07226 -10.06879
 Alpha  occ. eigenvalues --  -10.06659 -10.06492 -10.06213  -0.79414  -0.78917
 Alpha  occ. eigenvalues --   -0.75470  -0.70511  -0.66623  -0.63487  -0.59530
 Alpha  occ. eigenvalues --   -0.58586  -0.53620  -0.51651  -0.50067  -0.44673
 Alpha  occ. eigenvalues --   -0.41239  -0.39930  -0.38475  -0.36733  -0.36058
 Alpha  occ. eigenvalues --   -0.35800  -0.34361  -0.33088  -0.32570  -0.31815
 Alpha  occ. eigenvalues --   -0.30717  -0.29631  -0.28521  -0.27856  -0.27197
 Alpha  occ. eigenvalues --   -0.25810  -0.24676  -0.23955  -0.23094  -0.22362
 Alpha  occ. eigenvalues --   -0.15449  -0.15194  -0.14801  -0.13742   0.04258
 Alpha virt. eigenvalues --    0.05477   0.06783   0.07850   0.08146   0.08319
 Alpha virt. eigenvalues --    0.08671   0.09125   0.09737   0.09946   0.10322
 Alpha virt. eigenvalues --    0.10852   0.11851   0.11878   0.12630   0.13453

  Beta  occ. eigenvalues --  -14.19894 -14.19624 -10.09936 -10.09812 -10.08477
  Beta  occ. eigenvalues --  -10.08346 -10.08085 -10.07795 -10.07221 -10.06872
  Beta  occ. eigenvalues --  -10.06647 -10.06468 -10.06178  -0.79370  -0.78858
  Beta  occ. eigenvalues --   -0.75442  -0.70483  -0.66593  -0.63462  -0.59474
  Beta  occ. eigenvalues --   -0.58528  -0.53559  -0.51609  -0.50036  -0.44637
  Beta  occ. eigenvalues --   -0.41212  -0.39881  -0.38441  -0.36695  -0.36017
  Beta  occ. eigenvalues --   -0.35758  -0.34324  -0.33050  -0.32520  -0.31783
  Beta  occ. eigenvalues --   -0.30680  -0.29598  -0.28488  -0.27831  -0.27173
  Beta  occ. eigenvalues --   -0.25783  -0.24645  -0.23920  -0.23057  -0.22342
  Beta  occ. eigenvalues --   -0.15414  -0.15167  -0.14779  -0.13716
  Beta virt. eigenvalues --    0.06417   0.06613   0.07504   0.08137   0.08369
  Beta virt. eigenvalues --    0.08752   0.09018   0.09343   0.10031   0.10283
  Beta virt. eigenvalues --    0.10634   0.11540   0.12050   0.12265   0.12861

 Mulliken charges and spin densities:
               1          2
     1  C    0.641827  -1.329659
     2  C   -3.008820   3.104462
     3  C    0.714860  -1.391862
     4  C    2.259306  -1.854630
     5  C   -0.122932   0.632168
     6  C   -0.147072  -0.099324
     7  C   -1.496702   0.852905
     8  C    0.120397   0.409484
     9  C   -0.232844  -0.361320
    10  C    2.191148  -2.587227
    11  N   -0.419371   0.073782
    12  C    0.610067  -1.260405
    13  N   -0.398133   0.061358
    14  H   -0.130238   0.261498
    15  H    0.052670   0.095479
    16  H   -0.249513   0.390419
    17  H   -0.316173   0.503610
    18  H   -0.328553   0.487169
    19  H    0.011504   0.140164
    20  H   -0.549911   0.709788
    21  H    0.048965   0.069917
    22  H    0.138324   0.042331
    23  H    0.039535   0.104546
    24  H    0.013813   0.149429
    25  H   -0.625947   0.808135
    26  H   -0.182041   0.425607
    27  H    0.036925   0.164361
    28  H    0.143875   0.029565
    29  H   -0.058776   0.167989
    30  H   -0.080999   0.308687
    31  H    0.324808  -0.108425
 Sum of Mulliken charges =  -1.00000   1.00000

 Dipole moment (field-independent basis, Debye):
    X=              0.6560    Y=              3.6134    Z=             -0.5110  Tot=              3.7078
 Quadrupole moment (field-independent basis, Debye-Ang):
   XX=           -174.3212   YY=           -124.6146   ZZ=           -110.8257
   XY=             -1.1399   XZ=              0.9764   YZ=              5.8813

 Summary of Natural Population Analysis:

                                       Natural Population
                Natural  -----------------------------------------------
    Atom  No    Charge         Core      Valence    Rydberg      Total
 -----------------------------------------------------------------------
      C    1   -0.27700      0.99964     2.27168    0.00568     3.27700
      C    2   -0.12089      0.99958     2.11027    0.01104     3.12089
      C    3   -0.28451      0.99965     2.27851    0.00636     3.28451
      C    4   -0.00546      0.99946     1.99458    0.01142     3.00546
      C    5   -0.02309      0.99946     2.01394    0.00969     3.02309
      C    6   -0.08941      0.99953     2.08154    0.00835     3.08941
      C    7   -0.10119      0.99951     2.09293    0.00876     3.10119
      C    8   -0.02022      0.99950     2.01009    0.01064     3.02022
      C    9   -0.09590      0.99947     2.08678    0.00964     3.09590
      C   10   -0.09333      0.99960     2.08156    0.01217     3.09333
      N   11   -0.42155      0.99978     2.91125    0.01052     3.92155
      C   12   -0.09734      0.99959     2.08610    0.01165     3.09734
      N   13   -0.41815      0.99977     2.90821    0.01017     3.91815
      H   14    0.09290      0.00000     0.40605    0.00105     0.40710
      H   15    0.10166      0.00000     0.39738    0.00096     0.39834
      H   16    0.09951      0.00000     0.39941    0.00108     0.40049
      H   17    0.09885      0.00000     0.39893    0.00223     0.40115
      H   18    0.09492      0.00000     0.40328    0.00180     0.40508
      H   19    0.10079      0.00000     0.39799    0.00122     0.39921
      H   20    0.10284      0.00000     0.39578    0.00138     0.39716
      H   21    0.09591      0.00000     0.40305    0.00104     0.40409
      H   22    0.10850      0.00000     0.39031    0.00119     0.39150
      H   23    0.09881      0.00000     0.39952    0.00167     0.40119
      H   24    0.09417      0.00000     0.40468    0.00115     0.40583
      H   25    0.08489      0.00000     0.41239    0.00272     0.41511
      H   26    0.17765      0.00000     0.31929    0.00306     0.32235
      H   27    0.17344      0.00000     0.32458    0.00197     0.32656
      H   28    0.09058      0.00000     0.40808    0.00133     0.40942
      H   29    0.08730      0.00000     0.41099    0.00171     0.41270
      H   30    0.17302      0.00000     0.32507    0.00191     0.32698
      H   31    0.17231      0.00000     0.32545    0.00224     0.32769
 =======================================================================
   * Total *   -0.00000     12.99452    35.84966    0.15582    49.00000

 Normal termination of Gaussian 16 at Wed Dec  9 23:01:56 2020.
