 Gaussian 16, Revision A.03,

 -----------------------------------------------------------
 # opt freq B3LYP/6-31G(d) empiricaldispersion=gd3bj scf=xqc
 -----------------------------------------------------------

 -------------------------------
 CID_130837175_JID_2962_neutraal
 -------------------------------
 Symbolic Z-matrix:
 Charge =  0 Multiplicity = 1

 SCF Done:  E(RB3LYP) =  -954.373285540     A.U. after   14 cycles
 SCF Done:  E(RB3LYP) =  -954.378521145     A.U. after   12 cycles
 SCF Done:  E(RB3LYP) =  -954.376930187     A.U. after   13 cycles
 SCF Done:  E(RB3LYP) =  -954.378345330     A.U. after   12 cycles
 SCF Done:  E(RB3LYP) =  -954.379100752     A.U. after    8 cycles
 SCF Done:  E(RB3LYP) =  -954.379336734     A.U. after   11 cycles
 SCF Done:  E(RB3LYP) =  -954.379571668     A.U. after   11 cycles
 SCF Done:  E(RB3LYP) =  -954.379675639     A.U. after   11 cycles
 SCF Done:  E(RB3LYP) =  -954.379707005     A.U. after   11 cycles
 SCF Done:  E(RB3LYP) =  -954.379713318     A.U. after   10 cycles
 SCF Done:  E(RB3LYP) =  -954.379714992     A.U. after    8 cycles
 SCF Done:  E(RB3LYP) =  -954.379715367     A.U. after    8 cycles
 Optimization completed.
    -- Stationary point found.
 Normal termination of Gaussian 16 at Wed Dec  9 18:24:38 2020.

 --------------------------------------------------------------------
 #N Geom=AllCheck Guess=TCheck SCRF=Check GenChk RB3LYP/6-31G(d) Freq
 --------------------------------------------------------------------

 Structure from the checkpoint file:  "JID_2962.chk"
 -------------------------------
 CID_130837175_JID_2962_neutraal
 -------------------------------
 Charge =  0 Multiplicity = 1

 SCF Done:  E(RB3LYP) =  -954.379715367     A.U. after    1 cycles

  Exact polarizability: 117.049  -1.640  99.855  -0.737  -0.538  90.362
 Approx polarizability: 152.118   1.758 147.145   3.117  -5.718 152.069

                      1                      2                      3
                      A                      A                      A
 Frequencies --     42.4938                85.2030               142.5450
 Red. masses --      4.7054                 3.6838                 3.9407
 Frc consts  --      0.0050                 0.0158                 0.0472
 IR Inten    --      1.7601                 1.2938                 5.0115

                      4                      5                      6
                      A                      A                      A
 Frequencies --    192.1047               207.5226               224.5400
 Red. masses --      1.0774                 2.7077                 4.4140
 Frc consts  --      0.0234                 0.0687                 0.1311
 IR Inten    --      0.0739                 1.4030                 0.7353

                      7                      8                      9
                      A                      A                      A
 Frequencies --    242.6996               260.8307               289.9326
 Red. masses --      2.8424                 4.2218                 1.8492
 Frc consts  --      0.0986                 0.1692                 0.0916
 IR Inten    --      0.9414                 3.3716                 8.9097

                     10                     11                     12
                      A                      A                      A
 Frequencies --    292.7884               307.5929               341.6232
 Red. masses --      2.8728                 1.6272                 4.5633
 Frc consts  --      0.1451                 0.0907                 0.3138
 IR Inten    --     11.3890                11.7073                11.7639

                     13                     14                     15
                      A                      A                      A
 Frequencies --    367.2052               395.5106               418.6354
 Red. masses --      2.9223                 5.7808                 2.5203
 Frc consts  --      0.2322                 0.5328                 0.2602
 IR Inten    --      2.9147                15.6267                 9.3144

                     16                     17                     18
                      A                      A                      A
 Frequencies --    469.5241               488.7860               526.7092
 Red. masses --      3.6632                 3.0472                 4.4891
 Frc consts  --      0.4758                 0.4289                 0.7338
 IR Inten    --      4.8891                10.7647                10.8124

                     19                     20                     21
                      A                      A                      A
 Frequencies --    573.9849               587.5937               662.4480
 Red. masses --      3.7092                 2.9125                 3.9293
 Frc consts  --      0.7200                 0.5925                 1.0159
 IR Inten    --     13.0806                20.2672                 7.1542

                     22                     23                     24
                      A                      A                      A
 Frequencies --    727.8867               748.0298               816.5803
 Red. masses --      2.8505                 2.6491                 1.1070
 Frc consts  --      0.8898                 0.8733                 0.4349
 IR Inten    --     18.5841                19.4598               155.4120

                     25                     26                     27
                      A                      A                      A
 Frequencies --    854.9376               868.7211               910.4555
 Red. masses --      2.1439                 1.8974                 1.8299
 Frc consts  --      0.9233                 0.8437                 0.8937
 IR Inten    --     14.9989                41.6197                32.1086

                     28                     29                     30
                      A                      A                      A
 Frequencies --    947.9904               982.2189               984.9770
 Red. masses --      2.0826                 1.7347                 1.8123
 Frc consts  --      1.1027                 0.9860                 1.0360
 IR Inten    --     13.3653                 5.9830                 9.3156

                     31                     32                     33
                      A                      A                      A
 Frequencies --   1007.3555              1027.3430              1042.6354
 Red. masses --      1.4693                 1.8087                 1.8438
 Frc consts  --      0.8785                 1.1247                 1.1809
 IR Inten    --      4.6968                 1.0050                41.0767

                     34                     35                     36
                      A                      A                      A
 Frequencies --   1071.6886              1085.1827              1100.7200
 Red. masses --      1.6210                 1.9514                 2.5137
 Frc consts  --      1.0969                 1.3540                 1.7944
 IR Inten    --     22.7343                20.9736                98.1861

                     37                     38                     39
                      A                      A                      A
 Frequencies --   1109.0042              1119.6792              1131.1167
 Red. masses --      2.2417                 2.5062                 1.8374
 Frc consts  --      1.6244                 1.8512                 1.3851
 IR Inten    --     38.2114                34.2355                15.2937

                     40                     41                     42
                      A                      A                      A
 Frequencies --   1177.6692              1210.8025              1252.1051
 Red. masses --      1.5064                 1.9457                 1.8624
 Frc consts  --      1.2310                 1.6806                 1.7203
 IR Inten    --      9.8137                23.4663                22.4663

                     43                     44                     45
                      A                      A                      A
 Frequencies --   1265.0898              1298.1928              1309.6814
 Red. masses --      1.6447                 1.5318                 2.5916
 Frc consts  --      1.5509                 1.5210                 2.6190
 IR Inten    --     17.4118                26.4981               105.4360

                     46                     47                     48
                      A                      A                      A
 Frequencies --   1321.3632              1344.9423              1356.1192
 Red. masses --      1.4664                 1.4878                 1.3306
 Frc consts  --      1.5085                 1.5856                 1.4418
 IR Inten    --     15.3728                25.3657                 3.5910

                     49                     50                     51
                      A                      A                      A
 Frequencies --   1377.7229              1402.4126              1439.9646
 Red. masses --      1.3966                 1.3767                 1.3946
 Frc consts  --      1.5619                 1.5953                 1.7037
 IR Inten    --      2.4354                 3.8781                11.6464

                     52                     53                     54
                      A                      A                      A
 Frequencies --   1445.0170              1478.8605              1494.7840
 Red. masses --      1.2243                 1.1021                 1.1544
 Frc consts  --      1.5063                 1.4202                 1.5197
 IR Inten    --      2.6266                 1.3704                30.7311

                     55                     56                     57
                      A                      A                      A
 Frequencies --   1506.8577              1508.7903              1518.1948
 Red. masses --      1.1801                 1.1057                 1.0656
 Frc consts  --      1.5787                 1.4830                 1.4471
 IR Inten    --     64.2283                11.1312                 2.6123

                     58                     59                     60
                      A                      A                      A
 Frequencies --   1525.7499              1548.4527              1690.7822
 Red. masses --      1.0464                 1.0828                 1.0868
 Frc consts  --      1.4352                 1.5296                 1.8305
 IR Inten    --      4.6017                 8.7757                39.2206

                     61                     62                     63
                      A                      A                      A
 Frequencies --   3003.4762              3038.2835              3078.6471
 Red. masses --      1.0733                 1.0638                 1.0669
 Frc consts  --      5.7046                 5.7857                 5.9578
 IR Inten    --     71.8053                24.6950                11.0663

                     64                     65                     66
                      A                      A                      A
 Frequencies --   3080.3638              3084.3575              3097.7749
 Red. masses --      1.0431                 1.0852                 1.0862
 Frc consts  --      5.8315                 6.0828                 6.1413
 IR Inten    --     11.4298                20.1113                11.9543

                     67                     68                     69
                      A                      A                      A
 Frequencies --   3102.4840              3114.8909              3135.5149
 Red. masses --      1.0907                 1.0583                 1.1033
 Frc consts  --      6.1856                 6.0497                 6.3908
 IR Inten    --     34.1690                 2.9638                12.1680

                     70                     71                     72
                      A                      A                      A
 Frequencies --   3146.8591              3174.4586              3183.5322
 Red. masses --      1.1018                 1.1014                 1.1108
 Frc consts  --      6.4283                 6.5393                 6.6326
 IR Inten    --     15.9510                 5.2866                 1.4422

                     73                     74                     75
                      A                      A                      A
 Frequencies --   3448.1268              3476.5168              3561.5904
 Red. masses --      1.0667                 1.0507                 1.0928
 Frc consts  --      7.4721                 7.4820                 8.1676
 IR Inten    --    396.3365                 4.8158                 2.1432

 - Thermochemistry -
 -------------------
 Temperature   298.150 Kelvin.  Pressure   1.00000 Atm.
 Atom     1 has atomic number  6 and mass  12.00000

 Molecular mass:   193.07727 amu.
 Principal axes and moments of inertia in atomic units:
                           1         2         3
     Eigenvalues --  1164.546463187.611693456.73294
           X            0.99975  -0.01622  -0.01507
           Y            0.01640   0.99980   0.01165
           Z            0.01488  -0.01189   0.99982
 This molecule is an asymmetric top.
 Rotational symmetry number  1.
 Warning -- assumption of classical behavior for rotation
           may cause significant error
 Rotational temperatures (Kelvin)      0.07438     0.02717     0.02506
 Rotational constants (GHZ):           1.54974     0.56617     0.52209
 Zero-point vibrational energy     609241.5 (Joules/Mol)
                                  145.61222 (Kcal/Mol)
 Warning -- explicit consideration of  20 degrees of freedom as
           vibrations may cause significant error
 Vibrational temperatures:     61.14   122.59   205.09   276.40   298.58
          (Kelvin)            323.06   349.19   375.28   417.15   421.26
                              442.56   491.52   528.33   569.05   602.32
                              675.54   703.25   757.82   825.84   845.42
                              953.11  1047.27  1076.25  1174.88  1230.06
                             1249.90  1309.94  1363.95  1413.19  1417.16
                             1449.36  1478.12  1500.12  1541.92  1561.34
                             1583.69  1595.61  1610.97  1627.42  1694.40
                             1742.07  1801.50  1820.18  1867.81  1884.34
                             1901.15  1935.07  1951.15  1982.24  2017.76
                             2071.79  2079.06  2127.75  2150.66  2168.03
                             2170.81  2184.34  2195.21  2227.88  2432.66
                             4321.33  4371.41  4429.49  4431.96  4437.70
                             4457.01  4463.78  4481.63  4511.31  4527.63
                             4567.34  4580.39  4961.09  5001.93  5124.33

 Zero-point correction=                           0.232048 (Hartree/Particle)
 Thermal correction to Energy=                    0.244506
 Thermal correction to Enthalpy=                  0.245450
 Thermal correction to Gibbs Free Energy=         0.194000
 Sum of electronic and zero-point Energies=           -954.147668
 Sum of electronic and thermal Energies=              -954.135210
 Sum of electronic and thermal Enthalpies=            -954.134266
 Sum of electronic and thermal Free Energies=         -954.185716

                     E (Thermal)             CV                S
                      KCal/Mol        Cal/Mol-Kelvin    Cal/Mol-Kelvin
 Total                  153.430             48.793            108.286
 Electronic               0.000              0.000              0.000
 Translational            0.889              2.981             41.679
 Rotational               0.889              2.981             30.929
 Vibrational            151.652             42.831             35.677
 Vibration     1          0.595              1.980              5.139
 Vibration     2          0.601              1.959              3.767
 Vibration     3          0.616              1.911              2.769
 Vibration     4          0.634              1.851              2.207
 Vibration     5          0.641              1.829              2.065
 Vibration     6          0.649              1.804              1.922
 Vibration     7          0.659              1.775              1.783
 Vibration     8          0.669              1.744              1.656
 Vibration     9          0.686              1.692              1.474
 Vibration    10          0.688              1.687              1.458
 Vibration    11          0.697              1.659              1.375
 Vibration    12          0.721              1.592              1.205
 Vibration    13          0.740              1.540              1.091
 Vibration    14          0.762              1.480              0.979
 Vibration    15          0.781              1.430              0.897
 Vibration    16          0.827              1.318              0.739
 Vibration    17          0.845              1.275              0.687
 Vibration    18          0.882              1.191              0.595
 Vibration    19          0.930              1.088              0.497
 Vibration    20          0.945              1.058              0.471

                           ! Non-Optimized Parameters !
 Normal termination of Gaussian 16 at Wed Dec  9 18:33:00 2020.

 ----------------------------------------------------------------------
 # B3LYP/6-311++G(d,p) empiricaldispersion=gd3bj scf=xqc pop=npa geom=c
 heck
 ----------------------------------------------------------------------

 ---------------------------------------
 CID_130837175_JID_2962_Energie_neutraal
 ---------------------------------------
 Structure from the checkpoint file:  "JID_2962.chk"
 Charge =  0 Multiplicity = 1

 SCF Done:  E(RB3LYP) =  -954.583778481     A.U. after   15 cycles
 Normal termination of Gaussian 16 at Wed Dec  9 18:36:15 2020.

 ----------------------------------------------------------------------
 # B3LYP/6-311++G(d,p) empiricaldispersion=gd3bj scf=xqc pop=npa geom=c
 heck
 ----------------------------------------------------------------------

 -------------------------------------
 CID_130837175_JID_2962_Energie_kation
 -------------------------------------
 Structure from the checkpoint file:  "JID_2962.chk"
 Charge =  1 Multiplicity = 2

 SCF Done:  E(UB3LYP) =  -954.247040802     A.U. after   24 cycles
 Normal termination of Gaussian 16 at Wed Dec  9 18:43:18 2020.
 Gaussian 16:  ES64L-G16RevA.03 25-Dec-2016

 ----------------------------------------------------------------------
 # B3LYP/6-311++G(d,p) empiricaldispersion=gd3bj scf=xqc pop=npa geom=c
 heck
 ----------------------------------------------------------------------

 ------------------------------------
 CID_130837175_JID_2962_Energie_anion
 ------------------------------------
 Structure from the checkpoint file:  "JID_2962.chk"
 Charge = -1 Multiplicity = 2

                         Standard orientation:
 ---------------------------------------------------------------------
 Center     Atomic      Atomic             Coordinates (Angstroms)
 Number     Number       Type             X           Y           Z
 ---------------------------------------------------------------------
      1          6           0       -0.185006    1.974275   -0.139746
      2          6           0        0.135934    0.609819    0.456723
      3          6           0       -0.677652   -0.600052   -0.116789
      4          6           0        0.286392   -1.806475   -0.197792
      5          6           0        1.584429   -1.306521   -0.819160
      6         16           0        1.920669    0.197218    0.148030
      7          8           0        2.576642    1.227766   -0.673539
      8          8           0        2.511339   -0.213397    1.437649
      9          6           0       -1.889540   -0.955052    0.766604
     10          6           0       -2.939284    0.149084    0.921625
     11          7           0       -3.445471    0.580450   -0.397205
     12          8           0       -1.077148   -0.346415   -1.455345
     13          1           0        0.464898    2.741716    0.288013
     14          1           0       -1.225263    2.248219    0.058709
     15          1           0       -0.035071    1.962397   -1.220103
     16          1           0        0.073135    0.624693    1.548973
     17          1           0       -0.176939   -2.588670   -0.804714
     18          1           0        0.482775   -2.204224    0.803546
     19          1           0        1.450593   -1.009807   -1.860987
     20          1           0        2.439773   -1.975058   -0.707760
     21          1           0       -2.362044   -1.845197    0.328517
     22          1           0       -1.537499   -1.241720    1.765041
     23          1           0       -3.737751   -0.203470    1.592973
     24          1           0       -2.489628    1.023803    1.402413
     25          1           0       -4.054086   -0.139172   -0.785709
     26          1           0       -4.011337    1.421550   -0.305161
     27          1           0       -1.872275    0.232207   -1.390696
 ---------------------------------------------------------------------

 SCF Done:  E(UB3LYP) =  -954.579943156     A.U. after   24 cycles

 The electronic state is 2-A.
 Alpha  occ. eigenvalues --  -88.94138 -19.02073 -19.01753 -19.01107 -14.19726
 Alpha  occ. eigenvalues --  -10.14835 -10.11774 -10.11564 -10.09508 -10.09318
 Alpha  occ. eigenvalues --  -10.07417 -10.07259  -8.00747  -5.97015  -5.96879
 Alpha  occ. eigenvalues --   -5.96820  -1.00789  -0.92610  -0.90596  -0.78522
 Alpha  occ. eigenvalues --   -0.75261  -0.68898  -0.66455  -0.60015  -0.57853
 Alpha  occ. eigenvalues --   -0.51610  -0.49479  -0.47629  -0.43335  -0.41008
 Alpha  occ. eigenvalues --   -0.39571  -0.38111  -0.37324  -0.36678  -0.35896
 Alpha  occ. eigenvalues --   -0.34433  -0.33025  -0.32419  -0.30865  -0.30453
 Alpha  occ. eigenvalues --   -0.29004  -0.28381  -0.27102  -0.26333  -0.24908
 Alpha  occ. eigenvalues --   -0.23859  -0.22899  -0.22252  -0.20912  -0.19530
 Alpha  occ. eigenvalues --   -0.17355  -0.15084   0.04163
 Alpha virt. eigenvalues --    0.07090   0.07833   0.08101   0.09565   0.09767
 Alpha virt. eigenvalues --    0.10183   0.10983   0.11087   0.12463   0.12629
 Alpha virt. eigenvalues --    0.13186   0.13960   0.14386   0.14982   0.15124

  Beta  occ. eigenvalues --  -88.94138 -19.02070 -19.01751 -19.01096 -14.19636
  Beta  occ. eigenvalues --  -10.14836 -10.11770 -10.11553 -10.09500 -10.09266
  Beta  occ. eigenvalues --  -10.07393 -10.07240  -8.00747  -5.97015  -5.96878
  Beta  occ. eigenvalues --   -5.96820  -1.00784  -0.92587  -0.90590  -0.78382
  Beta  occ. eigenvalues --   -0.75244  -0.68876  -0.66389  -0.59950  -0.57814
  Beta  occ. eigenvalues --   -0.51491  -0.49447  -0.47599  -0.43312  -0.40987
  Beta  occ. eigenvalues --   -0.39460  -0.38064  -0.37285  -0.36655  -0.35880
  Beta  occ. eigenvalues --   -0.34393  -0.33000  -0.32342  -0.30794  -0.30424
  Beta  occ. eigenvalues --   -0.28989  -0.28340  -0.27075  -0.26280  -0.24863
  Beta  occ. eigenvalues --   -0.23815  -0.22884  -0.22245  -0.20908  -0.19517
  Beta  occ. eigenvalues --   -0.17339  -0.14998
  Beta virt. eigenvalues --    0.06839   0.07783   0.08499   0.08905   0.10051
  Beta virt. eigenvalues --    0.10218   0.10552   0.11239   0.11594   0.12987
  Beta virt. eigenvalues --    0.13060   0.13520   0.14244   0.14662   0.15160

 Mulliken charges and spin densities:
               1          2
     1  C   -0.075218  -0.701201
     2  C   -0.501993  -0.009110
     3  C   -0.314497   0.480430
     4  C    0.057297  -0.146027
     5  C   -0.632590  -0.067912
     6  S    0.697722  -0.184200
     7  O   -0.144413   0.003620
     8  O   -0.230759   0.013052
     9  C   -0.483136   0.171368
    10  C    2.444187  -3.063480
    11  N   -0.548620   0.081334
    12  O   -0.185066  -0.007313
    13  H    0.082552   0.092633
    14  H    0.129169   0.021850
    15  H    0.145966   0.081501
    16  H    0.085061   0.233328
    17  H    0.087237   0.117408
    18  H    0.031637   0.175332
    19  H    0.193859   0.050213
    20  H    0.222999   0.015069
    21  H   -0.408530   0.599212
    22  H    0.093264   0.062125
    23  H   -0.950646   1.139864
    24  H   -0.463401   0.630890
    25  H   -0.217529   0.475880
    26  H   -0.427026   0.695398
    27  H    0.312474   0.038737
 Sum of Mulliken charges =  -1.00000   1.00000

 Dipole moment (field-independent basis, Debye):
    X=              8.8932    Y=             -2.3329    Z=             -2.0943  Tot=              9.4296
 Quadrupole moment (field-independent basis, Debye-Ang):
   XX=           -177.0237   YY=           -109.8283   ZZ=           -114.5444
   XY=             -2.5063   XZ=              1.4876   YZ=              3.0434

 Summary of Natural Population Analysis:

                                       Natural Population
                Natural  -----------------------------------------------
    Atom  No    Charge         Core      Valence    Rydberg      Total
 -----------------------------------------------------------------------
      C    1   -0.29938      0.99963     2.29127    0.00849     3.29938
      C    2   -0.20285      0.99951     2.18867    0.01467     3.20285
      C    3    0.13195      0.99950     1.84970    0.01885     2.86805
      C    4   -0.20623      0.99958     2.19596    0.01069     3.20623
      C    5   -0.28701      0.99960     2.27774    0.00967     3.28701
      S    6    1.01024      4.99925     1.89724    0.09327     6.98976
      O    7   -0.46593      0.99991     3.46053    0.00549     4.46593
      O    8   -0.47378      0.99991     3.46826    0.00560     4.47378
      C    9   -0.20397      0.99957     2.19297    0.01143     3.20397
      C   10   -0.08942      0.99963     2.07676    0.01303     3.08942
      N   11   -0.44079      0.99977     2.92904    0.01198     3.94079
      O   12   -0.40157      0.99988     3.39499    0.00670     4.40157
      H   13    0.10603      0.00000     0.39299    0.00099     0.39397
      H   14    0.11076      0.00000     0.38798    0.00126     0.38924
      H   15    0.11228      0.00000     0.38661    0.00112     0.38772
      H   16    0.11817      0.00000     0.38051    0.00132     0.38183
      H   17    0.11447      0.00000     0.38444    0.00109     0.38553
      H   18    0.10784      0.00000     0.39098    0.00118     0.39216
      H   19    0.11963      0.00000     0.37907    0.00130     0.38037
      H   20    0.11456      0.00000     0.38415    0.00130     0.38544
      H   21    0.10466      0.00000     0.39368    0.00166     0.39534
      H   22    0.10533      0.00000     0.39323    0.00143     0.39467
      H   23    0.09419      0.00000     0.39974    0.00607     0.40581
      H   24    0.08995      0.00000     0.40776    0.00229     0.41005
      H   25    0.18609      0.00000     0.30725    0.00666     0.31391
      H   26    0.19226      0.00000     0.29775    0.00999     0.30774
      H   27    0.25250      0.00000     0.24359    0.00391     0.24750
 =======================================================================
   * Total *   -0.00000     15.99574    35.75283    0.25143    52.00000

 Normal termination of Gaussian 16 at Wed Dec  9 18:50:17 2020.
