 Gaussian 16, Revision A.03,

 -----------------------------------------------------------
 # opt freq B3LYP/6-31G(d) empiricaldispersion=gd3bj scf=xqc
 -----------------------------------------------------------

 -------------------------------
 CID_107450415_JID_6431_neutraal
 -------------------------------
 Symbolic Z-matrix:
 Charge =  0 Multiplicity = 1

 SCF Done:  E(RB3LYP) =  -679.788136466     A.U. after   12 cycles
 SCF Done:  E(RB3LYP) =  -679.791957137     A.U. after   10 cycles
 SCF Done:  E(RB3LYP) =  -679.789574743     A.U. after   10 cycles
 SCF Done:  E(RB3LYP) =  -679.792654272     A.U. after   10 cycles
 SCF Done:  E(RB3LYP) =  -679.793090829     A.U. after   10 cycles
 SCF Done:  E(RB3LYP) =  -679.793228616     A.U. after   10 cycles
 SCF Done:  E(RB3LYP) =  -679.793313373     A.U. after   10 cycles
 SCF Done:  E(RB3LYP) =  -679.793349030     A.U. after    9 cycles
 SCF Done:  E(RB3LYP) =  -679.793354159     A.U. after    8 cycles
 SCF Done:  E(RB3LYP) =  -679.793355141     A.U. after    8 cycles
 SCF Done:  E(RB3LYP) =  -679.793355595     A.U. after    8 cycles
 SCF Done:  E(RB3LYP) =  -679.793355706     A.U. after    6 cycles
 SCF Done:  E(RB3LYP) =  -679.793355743     A.U. after    6 cycles
 Optimization completed.
    -- Stationary point found.
 Normal termination of Gaussian 16 at Thu Dec 10 22:51:09 2020.

 --------------------------------------------------------------------
 #N Geom=AllCheck Guess=TCheck SCRF=Check GenChk RB3LYP/6-31G(d) Freq
 --------------------------------------------------------------------

 Structure from the checkpoint file:  "JID_6431.chk"
 -------------------------------
 CID_107450415_JID_6431_neutraal
 -------------------------------
 Charge =  0 Multiplicity = 1

 SCF Done:  E(RB3LYP) =  -679.793355743     A.U. after    1 cycles

  Exact polarizability: 166.317  -2.083 145.200   0.674   1.120 141.470
 Approx polarizability: 213.700  -1.819 210.773   1.786   0.561 207.633

                      1                      2                      3
                      A                      A                      A
 Frequencies --     29.0314                72.7974                81.5869
 Red. masses --      2.7823                 2.8580                 3.2253
 Frc consts  --      0.0014                 0.0089                 0.0126
 IR Inten    --      0.0374                 0.4186                 0.0589

                      4                      5                      6
                      A                      A                      A
 Frequencies --     89.2278               118.9719               178.0525
 Red. masses --      2.8544                 2.5716                 1.8209
 Frc consts  --      0.0134                 0.0214                 0.0340
 IR Inten    --      0.4988                 0.2795                 1.5361

                      7                      8                      9
                      A                      A                      A
 Frequencies --    199.4292               232.6911               241.2759
 Red. masses --      2.9496                 2.0755                 2.0773
 Frc consts  --      0.0691                 0.0662                 0.0712
 IR Inten    --      0.4305                 1.0521                 2.0301

                     10                     11                     12
                      A                      A                      A
 Frequencies --    253.2171               258.8560               277.5507
 Red. masses --      1.9505                 1.4383                 1.7007
 Frc consts  --      0.0737                 0.0568                 0.0772
 IR Inten    --      0.7866                 0.0077                 1.3438

                     13                     14                     15
                      A                      A                      A
 Frequencies --    289.9852               298.3033               318.5483
 Red. masses --      1.6456                 1.9438                 1.9237
 Frc consts  --      0.0815                 0.1019                 0.1150
 IR Inten    --      0.2120                 0.1802                 0.7054

                     16                     17                     18
                      A                      A                      A
 Frequencies --    337.6028               364.3067               372.8604
 Red. masses --      2.4914                 2.3538                 2.1572
 Frc consts  --      0.1673                 0.1841                 0.1767
 IR Inten    --      2.5807                 0.5566                 1.5320

                     19                     20                     21
                      A                      A                      A
 Frequencies --    416.8464               417.2049               443.0782
 Red. masses --      2.0572                 2.3204                 2.4024
 Frc consts  --      0.2106                 0.2380                 0.2779
 IR Inten    --      0.4524                 0.5195                 1.9703

                     22                     23                     24
                      A                      A                      A
 Frequencies --    444.2258               485.5573               514.7926
 Red. masses --      2.4870                 2.7950                 2.2805
 Frc consts  --      0.2892                 0.3883                 0.3561
 IR Inten    --      2.8209                 1.7284                 2.8506

                     25                     26                     27
                      A                      A                      A
 Frequencies --    532.7570               552.6077               646.7864
 Red. masses --      2.5110                 3.7052                 2.8076
 Frc consts  --      0.4199                 0.6666                 0.6920
 IR Inten    --      2.8208                 2.7858                10.0833

                     28                     29                     30
                      A                      A                      A
 Frequencies --    698.5965               715.3324               727.1806
 Red. masses --      2.3536                 1.9931                 2.2507
 Frc consts  --      0.6768                 0.6009                 0.7012
 IR Inten    --      2.0713                88.6114                 8.7446

                     31                     32                     33
                      A                      A                      A
 Frequencies --    748.8404               831.0799               854.0678
 Red. masses --      2.1702                 2.0086                 1.9457
 Frc consts  --      0.7170                 0.8174                 0.8362
 IR Inten    --     24.9727                18.0581                 1.7857

                     34                     35                     36
                      A                      A                      A
 Frequencies --    854.8200               874.3337               894.1255
 Red. masses --      2.8550                 2.5207                 1.7310
 Frc consts  --      1.2291                 1.1353                 0.8154
 IR Inten    --      3.0833                 6.5805                 1.6484

                     37                     38                     39
                      A                      A                      A
 Frequencies --    911.8004               928.5346               936.5614
 Red. masses --      2.1646                 2.2019                 1.7093
 Frc consts  --      1.0603                 1.1185                 0.8834
 IR Inten    --      7.2703                 4.4114                 1.1530

                     40                     41                     42
                      A                      A                      A
 Frequencies --    941.3936               959.3585               974.7334
 Red. masses --      1.3796                 2.0385                 1.9133
 Frc consts  --      0.7204                 1.1054                 1.0711
 IR Inten    --      0.0709                 0.7475                 0.1198

                     43                     44                     45
                      A                      A                      A
 Frequencies --    981.5368              1007.4922              1019.5039
 Red. masses --      1.6172                 1.8206                 2.0259
 Frc consts  --      0.9179                 1.0888                 1.2406
 IR Inten    --      0.4346                10.9217                 0.2709

                     46                     47                     48
                      A                      A                      A
 Frequencies --   1054.8241              1061.7870              1087.9202
 Red. masses --      1.9011                 1.7007                 1.9771
 Frc consts  --      1.2463                 1.1296                 1.3787
 IR Inten    --      1.3459                 1.3482                30.7192

                     49                     50                     51
                      A                      A                      A
 Frequencies --   1099.4020              1111.1003              1117.4057
 Red. masses --      2.1645                 1.6244                 2.3292
 Frc consts  --      1.5414                 1.1815                 1.7135
 IR Inten    --     34.2332                13.5959                59.4823

                     52                     53                     54
                      A                      A                      A
 Frequencies --   1120.8518              1129.0189              1150.5989
 Red. masses --      2.8203                 1.8890                 1.6244
 Frc consts  --      2.0876                 1.4187                 1.2670
 IR Inten    --     22.3267                 4.1601                 4.7902

                     55                     56                     57
                      A                      A                      A
 Frequencies --   1163.7199              1173.8710              1189.3382
 Red. masses --      1.6684                 1.8796                 1.8278
 Frc consts  --      1.3312                 1.5260                 1.5233
 IR Inten    --     16.4210                31.3193                 4.6659

                     58                     59                     60
                      A                      A                      A
 Frequencies --   1196.4480              1220.8271              1230.9029
 Red. masses --      1.4979                 1.5052                 1.4731
 Frc consts  --      1.2633                 1.3218                 1.3150
 IR Inten    --      2.2054                 4.4284                17.8674

                     61                     62                     63
                      A                      A                      A
 Frequencies --   1234.8755              1268.6436              1289.0671
 Red. masses --      2.0429                 2.1880                 1.3625
 Frc consts  --      1.8354                 2.0748                 1.3339
 IR Inten    --     10.4449                22.1969                12.8941

                     64                     65                     66
                      A                      A                      A
 Frequencies --   1309.9693              1325.4545              1339.2341
 Red. masses --      1.2798                 1.3167                 1.3346
 Frc consts  --      1.2939                 1.3629                 1.4103
 IR Inten    --      5.0205                 8.0647                 2.1416

                     67                     68                     69
                      A                      A                      A
 Frequencies --   1347.4007              1354.7255              1365.5511
 Red. masses --      1.3041                 1.3825                 1.4317
 Frc consts  --      1.3949                 1.4949                 1.5730
 IR Inten    --      3.6973                 2.5620                 7.1461

                     70                     71                     72
                      A                      A                      A
 Frequencies --   1376.3130              1377.4388              1386.2541
 Red. masses --      1.3694                 1.5675                 1.3751
 Frc consts  --      1.5284                 1.7522                 1.5569
 IR Inten    --      9.4599                 7.7810                 4.2598

                     73                     74                     75
                      A                      A                      A
 Frequencies --   1390.7586              1396.6271              1410.1184
 Red. masses --      1.4046                 1.4428                 1.4621
 Frc consts  --      1.6006                 1.6581                 1.7130
 IR Inten    --      0.7450                 4.1916                 2.3506

                     76                     77                     78
                      A                      A                      A
 Frequencies --   1414.7823              1417.8232              1426.1272
 Red. masses --      1.3529                 1.4785                 1.2510
 Frc consts  --      1.5955                 1.7512                 1.4991
 IR Inten    --      2.9044                 0.6893                 0.9537

                     79                     80                     81
                      A                      A                      A
 Frequencies --   1431.7473              1435.3045              1454.2921
 Red. masses --      1.3330                 1.3099                 1.2578
 Frc consts  --      1.6099                 1.5900                 1.5674
 IR Inten    --      9.4703                 5.0938                10.3686

                     82                     83                     84
                      A                      A                      A
 Frequencies --   1481.1526              1495.7499              1503.7268
 Red. masses --      1.1614                 1.0948                 1.1149
 Frc consts  --      1.5012                 1.4432                 1.4853
 IR Inten    --      1.9703                 6.3143                 6.8911

                     85                     86                     87
                      A                      A                      A
 Frequencies --   1509.1829              1512.7703              1517.2745
 Red. masses --      1.0826                 1.1044                 1.1443
 Frc consts  --      1.4528                 1.4891                 1.5521
 IR Inten    --      2.4205                 6.1654                10.2369

                     88                     89                     90
                      A                      A                      A
 Frequencies --   1517.7447              1523.0542              1527.1860
 Red. masses --      1.0623                 1.0657                 1.0742
 Frc consts  --      1.4417                 1.4565                 1.4761
 IR Inten    --      0.2546                13.7613                 5.7233

                     91                     92                     93
                      A                      A                      A
 Frequencies --   1529.9851              1539.0183              1542.1500
 Red. masses --      1.0766                 1.0726                 1.0629
 Frc consts  --      1.4849                 1.4969                 1.4894
 IR Inten    --      3.2949                 4.7133                 4.8291

                     94                     95                     96
                      A                      A                      A
 Frequencies --   1545.4654              1548.1064              1554.0983
 Red. masses --      1.0763                 1.0568                 1.0583
 Frc consts  --      1.5145                 1.4923                 1.5059
 IR Inten    --      8.9971                 2.9580                 8.7845

                     97                     98                     99
                      A                      A                      A
 Frequencies --   2973.6530              2990.0951              2991.8453
 Red. masses --      1.0576                 1.0721                 1.0833
 Frc consts  --      5.5099                 5.6476                 5.7132
 IR Inten    --     70.2296                51.3656                14.2422

                    100                    101                    102
                      A                      A                      A
 Frequencies --   3007.7281              3021.3015              3029.5636
 Red. masses --      1.0816                 1.0835                 1.0658
 Frc consts  --      5.7647                 5.8275                 5.7637
 IR Inten    --     26.9003                28.0165                48.7136

                    103                    104                    105
                      A                      A                      A
 Frequencies --   3042.2170              3045.8527              3048.7750
 Red. masses --      1.0364                 1.0679                 1.0706
 Frc consts  --      5.6513                 5.8373                 5.8632
 IR Inten    --     18.0652                23.1904                18.2795

                    106                    107                    108
                      A                      A                      A
 Frequencies --   3051.8199              3055.8827              3058.6738
 Red. masses --      1.0664                 1.0584                 1.0515
 Frc consts  --      5.8515                 5.8235                 5.7959
 IR Inten    --     32.4738                50.6574                14.3711

                    109                    110                    111
                      A                      A                      A
 Frequencies --   3060.2156              3065.6733              3069.2888
 Red. masses --      1.0638                 1.0972                 1.0753
 Frc consts  --      5.8694                 6.0756                 5.9681
 IR Inten    --     27.5534                44.1989                62.4844

                    112                    113                    114
                      A                      A                      A
 Frequencies --   3093.4591              3097.6116              3101.2532
 Red. masses --      1.0968                 1.0908                 1.0979
 Frc consts  --      6.1839                 6.1664                 6.2212
 IR Inten    --     62.6478                60.0541                34.0579

                    115                    116                    117
                      A                      A                      A
 Frequencies --   3105.7701              3108.6175              3110.0474
 Red. masses --      1.1046                 1.1015                 1.0964
 Frc consts  --      6.2774                 6.2716                 6.2483
 IR Inten    --     27.4903                18.5585                61.2778

                    118                    119                    120
                      A                      A                      A
 Frequencies --   3111.1198              3114.1120              3116.3968
 Red. masses --      1.0986                 1.1025                 1.0959
 Frc consts  --      6.2652                 6.2995                 6.2708
 IR Inten    --     24.9304                36.4266                61.7033

                    121                    122                    123
                      A                      A                      A
 Frequencies --   3141.8922              3158.0356              3533.7929
 Red. masses --      1.0961                 1.0916                 1.0730
 Frc consts  --      6.3753                 6.4141                 7.8947
 IR Inten    --     45.1552                 7.4078                 0.8310

 - Thermochemistry -
 -------------------
 Temperature   298.150 Kelvin.  Pressure   1.00000 Atm.
 Atom     1 has atomic number  6 and mass  12.00000

 Molecular mass:   225.20926 amu.
 Principal axes and moments of inertia in atomic units:
                           1         2         3
     Eigenvalues --  2367.912564890.375115230.67379
           X            0.99995   0.00220   0.01017
           Y           -0.00239   0.99982   0.01866
           Z           -0.01012  -0.01868   0.99977
 This molecule is an asymmetric top.
 Rotational symmetry number  1.
 Warning -- assumption of classical behavior for rotation
           may cause significant error
 Rotational temperatures (Kelvin)      0.03658     0.01771     0.01656
 Rotational constants (GHZ):           0.76217     0.36904     0.34503
 Zero-point vibrational energy    1054743.4 (Joules/Mol)
                                  252.08972 (Kcal/Mol)
 Warning -- explicit consideration of  26 degrees of freedom as
           vibrations may cause significant error
 Vibrational temperatures:     41.77   104.74   117.39   128.38   171.17
          (Kelvin)            256.18   286.93   334.79   347.14   364.32
                              372.44   399.33   417.22   429.19   458.32
                              485.74   524.16   536.46   599.75   600.26
                              637.49   639.14   698.61   740.67   766.52
                              795.08   930.58  1005.12  1029.20  1046.25
                             1077.41  1195.74  1228.81  1229.90  1257.97
                             1286.45  1311.88  1335.95  1347.50  1354.46
                             1380.30  1402.42  1412.21  1449.56  1466.84
                             1517.66  1527.67  1565.27  1581.79  1598.63
                             1607.70  1612.66  1624.41  1655.46  1674.33
                             1688.94  1711.19  1721.42  1756.50  1770.99
                             1776.71  1825.30  1854.68  1884.75  1907.03
                             1926.86  1938.61  1949.15  1964.72  1980.21
                             1981.83  1994.51  2000.99  2009.43  2028.85
                             2035.56  2039.93  2051.88  2059.97  2065.08
                             2092.40  2131.05  2152.05  2163.53  2171.38
                             2176.54  2183.02  2183.70  2191.34  2197.28
                             2201.31  2214.30  2218.81  2223.58  2227.38
                             2236.00  4278.42  4302.08  4304.60  4327.45
                             4346.98  4358.87  4377.07  4382.30  4386.51
                             4390.89  4396.73  4400.75  4402.97  4410.82
                             4416.02  4450.80  4456.77  4462.01  4468.51
                             4472.61  4474.66  4476.21  4480.51  4483.80
                             4520.48  4543.71  5084.34

 Zero-point correction=                           0.401731 (Hartree/Particle)
 Thermal correction to Energy=                    0.418127
 Thermal correction to Enthalpy=                  0.419072
 Thermal correction to Gibbs Free Energy=         0.358970
 Sum of electronic and zero-point Energies=           -679.391625
 Sum of electronic and thermal Energies=              -679.375228
 Sum of electronic and thermal Enthalpies=            -679.374284
 Sum of electronic and thermal Free Energies=         -679.434386

                     E (Thermal)             CV                S
                      KCal/Mol        Cal/Mol-Kelvin    Cal/Mol-Kelvin
 Total                  262.379             66.329            126.494
 Electronic               0.000              0.000              0.000
 Translational            0.889              2.981             42.138
 Rotational               0.889              2.981             32.471
 Vibrational            260.601             60.368             51.885
 Vibration     1          0.593              1.984              5.895
 Vibration     2          0.599              1.967              4.076
 Vibration     3          0.600              1.962              3.852
 Vibration     4          0.602              1.957              3.677
 Vibration     5          0.609              1.934              3.117
 Vibration     6          0.628              1.869              2.349
 Vibration     7          0.638              1.841              2.138
 Vibration     8          0.653              1.791              1.858
 Vibration     9          0.658              1.777              1.793
 Vibration    10          0.664              1.757              1.708
 Vibration    11          0.668              1.748              1.669
 Vibration    12          0.679              1.715              1.549
 Vibration    13          0.686              1.692              1.474
 Vibration    14          0.691              1.677              1.426
 Vibration    15          0.705              1.638              1.318
 Vibration    16          0.718              1.600              1.223
 Vibration    17          0.738              1.546              1.104
 Vibration    18          0.744              1.528              1.068
 Vibration    19          0.780              1.434              0.903
 Vibration    20          0.780              1.433              0.902
 Vibration    21          0.803              1.376              0.817
 Vibration    22          0.804              1.374              0.813
 Vibration    23          0.842              1.282              0.695
 Vibration    24          0.870              1.217              0.622
 Vibration    25          0.888              1.178              0.581
 Vibration    26          0.908              1.134              0.539

 Optimization completed.
    -- Stationary point found.
 Normal termination of Gaussian 16 at Thu Dec 10 23:10:12 2020.

 ----------------------------------------------------------------------
 # B3LYP/6-311++G(d,p) empiricaldispersion=gd3bj scf=xqc pop=npa geom=c
 heck
 ----------------------------------------------------------------------

 ---------------------------------------
 CID_107450415_JID_6431_Energie_neutraal
 ---------------------------------------
 Structure from the checkpoint file:  "JID_6431.chk"
 Charge =  0 Multiplicity = 1

 SCF Done:  E(RB3LYP) =  -679.982527426     A.U. after   15 cycles
 Normal termination of Gaussian 16 at Thu Dec 10 23:20:11 2020.

 ----------------------------------------------------------------------
 # B3LYP/6-311++G(d,p) empiricaldispersion=gd3bj scf=xqc pop=npa geom=c
 heck
 ----------------------------------------------------------------------

 -------------------------------------
 CID_107450415_JID_6431_Energie_kation
 -------------------------------------
 Structure from the checkpoint file:  "JID_6431.chk"
 Charge =  1 Multiplicity = 2

 SCF Done:  E(UB3LYP) =  -679.683919876     A.U. after   25 cycles
 Normal termination of Gaussian 16 at Thu Dec 10 23:40:25 2020.
 Gaussian 16:  ES64L-G16RevA.03 25-Dec-2016

 ----------------------------------------------------------------------
 # B3LYP/6-311++G(d,p) empiricaldispersion=gd3bj scf=xqc pop=npa geom=c
 heck
 ----------------------------------------------------------------------

 ------------------------------------
 CID_107450415_JID_6431_Energie_anion
 ------------------------------------
 Structure from the checkpoint file:  "JID_6431.chk"
 Charge = -1 Multiplicity = 2

                         Standard orientation:
 ---------------------------------------------------------------------
 Center     Atomic      Atomic             Coordinates (Angstroms)
 Number     Number       Type             X           Y           Z
 ---------------------------------------------------------------------
      1          6           0       -2.473764    1.675273   -0.894264
      2          6           0       -3.077677    0.305083   -0.560925
      3          6           0       -3.363905   -0.467114   -1.855818
      4          6           0       -2.354139   -0.586812    0.492606
      5          6           0       -2.104145    0.125042    1.840800
      6          6           0       -0.726880    0.788400    1.961292
      7          6           0        0.397568   -0.213119    1.674514
      8          6           0        0.302539   -0.809887    0.256325
      9          6           0       -1.108755   -1.402913    0.060709
     10          6           0        0.697656    0.183260   -0.854253
     11          6           0        2.219709    0.422774   -1.045361
     12          6           0        2.940441   -0.929217   -1.071263
     13          6           0        2.532624   -1.775553    0.131181
     14          8           0        1.130597   -1.993482    0.160356
     15          7           0        2.891469    1.316113   -0.095982
     16          6           0        2.320488    2.648161    0.026510
     17          1           0       -1.553850    1.586952   -1.477521
     18          1           0       -2.259143    2.264421    0.002329
     19          1           0       -3.183947    2.250923   -1.499975
     20          1           0       -4.052036    0.514575   -0.093029
     21          1           0       -2.448832   -0.627098   -2.437808
     22          1           0       -3.805276   -1.449706   -1.650773
     23          1           0       -4.061731    0.089488   -2.491864
     24          1           0       -3.110999   -1.357514    0.695732
     25          1           0       -2.899445    0.858560    2.026656
     26          1           0       -2.181012   -0.620807    2.644150
     27          1           0       -0.646522    1.641192    1.278171
     28          1           0       -0.604517    1.195909    2.972465
     29          1           0        0.330769   -1.050075    2.382124
     30          1           0        1.367365    0.264530    1.840380
     31          1           0       -1.100116   -2.312460    0.673604
     32          1           0       -1.202276   -1.746432   -0.974198
     33          1           0        0.312582   -0.209263   -1.804165
     34          1           0        0.200420    1.140033   -0.691809
     35          1           0        2.337067    0.904043   -2.026310
     36          1           0        4.024605   -0.770682   -1.085365
     37          1           0        2.659792   -1.472251   -1.981463
     38          1           0        2.879215   -1.317525    1.072191
     39          1           0        2.981298   -2.772466    0.079799
     40          1           0        2.962645    0.882937    0.819703
     41          1           0        1.292009    2.689410    0.426144
     42          1           0        2.957448    3.254455    0.679242
     43          1           0        2.308867    3.123654   -0.961689
 ---------------------------------------------------------------------

 SCF Done:  E(UB3LYP) =  -679.968713149     A.U. after   27 cycles

 The electronic state is 2-A.
 Alpha  occ. eigenvalues --  -19.02277 -14.20297 -10.12872 -10.12250 -10.10678
 Alpha  occ. eigenvalues --  -10.09143 -10.07423 -10.07418 -10.07302 -10.06667
 Alpha  occ. eigenvalues --  -10.06599 -10.06576 -10.06368 -10.06138 -10.05897
 Alpha  occ. eigenvalues --  -10.05600  -0.93696  -0.81373  -0.74063  -0.69770
 Alpha  occ. eigenvalues --   -0.68843  -0.66661  -0.63466  -0.59982  -0.58407
 Alpha  occ. eigenvalues --   -0.57850  -0.54474  -0.53021  -0.51121  -0.48546
 Alpha  occ. eigenvalues --   -0.44964  -0.42168  -0.41197  -0.38892  -0.37484
 Alpha  occ. eigenvalues --   -0.37100  -0.36975  -0.36248  -0.35144  -0.34391
 Alpha  occ. eigenvalues --   -0.33606  -0.33111  -0.31200  -0.30094  -0.30049
 Alpha  occ. eigenvalues --   -0.29366  -0.28990  -0.28726  -0.27898  -0.27325
 Alpha  occ. eigenvalues --   -0.27013  -0.25973  -0.25600  -0.24270  -0.23869
 Alpha  occ. eigenvalues --   -0.23543  -0.23224  -0.21542  -0.20969  -0.20029
 Alpha  occ. eigenvalues --   -0.18929  -0.15843  -0.13009   0.04227
 Alpha virt. eigenvalues --    0.06264   0.06546   0.06843   0.07984   0.08243
 Alpha virt. eigenvalues --    0.08604   0.09106   0.09310   0.10350   0.10426
 Alpha virt. eigenvalues --    0.10689   0.11187   0.11725   0.12155   0.12466

  Beta  occ. eigenvalues --  -19.02274 -14.20285 -10.12873 -10.12241 -10.10671
  Beta  occ. eigenvalues --  -10.09116 -10.07416 -10.07407 -10.07297 -10.06657
  Beta  occ. eigenvalues --  -10.06583 -10.06558 -10.06351 -10.06129 -10.05871
  Beta  occ. eigenvalues --  -10.05575  -0.93690  -0.81353  -0.74041  -0.69746
  Beta  occ. eigenvalues --   -0.68824  -0.66635  -0.63435  -0.59952  -0.58358
  Beta  occ. eigenvalues --   -0.57802  -0.54442  -0.52980  -0.51091  -0.48495
  Beta  occ. eigenvalues --   -0.44931  -0.42134  -0.41164  -0.38863  -0.37453
  Beta  occ. eigenvalues --   -0.37068  -0.36951  -0.36221  -0.35118  -0.34365
  Beta  occ. eigenvalues --   -0.33575  -0.33087  -0.31175  -0.30060  -0.30026
  Beta  occ. eigenvalues --   -0.29335  -0.28962  -0.28700  -0.27875  -0.27304
  Beta  occ. eigenvalues --   -0.26988  -0.25950  -0.25575  -0.24248  -0.23841
  Beta  occ. eigenvalues --   -0.23518  -0.23191  -0.21516  -0.20940  -0.20001
  Beta  occ. eigenvalues --   -0.18906  -0.15829  -0.12992
  Beta virt. eigenvalues --    0.06170   0.06926   0.07143   0.07321   0.08388
  Beta virt. eigenvalues --    0.08686   0.09106   0.09310   0.09634   0.10641
  Beta virt. eigenvalues --    0.10786   0.10933   0.11535   0.11935   0.12401

 Mulliken charges and spin densities:
               1          2
     1  C    0.248435  -0.877755
     2  C   -0.841705   0.883754
     3  C    0.688074  -1.376798
     4  C    1.296531  -0.654100
     5  C    0.654746  -1.420925
     6  C   -0.184074   0.120744
     7  C   -0.636855   0.379172
     8  C   -1.318483   0.523734
     9  C   -0.692176   0.293060
    10  C   -0.094513   0.126279
    11  C    0.134595  -0.536036
    12  C   -0.121788  -0.325317
    13  C    0.433325  -0.553006
    14  O    0.035442   0.007558
    15  N   -0.052931   0.058885
    16  C    0.291821  -0.651777
    17  H   -0.422824   0.599825
    18  H   -0.021792   0.167984
    19  H   -0.211853   0.374825
    20  H   -0.185833   0.365877
    21  H   -0.117617   0.241113
    22  H   -0.149074   0.283426
    23  H   -0.139064   0.278105
    24  H   -0.057662   0.280974
    25  H   -0.183917   0.362896
    26  H    0.064440   0.079244
    27  H    0.464204  -0.443943
    28  H   -0.690463   0.909019
    29  H    0.031760   0.157011
    30  H   -0.174617   0.266166
    31  H   -0.040157   0.236824
    32  H    0.165160   0.001659
    33  H    0.007186   0.207478
    34  H    1.447143  -1.450067
    35  H   -0.175921   0.363557
    36  H    0.074369   0.094156
    37  H    0.081133   0.058819
    38  H   -0.025109   0.134769
    39  H   -0.006096   0.194973
    40  H    0.257331  -0.035555
    41  H   -0.319779   0.468457
    42  H   -0.463618   0.611305
    43  H   -0.047771   0.193633
 Sum of Mulliken charges =  -1.00000   1.00000

 Dipole moment (field-independent basis, Debye):
    X=              2.7002    Y=             -2.9706    Z=             -1.3253  Tot=              4.2276
 Quadrupole moment (field-independent basis, Debye-Ang):
   XX=           -175.1387   YY=           -153.6622   ZZ=           -151.9713
   XY=             -4.9135   XZ=             -3.9064   YZ=             -2.5817

 Summary of Natural Population Analysis:

                                       Natural Population
                Natural  -----------------------------------------------
    Atom  No    Charge         Core      Valence    Rydberg      Total
 -----------------------------------------------------------------------
      C    1   -0.28643      0.99964     2.28053    0.00626     3.28643
      C    2   -0.10703      0.99959     2.09718    0.01027     3.10703
      C    3   -0.28502      0.99965     2.27893    0.00644     3.28502
      C    4   -0.10572      0.99956     2.09413    0.01203     3.10572
      C    5   -0.18759      0.99961     2.17890    0.00908     3.18759
      C    6   -0.19203      0.99962     2.18343    0.00899     3.19203
      C    7   -0.20257      0.99956     2.19250    0.01051     3.20257
      C    8    0.14412      0.99948     1.84068    0.01572     2.85588
      C    9   -0.19683      0.99955     2.18507    0.01221     3.19683
      C   10   -0.21767      0.99955     2.20778    0.01034     3.21767
      C   11   -0.00540      0.99958     1.99208    0.01373     3.00540
      C   12   -0.20503      0.99960     2.19784    0.00759     3.20503
      C   13   -0.00802      0.99957     1.99706    0.01139     3.00802
      O   14   -0.31267      0.99987     3.30277    0.01002     4.31267
      N   15   -0.34323      0.99974     2.83147    0.01201     3.84323
      C   16   -0.17905      0.99965     2.17121    0.00819     3.17905
      H   17    0.09540      0.00000     0.40313    0.00148     0.40460
      H   18    0.09954      0.00000     0.39922    0.00124     0.40046
      H   19    0.09924      0.00000     0.39978    0.00097     0.40076
      H   20    0.09258      0.00000     0.40559    0.00184     0.40742
      H   21    0.09572      0.00000     0.40325    0.00103     0.40428
      H   22    0.09870      0.00000     0.40032    0.00098     0.40130
      H   23    0.09951      0.00000     0.39963    0.00086     0.40049
      H   24    0.09921      0.00000     0.39919    0.00160     0.40079
      H   25    0.10081      0.00000     0.39790    0.00129     0.39919
      H   26    0.09654      0.00000     0.40225    0.00121     0.40346
      H   27    0.09411      0.00000     0.40362    0.00228     0.40589
      H   28    0.10128      0.00000     0.39740    0.00132     0.39872
      H   29    0.10110      0.00000     0.39750    0.00140     0.39890
      H   30    0.09550      0.00000     0.40255    0.00195     0.40450
      H   31    0.10648      0.00000     0.39201    0.00151     0.39352
      H   32    0.10381      0.00000     0.39479    0.00140     0.39619
      H   33    0.10275      0.00000     0.39585    0.00140     0.39725
      H   34    0.10682      0.00000     0.39094    0.00224     0.39318
      H   35    0.09313      0.00000     0.40531    0.00157     0.40687
      H   36    0.10433      0.00000     0.39437    0.00130     0.39567
      H   37    0.09980      0.00000     0.39911    0.00109     0.40020
      H   38    0.07498      0.00000     0.42352    0.00150     0.42502
      H   39    0.09018      0.00000     0.40873    0.00109     0.40982
      H   40    0.17078      0.00000     0.32554    0.00368     0.32922
      H   41    0.08083      0.00000     0.41749    0.00169     0.41917
      H   42    0.09596      0.00000     0.40301    0.00103     0.40404
      H   43    0.09110      0.00000     0.40774    0.00116     0.40890
 =======================================================================
   * Total *    0.00000     15.99383    46.80129    0.20488    63.00000

 Normal termination of Gaussian 16 at Fri Dec 11 00:02:37 2020.
