 Gaussian 16, Revision A.03,

 -----------------------------------------------------------
 # opt freq B3LYP/6-31G(d) empiricaldispersion=gd3bj scf=xqc
 -----------------------------------------------------------

 ------------------------------
 CID_82748292_JID_7271_neutraal
 ------------------------------
 Symbolic Z-matrix:
 Charge =  0 Multiplicity = 1

 SCF Done:  E(RB3LYP) =  -754.978258899     A.U. after   13 cycles
 SCF Done:  E(RB3LYP) =  -754.984637250     A.U. after   11 cycles
 SCF Done:  E(RB3LYP) =  -754.972328465     A.U. after   12 cycles
 SCF Done:  E(RB3LYP) =  -754.978490120     A.U. after   11 cycles
 SCF Done:  E(RB3LYP) =  -754.985315389     A.U. after    9 cycles
 SCF Done:  E(RB3LYP) =  -754.985640087     A.U. after   11 cycles
 SCF Done:  E(RB3LYP) =  -754.986524428     A.U. after   11 cycles
 SCF Done:  E(RB3LYP) =  -754.987398149     A.U. after   10 cycles
 SCF Done:  E(RB3LYP) =  -754.988083888     A.U. after   10 cycles
 SCF Done:  E(RB3LYP) =  -754.988497519     A.U. after   10 cycles
 SCF Done:  E(RB3LYP) =  -754.992566031     A.U. after    9 cycles
 SCF Done:  E(RB3LYP) =  -754.992570465     A.U. after    9 cycles
 SCF Done:  E(RB3LYP) =  -754.992573356     A.U. after    8 cycles
 SCF Done:  E(RB3LYP) =  -754.992573779     A.U. after    7 cycles
 SCF Done:  E(RB3LYP) =  -754.992573917     A.U. after    6 cycles
 SCF Done:  E(RB3LYP) =  -754.992573944     A.U. after    5 cycles
 Optimization completed.
    -- Stationary point found.
 Normal termination of Gaussian 16 at Fri Dec 11 12:26:59 2020.

 --------------------------------------------------------------------
 #N Geom=AllCheck Guess=TCheck SCRF=Check GenChk RB3LYP/6-31G(d) Freq
 --------------------------------------------------------------------

 Structure from the checkpoint file:  "JID_7271.chk"
 ------------------------------
 CID_82748292_JID_7271_neutraal
 ------------------------------
 Charge =  0 Multiplicity = 1

 SCF Done:  E(RB3LYP) =  -754.992573944     A.U. after    1 cycles

  Exact polarizability: 172.828   1.249 146.752   0.736  -1.699 143.467
 Approx polarizability: 221.100   0.672 214.247   3.069  -3.931 210.163

                      1                      2                      3
                      A                      A                      A
 Frequencies --     46.5460                78.4674                87.3412
 Red. masses --      3.3698                 3.0937                 3.3825
 Frc consts  --      0.0043                 0.0112                 0.0152
 IR Inten    --      1.2354                 0.2065                 0.7185

                      4                      5                      6
                      A                      A                      A
 Frequencies --    117.2866               140.1454               159.9153
 Red. masses --      2.6950                 2.6116                 2.2683
 Frc consts  --      0.0218                 0.0302                 0.0342
 IR Inten    --      1.9390                 1.1894                 1.0321

                      7                      8                      9
                      A                      A                      A
 Frequencies --    168.6107               186.2013               201.7931
 Red. masses --      1.2258                 3.4259                 2.0495
 Frc consts  --      0.0205                 0.0700                 0.0492
 IR Inten    --      0.3826                 0.8171                 1.1653

                     10                     11                     12
                      A                      A                      A
 Frequencies --    213.4413               218.4723               224.8770
 Red. masses --      1.5438                 3.0983                 2.9411
 Frc consts  --      0.0414                 0.0871                 0.0876
 IR Inten    --      0.5179                 3.7944                 2.1833

                     13                     14                     15
                      A                      A                      A
 Frequencies --    253.4591               277.6133               284.1155
 Red. masses --      1.1604                 3.1861                 2.9591
 Frc consts  --      0.0439                 0.1447                 0.1407
 IR Inten    --      0.1848                 1.2273                11.0154

                     16                     17                     18
                      A                      A                      A
 Frequencies --    295.6009               331.8475               347.1985
 Red. masses --      2.8822                 3.0385                 1.3030
 Frc consts  --      0.1484                 0.1971                 0.0925
 IR Inten    --      4.0942                 0.3847                 0.9231

                     19                     20                     21
                      A                      A                      A
 Frequencies --    368.7641               379.3049               393.9450
 Red. masses --      2.0767                 2.3134                 2.3538
 Frc consts  --      0.1664                 0.1961                 0.2152
 IR Inten    --      2.1484                 0.2288                 1.6519

                     22                     23                     24
                      A                      A                      A
 Frequencies --    417.2651               434.7541               442.5840
 Red. masses --      3.3515                 1.9469                 3.2149
 Frc consts  --      0.3438                 0.2168                 0.3710
 IR Inten    --      6.5165                 0.7010                 4.2085

                     25                     26                     27
                      A                      A                      A
 Frequencies --    469.7916               558.2680               588.4592
 Red. masses --      3.5975                 3.3872                 3.3221
 Frc consts  --      0.4678                 0.6220                 0.6778
 IR Inten    --      1.5617                 3.1134                 4.8515

                     28                     29                     30
                      A                      A                      A
 Frequencies --    626.9247               660.5647               682.2067
 Red. masses --      3.0235                 2.7879                 1.9739
 Frc consts  --      0.7001                 0.7167                 0.5413
 IR Inten    --      2.3880                11.5796                39.3026

                     31                     32                     33
                      A                      A                      A
 Frequencies --    730.5775               745.0278               774.4330
 Red. masses --      1.4088                 2.8020                 3.2298
 Frc consts  --      0.4430                 0.9164                 1.1413
 IR Inten    --     72.3047                18.7816                 2.4580

                     34                     35                     36
                      A                      A                      A
 Frequencies --    795.1907               824.4573               841.7406
 Red. masses --      3.1918                 2.2837                 2.5906
 Frc consts  --      1.1891                 0.9146                 1.0814
 IR Inten    --      5.9869                 3.8686                 3.9388

                     37                     38                     39
                      A                      A                      A
 Frequencies --    862.4181               883.9109               904.5691
 Red. masses --      2.3606                 1.8037                 1.7418
 Frc consts  --      1.0345                 0.8303                 0.8397
 IR Inten    --     16.7190                 3.9033                 4.7671

                     40                     41                     42
                      A                      A                      A
 Frequencies --    917.2860               939.4102               955.4053
 Red. masses --      2.1159                 2.1212                 1.9712
 Frc consts  --      1.0490                 1.1029                 1.0601
 IR Inten    --      0.3714                 2.3508                 0.9531

                     43                     44                     45
                      A                      A                      A
 Frequencies --    966.1842               990.6909              1003.4356
 Red. masses --      2.4620                 2.4539                 2.1220
 Frc consts  --      1.3541                 1.4190                 1.2588
 IR Inten    --      2.8621                 6.0739                 5.8488

                     46                     47                     48
                      A                      A                      A
 Frequencies --   1017.8987              1041.1011              1056.8556
 Red. masses --      1.8230                 2.9314                 1.7445
 Frc consts  --      1.1129                 1.8721                 1.1480
 IR Inten    --     18.8806                23.0812                16.6673

                     49                     50                     51
                      A                      A                      A
 Frequencies --   1063.5992              1071.4539              1085.9221
 Red. masses --      1.9944                 1.8959                 2.2297
 Frc consts  --      1.3293                 1.2824                 1.5492
 IR Inten    --     21.7386                64.1795                28.9372

                     52                     53                     54
                      A                      A                      A
 Frequencies --   1102.6572              1111.3595              1115.6668
 Red. masses --      1.9726                 1.9338                 1.9262
 Frc consts  --      1.4131                 1.4072                 1.4126
 IR Inten    --     12.7065                 8.3504                34.3966

                     55                     56                     57
                      A                      A                      A
 Frequencies --   1141.6290              1150.6212              1159.4541
 Red. masses --      1.7027                 1.9265                 1.5928
 Frc consts  --      1.3075                 1.5028                 1.2616
 IR Inten    --     33.7391                 8.3665                12.3803

                     58                     59                     60
                      A                      A                      A
 Frequencies --   1161.9361              1184.3712              1192.8525
 Red. masses --      1.2610                 2.2561                 2.2218
 Frc consts  --      1.0030                 1.8646                 1.8627
 IR Inten    --      6.0028                24.6216                 9.7046

                     61                     62                     63
                      A                      A                      A
 Frequencies --   1205.1017              1245.4138              1255.8253
 Red. masses --      2.4974                 1.4825                 1.4829
 Frc consts  --      2.1369                 1.3548                 1.3780
 IR Inten    --     12.7631                25.1684                11.8478

                     64                     65                     66
                      A                      A                      A
 Frequencies --   1269.0491              1284.6870              1294.9268
 Red. masses --      1.5833                 1.9067                 1.2853
 Frc consts  --      1.5023                 1.8541                 1.2698
 IR Inten    --      4.2367                17.3224                 3.6919

                     67                     68                     69
                      A                      A                      A
 Frequencies --   1305.1491              1316.2782              1330.1908
 Red. masses --      1.4417                 1.2147                 1.4302
 Frc consts  --      1.4470                 1.2400                 1.4910
 IR Inten    --      0.5728                 3.4225                 5.3924

                     70                     71                     72
                      A                      A                      A
 Frequencies --   1350.1968              1353.1913              1367.8715
 Red. masses --      1.3847                 1.3420                 1.2595
 Frc consts  --      1.4873                 1.4479                 1.3885
 IR Inten    --      3.5243                15.5249                 2.1316

                     73                     74                     75
                      A                      A                      A
 Frequencies --   1380.5113              1392.4952              1398.3500
 Red. masses --      1.3842                 1.3402                 1.3413
 Frc consts  --      1.5543                 1.5311                 1.5452
 IR Inten    --      3.3952                11.0955                10.7795

                     76                     77                     78
                      A                      A                      A
 Frequencies --   1405.0946              1407.3226              1415.9875
 Red. masses --      1.2855                 1.3772                 1.3126
 Frc consts  --      1.4954                 1.6071                 1.5506
 IR Inten    --      8.2858                 2.1000                14.8709

                     79                     80                     81
                      A                      A                      A
 Frequencies --   1421.4038              1429.1107              1437.1484
 Red. masses --      1.2426                 1.2740                 1.3429
 Frc consts  --      1.4791                 1.5331                 1.6342
 IR Inten    --     12.1503                 7.5847                 5.1325

                     82                     83                     84
                      A                      A                      A
 Frequencies --   1446.2760              1447.1455              1449.9683
 Red. masses --      1.3427                 1.2884                 1.3074
 Frc consts  --      1.6547                 1.5897                 1.6195
 IR Inten    --     19.7755                 4.6462                 7.8997

                     85                     86                     87
                      A                      A                      A
 Frequencies --   1465.9353              1494.8211              1505.1052
 Red. masses --      1.2392                 1.2025                 1.1283
 Frc consts  --      1.5690                 1.5831                 1.5060
 IR Inten    --     10.8565                 7.0519                 2.1770

                     88                     89                     90
                      A                      A                      A
 Frequencies --   1505.9136              1511.2462              1514.2741
 Red. masses --      1.1007                 1.1238                 1.0646
 Frc consts  --      1.4707                 1.5122                 1.4383
 IR Inten    --      7.1841                 3.4930                 2.4021

                     91                     92                     93
                      A                      A                      A
 Frequencies --   1517.5837              1520.5951              1522.2599
 Red. masses --      1.0826                 1.0658                 1.0582
 Frc consts  --      1.4690                 1.4520                 1.4447
 IR Inten    --      3.5292                 5.1690                 8.4772

                     94                     95                     96
                      A                      A                      A
 Frequencies --   1524.7091              1538.3481              1540.0705
 Red. masses --      1.0761                 1.0601                 1.0570
 Frc consts  --      1.4739                 1.4781                 1.4771
 IR Inten    --      6.8222                 2.6976                 1.3621

                     97                     98                     99
                      A                      A                      A
 Frequencies --   1547.0196              1547.2536              1560.6121
 Red. masses --      1.0723                 1.0730                 1.0521
 Frc consts  --      1.5120                 1.5135                 1.5098
 IR Inten    --      4.1603                 2.8825                13.7545

                    100                    101                    102
                      A                      A                      A
 Frequencies --   2952.6011              2961.3195              2963.2387
 Red. masses --      1.0633                 1.0800                 1.0837
 Frc consts  --      5.4615                 5.5799                 5.6068
 IR Inten    --     82.1646                36.8792                58.2475

                    103                    104                    105
                      A                      A                      A
 Frequencies --   3002.7240              3012.0991              3017.6016
 Red. masses --      1.0764                 1.0797                 1.0712
 Frc consts  --      5.7184                 5.7713                 5.7469
 IR Inten    --      4.2596                33.0585                96.0893

                    106                    107                    108
                      A                      A                      A
 Frequencies --   3024.8938              3030.7159              3044.6826
 Red. masses --      1.0728                 1.0748                 1.0637
 Frc consts  --      5.7834                 5.8167                 5.8097
 IR Inten    --     45.9521                59.0260                91.2927

                    109                    110                    111
                      A                      A                      A
 Frequencies --   3049.2238              3054.1529              3058.4598
 Red. masses --      1.0539                 1.0551                 1.0732
 Frc consts  --      5.7735                 5.7985                 5.9147
 IR Inten    --     41.3740                 4.7294                38.5840

                    112                    113                    114
                      A                      A                      A
 Frequencies --   3060.9325              3071.8963              3081.1559
 Red. masses --      1.0880                 1.0404                 1.0842
 Frc consts  --      6.0059                 5.7845                 6.0644
 IR Inten    --     65.9032                21.3017                29.6591

                    115                    116                    117
                      A                      A                      A
 Frequencies --   3088.5614              3100.1613              3101.1029
 Red. masses --      1.0984                 1.0832                 1.1007
 Frc consts  --      6.1733                 6.1338                 6.2368
 IR Inten    --     25.4183                 8.2425                56.7465

                    118                    119                    120
                      A                      A                      A
 Frequencies --   3105.9314              3112.8485              3131.6932
 Red. masses --      1.0952                 1.0960                 1.0956
 Frc consts  --      6.2246                 6.2569                 6.3311
 IR Inten    --     58.1369                52.1005                23.3183

                    121                    122                    123
                      A                      A                      A
 Frequencies --   3133.2870              3161.9296              3175.1518
 Red. masses --      1.1022                 1.0988                 1.0969
 Frc consts  --      6.3756                 6.4727                 6.5154
 IR Inten    --     19.1983                21.5913                18.8460

                    124                    125                    126
                      A                      A                      A
 Frequencies --   3179.3745              3253.2896              3572.7033
 Red. masses --      1.0939                 1.0893                 1.0672
 Frc consts  --      6.5148                 6.7927                 8.0259
 IR Inten    --     13.7463                 0.7116               391.5761

 - Thermochemistry -
 -------------------
 Temperature   298.150 Kelvin.  Pressure   1.00000 Atm.
 Atom     1 has atomic number  6 and mass  12.00000

 Molecular mass:   241.20418 amu.
 Principal axes and moments of inertia in atomic units:
                           1         2         3
     Eigenvalues --  2455.368384968.349225424.01715
           X            0.99989   0.01327  -0.00727
           Y           -0.01333   0.99988  -0.00792
           Z            0.00716   0.00802   0.99994
 This molecule is an asymmetric top.
 Rotational symmetry number  1.
 Warning -- assumption of classical behavior for rotation
           may cause significant error
 Rotational temperatures (Kelvin)      0.03528     0.01743     0.01597
 Rotational constants (GHZ):           0.73502     0.36325     0.33273
 Zero-point vibrational energy    1066913.8 (Joules/Mol)
                                  254.99851 (Kcal/Mol)
 Warning -- explicit consideration of  27 degrees of freedom as
           vibrations may cause significant error
 Vibrational temperatures:     66.97   112.90   125.66   168.75   201.64
          (Kelvin)            230.08   242.59   267.90   290.34   307.09
                              314.33   323.55   364.67   399.42   408.78
                              425.30   477.45   499.54   530.57   545.74
                              566.80   600.35   625.51   636.78   675.93
                              803.22   846.66   902.00   950.41   981.54
                             1051.14  1071.93  1114.24  1144.10  1186.21
                             1211.08  1240.83  1271.75  1301.47  1319.77
                             1351.60  1374.62  1390.12  1425.38  1443.72
                             1464.53  1497.91  1520.58  1530.28  1541.58
                             1562.40  1586.48  1599.00  1605.20  1642.55
                             1655.49  1668.20  1671.77  1704.05  1716.25
                             1733.87  1791.87  1806.85  1825.88  1848.38
                             1863.11  1877.82  1893.83  1913.85  1942.63
                             1946.94  1968.06  1986.25  2003.49  2011.91
                             2021.62  2024.82  2037.29  2045.08  2056.17
                             2067.74  2080.87  2082.12  2086.18  2109.15
                             2150.71  2165.51  2166.67  2174.35  2178.70
                             2183.46  2187.80  2190.19  2193.72  2213.34
                             2215.82  2225.82  2226.15  2245.37  4248.13
                             4260.68  4263.44  4320.25  4333.74  4341.66
                             4352.15  4360.52  4380.62  4387.15  4394.24
                             4400.44  4404.00  4419.77  4433.10  4443.75
                             4460.44  4461.80  4468.74  4478.69  4505.81
                             4508.10  4549.31  4568.34  4574.41  4680.76
                             5140.32

 Zero-point correction=                           0.406366 (Hartree/Particle)
 Thermal correction to Energy=                    0.423862
 Thermal correction to Enthalpy=                  0.424806
 Thermal correction to Gibbs Free Energy=         0.363070
 Sum of electronic and zero-point Energies=           -754.586208
 Sum of electronic and thermal Energies=              -754.568712
 Sum of electronic and thermal Enthalpies=            -754.567768
 Sum of electronic and thermal Free Energies=         -754.629503

                     E (Thermal)             CV                S
                      KCal/Mol        Cal/Mol-Kelvin    Cal/Mol-Kelvin
 Total                  265.977             69.971            129.933
 Electronic               0.000              0.000              0.000
 Translational            0.889              2.981             42.343
 Rotational               0.889              2.981             32.559
 Vibrational            264.200             64.009             55.032
 Vibration     1          0.595              1.979              4.959
 Vibration     2          0.600              1.964              3.929
 Vibration     3          0.601              1.958              3.719
 Vibration     4          0.608              1.935              3.145
 Vibration     5          0.615              1.913              2.802
 Vibration     6          0.622              1.891              2.551
 Vibration     7          0.625              1.881              2.451
 Vibration     8          0.632              1.859              2.265
 Vibration     9          0.639              1.837              2.117
 Vibration    10          0.644              1.820              2.014
 Vibration    11          0.646              1.813              1.972
 Vibration    12          0.650              1.803              1.919
 Vibration    13          0.665              1.757              1.706
 Vibration    14          0.679              1.715              1.548
 Vibration    15          0.683              1.703              1.509
 Vibration    16          0.690              1.682              1.442
 Vibration    17          0.714              1.612              1.251
 Vibration    18          0.725              1.581              1.179
 Vibration    19          0.741              1.536              1.085
 Vibration    20          0.749              1.514              1.042
 Vibration    21          0.761              1.483              0.985
 Vibration    22          0.780              1.433              0.901
 Vibration    23          0.795              1.394              0.843
 Vibration    24          0.802              1.377              0.819
 Vibration    25          0.827              1.317              0.738
 Vibration    26          0.914              1.122              0.527
 Vibration    27          0.946              1.056              0.470

 Optimization completed.
    -- Stationary point found.
 Normal termination of Gaussian 16 at Fri Dec 11 12:52:58 2020.

 ----------------------------------------------------------------------
 # B3LYP/6-311++G(d,p) empiricaldispersion=gd3bj scf=xqc pop=npa geom=c
 heck
 ----------------------------------------------------------------------

 --------------------------------------
 CID_82748292_JID_7271_Energie_neutraal
 --------------------------------------
 Structure from the checkpoint file:  "JID_7271.chk"
 Charge =  0 Multiplicity = 1

 SCF Done:  E(RB3LYP) =  -755.207582890     A.U. after   14 cycles
 Normal termination of Gaussian 16 at Fri Dec 11 13:04:43 2020.

 ----------------------------------------------------------------------
 # B3LYP/6-311++G(d,p) empiricaldispersion=gd3bj scf=xqc pop=npa geom=c
 heck
 ----------------------------------------------------------------------

 ------------------------------------
 CID_82748292_JID_7271_Energie_kation
 ------------------------------------
 Structure from the checkpoint file:  "JID_7271.chk"
 Charge =  1 Multiplicity = 2

 SCF Done:  E(UB3LYP) =  -754.942447350     A.U. after   21 cycles
 Normal termination of Gaussian 16 at Fri Dec 11 13:30:46 2020.
 Gaussian 16:  ES64L-G16RevA.03 25-Dec-2016

 ----------------------------------------------------------------------
 # B3LYP/6-311++G(d,p) empiricaldispersion=gd3bj scf=xqc pop=npa geom=c
 heck
 ----------------------------------------------------------------------

 -----------------------------------
 CID_82748292_JID_7271_Energie_anion
 -----------------------------------
 Structure from the checkpoint file:  "JID_7271.chk"
 Charge = -1 Multiplicity = 2

                         Standard orientation:
 ---------------------------------------------------------------------
 Center     Atomic      Atomic             Coordinates (Angstroms)
 Number     Number       Type             X           Y           Z
 ---------------------------------------------------------------------
      1          6           0       -3.300620   -1.562320    0.584125
      2          6           0       -3.164416   -0.562344   -0.574113
      3          6           0       -3.005798    0.906844   -0.140659
      4          6           0       -1.623825    1.297716    0.429946
      5          6           0       -0.509376    0.839267   -0.564452
      6          6           0       -0.613890   -0.634628   -1.020424
      7          6           0       -2.028392   -0.926494   -1.545171
      8          8           0       -0.276226   -1.612684   -0.041743
      9          7           0        0.850442    1.343712   -0.295573
     10          6           0        0.912235    2.796094   -0.287636
     11          6           0        1.941504    0.709497    0.447264
     12          6           0        1.632413   -0.174265    1.697132
     13          6           0        2.413546   -1.473403    1.445771
     14          8           0        2.515884   -1.569847    0.016815
     15          6           0        2.874066   -0.233668   -0.383044
     16          6           0        2.872837   -0.090307   -1.887592
     17          6           0       -1.459541    0.932545    1.908665
     18          1           0       -3.612360   -2.540611    0.198947
     19          1           0       -4.058652   -1.226969    1.302394
     20          1           0       -2.357114   -1.712273    1.109055
     21          1           0       -4.103009   -0.615010   -1.144894
     22          1           0       -3.189912    1.531190   -1.027256
     23          1           0       -3.785909    1.170523    0.585520
     24          1           0       -1.597564    2.396050    0.401865
     25          1           0       -0.784419    1.368784   -1.492158
     26          1           0        0.067786   -0.744860   -1.873494
     27          1           0       -2.071373   -1.989188   -1.809279
     28          1           0       -2.166102   -0.356904   -2.474611
     29          1           0        0.682507   -1.780447   -0.140137
     30          1           0        0.605404    3.262358    0.666574
     31          1           0        1.930701    3.134319   -0.509211
     32          1           0        0.260631    3.197572   -1.072258
     33          1           0        2.569218    1.542169    0.773787
     34          1           0        1.926390    0.316071    2.629421
     35          1           0        0.576032   -0.405265    1.741070
     36          1           0        1.904323   -2.370782    1.804343
     37          1           0        3.425533   -1.440823    1.876348
     38          1           0        3.901581   -0.065788   -0.015949
     39          1           0        3.218588    0.912999   -2.157287
     40          1           0        3.548655   -0.824364   -2.337140
     41          1           0        1.875726   -0.218194   -2.309467
     42          1           0       -0.548558    1.375441    2.322294
     43          1           0       -2.306267    1.334661    2.478293
     44          1           0       -1.426663   -0.143600    2.082802
 ---------------------------------------------------------------------

 SCF Done:  E(UB3LYP) =  -755.195730658     A.U. after   27 cycles

 The electronic state is 2-A.
 Alpha  occ. eigenvalues --  -19.04077 -19.00819 -14.19928 -10.12403 -10.12257
 Alpha  occ. eigenvalues --  -10.11867 -10.10577 -10.09910 -10.08327 -10.07361
 Alpha  occ. eigenvalues --  -10.06959 -10.06540 -10.06481 -10.06442 -10.06266
 Alpha  occ. eigenvalues --  -10.05496 -10.05468  -0.95679  -0.91531  -0.81613
 Alpha  occ. eigenvalues --   -0.73138  -0.68234  -0.67354  -0.66481  -0.64527
 Alpha  occ. eigenvalues --   -0.58815  -0.58657  -0.58625  -0.54358  -0.51390
 Alpha  occ. eigenvalues --   -0.50102  -0.48861  -0.45708  -0.44080  -0.41060
 Alpha  occ. eigenvalues --   -0.40437  -0.40183  -0.37667  -0.36588  -0.36337
 Alpha  occ. eigenvalues --   -0.35055  -0.34102  -0.32973  -0.32830  -0.32158
 Alpha  occ. eigenvalues --   -0.31662  -0.31156  -0.29932  -0.29715  -0.29189
 Alpha  occ. eigenvalues --   -0.28404  -0.28067  -0.27551  -0.26427  -0.25823
 Alpha  occ. eigenvalues --   -0.25006  -0.24395  -0.24300  -0.23920  -0.23624
 Alpha  occ. eigenvalues --   -0.23014  -0.21677  -0.20594  -0.19622  -0.18169
 Alpha  occ. eigenvalues --   -0.16167  -0.09819   0.04128
 Alpha virt. eigenvalues --    0.05951   0.07012   0.07298   0.08243   0.08408
 Alpha virt. eigenvalues --    0.08696   0.09204   0.09702   0.10329   0.10675
 Alpha virt. eigenvalues --    0.10871   0.11184   0.11442   0.12363   0.12623

  Beta  occ. eigenvalues --  -19.04066 -19.00815 -14.19926 -10.12391 -10.12242
  Beta  occ. eigenvalues --  -10.11864 -10.10564 -10.09901 -10.08289 -10.07356
  Beta  occ. eigenvalues --  -10.06953 -10.06529 -10.06463 -10.06429 -10.06248
  Beta  occ. eigenvalues --  -10.05488 -10.05456  -0.95661  -0.91524  -0.81598
  Beta  occ. eigenvalues --   -0.73115  -0.68205  -0.67327  -0.66457  -0.64505
  Beta  occ. eigenvalues --   -0.58779  -0.58614  -0.58597  -0.54308  -0.51363
  Beta  occ. eigenvalues --   -0.50067  -0.48826  -0.45671  -0.44052  -0.41032
  Beta  occ. eigenvalues --   -0.40404  -0.40144  -0.37639  -0.36543  -0.36303
  Beta  occ. eigenvalues --   -0.35024  -0.34078  -0.32949  -0.32808  -0.32138
  Beta  occ. eigenvalues --   -0.31643  -0.31127  -0.29909  -0.29694  -0.29164
  Beta  occ. eigenvalues --   -0.28376  -0.28047  -0.27527  -0.26396  -0.25797
  Beta  occ. eigenvalues --   -0.24984  -0.24367  -0.24279  -0.23898  -0.23594
  Beta  occ. eigenvalues --   -0.22989  -0.21649  -0.20573  -0.19598  -0.18123
  Beta  occ. eigenvalues --   -0.16152  -0.09798
  Beta virt. eigenvalues --    0.06164   0.06883   0.07452   0.07742   0.08653
  Beta virt. eigenvalues --    0.08748   0.09076   0.09540   0.09928   0.10666
  Beta virt. eigenvalues --    0.10942   0.11203   0.11495   0.11675   0.12542

 Mulliken charges and spin densities:
               1          2
     1  C   -0.171493  -0.548327
     2  C   -0.058447   0.600156
     3  C    0.437308  -1.368300
     4  C    0.540221  -0.022954
     5  C   -1.790908   1.197346
     6  C    0.429428  -0.458723
     7  C   -0.049429  -0.923328
     8  O   -0.158125  -0.005895
     9  N    0.374449  -0.005681
    10  C    0.835834  -1.080478
    11  C   -1.047247   0.668802
    12  C    0.645029  -0.892542
    13  C    0.221703  -0.578835
    14  O   -0.031365  -0.012584
    15  C   -0.082837   0.122280
    16  C    0.327765  -0.970153
    17  C   -0.500059  -0.103050
    18  H    0.059261   0.060419
    19  H    0.067789   0.065546
    20  H    0.061424   0.110198
    21  H   -0.169376   0.375132
    22  H   -0.224105   0.366644
    23  H   -0.011078   0.165787
    24  H    0.202642   0.007468
    25  H    0.084101   0.130585
    26  H    0.332258  -0.145666
    27  H    0.085054   0.098185
    28  H   -0.130954   0.274976
    29  H    0.365148  -0.022267
    30  H   -0.100955   0.255433
    31  H   -0.390588   0.547688
    32  H   -0.311333   0.442103
    33  H   -0.360060   0.528540
    34  H   -0.423769   0.627415
    35  H    0.564092  -0.491115
    36  H    0.045981   0.136815
    37  H   -0.118670   0.258737
    38  H   -0.370393   0.547039
    39  H   -0.022966   0.175617
    40  H   -0.020091   0.184919
    41  H   -0.136276   0.227421
    42  H    0.025400   0.122684
    43  H   -0.164189   0.311915
    44  H    0.139825   0.020046
 Sum of Mulliken charges =  -1.00000   1.00000

 Dipole moment (field-independent basis, Debye):
    X=             -1.9868    Y=             -4.1603    Z=              0.2851  Tot=              4.6192
 Quadrupole moment (field-independent basis, Debye-Ang):
   XX=           -182.4219   YY=           -158.4146   ZZ=           -148.8108
   XY=             -5.1015   XZ=             -6.4923   YZ=             -0.4965

 Summary of Natural Population Analysis:

                                       Natural Population
                Natural  -----------------------------------------------
    Atom  No    Charge         Core      Valence    Rydberg      Total
 -----------------------------------------------------------------------
      C    1   -0.28619      0.99964     2.28177    0.00478     3.28619
      C    2   -0.11225      0.99959     2.10196    0.01070     3.11225
      C    3   -0.18432      0.99960     2.17429    0.01043     3.18432
      C    4   -0.11953      0.99956     2.10839    0.01158     3.11953
      C    5   -0.00279      0.99951     1.98793    0.01535     3.00279
      C    6    0.05967      0.99949     1.92649    0.01435     2.94033
      C    7   -0.19031      0.99959     2.18062    0.01010     3.19031
      O    8   -0.39402      0.99989     3.38764    0.00650     4.39402
      N    9   -0.29742      0.99969     2.78119    0.01654     3.79742
      C   10   -0.16905      0.99963     2.16098    0.00844     3.16905
      C   11   -0.00694      0.99954     1.99126    0.01615     3.00694
      C   12   -0.22091      0.99960     2.21299    0.00833     3.22091
      C   13   -0.01531      0.99960     2.00443    0.01128     3.01531
      O   14   -0.31122      0.99989     3.30332    0.00801     4.31122
      C   15    0.06091      0.99955     1.92455    0.01499     2.93909
      C   16   -0.29009      0.99962     2.28404    0.00643     3.29009
      C   17   -0.28791      0.99963     2.28192    0.00635     3.28791
      H   18    0.09522      0.00000     0.40400    0.00078     0.40478
      H   19    0.09350      0.00000     0.40569    0.00081     0.40650
      H   20    0.10770      0.00000     0.39104    0.00126     0.39230
      H   21    0.09373      0.00000     0.40467    0.00160     0.40627
      H   22    0.09942      0.00000     0.39917    0.00141     0.40058
      H   23    0.09745      0.00000     0.40157    0.00098     0.40255
      H   24    0.09796      0.00000     0.40020    0.00184     0.40204
      H   25    0.09835      0.00000     0.39983    0.00182     0.40165
      H   26    0.08223      0.00000     0.41583    0.00194     0.41777
      H   27    0.10172      0.00000     0.39724    0.00104     0.39828
      H   28    0.09999      0.00000     0.39900    0.00101     0.40001
      H   29    0.24168      0.00000     0.25431    0.00401     0.25832
      H   30    0.08211      0.00000     0.41641    0.00148     0.41789
      H   31    0.09568      0.00000     0.40294    0.00137     0.40432
      H   32    0.09507      0.00000     0.40366    0.00127     0.40493
      H   33    0.10397      0.00000     0.39315    0.00287     0.39603
      H   34    0.10308      0.00000     0.39567    0.00125     0.39692
      H   35    0.11833      0.00000     0.37961    0.00205     0.38167
      H   36    0.09184      0.00000     0.40726    0.00090     0.40816
      H   37    0.08245      0.00000     0.41614    0.00141     0.41755
      H   38    0.08111      0.00000     0.41695    0.00193     0.41889
      H   39    0.10663      0.00000     0.39238    0.00100     0.39337
      H   40    0.10081      0.00000     0.39828    0.00091     0.39919
      H   41    0.10071      0.00000     0.39770    0.00159     0.39929
      H   42    0.10080      0.00000     0.39803    0.00117     0.39920
      H   43    0.09701      0.00000     0.40220    0.00078     0.40299
      H   44    0.09914      0.00000     0.39974    0.00112     0.40086
 =======================================================================
   * Total *    0.00000     16.99362    49.78647    0.21991    67.00000

 Normal termination of Gaussian 16 at Fri Dec 11 14:02:13 2020.
