 Gaussian 16, Revision A.03,

 -----------------------------------------------------------
 # opt freq B3LYP/6-31G(d) empiricaldispersion=gd3bj scf=xqc
 -----------------------------------------------------------

 ------------------------------
 CID_81165529_JID_6451_neutraal
 ------------------------------
 Symbolic Z-matrix:
 Charge =  0 Multiplicity = 1

 SCF Done:  E(RB3LYP) =  -750.411339329     A.U. after   15 cycles
 SCF Done:  E(RB3LYP) =  -750.409540025     A.U. after   13 cycles
 SCF Done:  E(RB3LYP) =  -750.418359242     A.U. after   12 cycles
 SCF Done:  E(RB3LYP) =  -750.419240296     A.U. after   13 cycles
 SCF Done:  E(RB3LYP) =  -750.419544705     A.U. after   12 cycles
 SCF Done:  E(RB3LYP) =  -750.420167451     A.U. after   11 cycles
 SCF Done:  E(RB3LYP) =  -750.420246860     A.U. after   11 cycles
 SCF Done:  E(RB3LYP) =  -750.420232052     A.U. after   12 cycles
 SCF Done:  E(RB3LYP) =  -750.420478668     A.U. after   11 cycles
 SCF Done:  E(RB3LYP) =  -750.420555221     A.U. after   11 cycles
 SCF Done:  E(RB3LYP) =  -750.420652832     A.U. after    8 cycles
 SCF Done:  E(RB3LYP) =  -750.420653530     A.U. after    9 cycles
 SCF Done:  E(RB3LYP) =  -750.420653610     A.U. after    7 cycles
 SCF Done:  E(RB3LYP) =  -750.420653643     A.U. after    6 cycles
 Optimization completed.
    -- Stationary point found.
 Normal termination of Gaussian 16 at Thu Dec 10 23:06:40 2020.

 --------------------------------------------------------------------
 #N Geom=AllCheck Guess=TCheck SCRF=Check GenChk RB3LYP/6-31G(d) Freq
 --------------------------------------------------------------------

 Structure from the checkpoint file:  "JID_6451.chk"
 ------------------------------
 CID_81165529_JID_6451_neutraal
 ------------------------------
 Charge =  0 Multiplicity = 1

 SCF Done:  E(RB3LYP) =  -750.420653643     A.U. after    1 cycles

  Exact polarizability: 163.450  -3.850 126.080  -4.041  -4.241 118.816
 Approx polarizability: 205.353   0.345 176.756 -14.880 -10.228 193.687

                      1                      2                      3
                      A                      A                      A
 Frequencies --     18.9118                28.5156                53.7858
 Red. masses --      4.8170                 5.2272                 4.0013
 Frc consts  --      0.0010                 0.0025                 0.0068
 IR Inten    --      0.8044                 0.1304                 0.6253

                      4                      5                      6
                      A                      A                      A
 Frequencies --     64.7867                74.9143                97.0024
 Red. masses --      5.4146                 5.9738                 3.1637
 Frc consts  --      0.0134                 0.0198                 0.0175
 IR Inten    --      0.9647                 2.2059                 0.4515

                      7                      8                      9
                      A                      A                      A
 Frequencies --    111.3698               115.6543               152.0286
 Red. masses --      3.1795                 2.7733                 2.0529
 Frc consts  --      0.0232                 0.0219                 0.0280
 IR Inten    --      0.0765                 0.5500                 0.5087

                     10                     11                     12
                      A                      A                      A
 Frequencies --    160.5208               201.4439               234.6210
 Red. masses --      3.6171                 3.0413                 3.0758
 Frc consts  --      0.0549                 0.0727                 0.0998
 IR Inten    --      0.1382                 0.7807                 1.3895

                     13                     14                     15
                      A                      A                      A
 Frequencies --    243.9915               267.2683               284.5485
 Red. masses --      2.2974                 1.3676                 3.1380
 Frc consts  --      0.0806                 0.0576                 0.1497
 IR Inten    --      3.8221                 0.2396                 0.5508

                     16                     17                     18
                      A                      A                      A
 Frequencies --    331.9093               352.2476               370.1986
 Red. masses --      3.0729                 2.0604                 2.1332
 Frc consts  --      0.1995                 0.1506                 0.1723
 IR Inten    --      0.8378                 0.5717                 3.2471

                     19                     20                     21
                      A                      A                      A
 Frequencies --    382.5854               425.2774               462.3126
 Red. masses --      4.6239                 1.9590                 2.1869
 Frc consts  --      0.3988                 0.2088                 0.2754
 IR Inten    --      5.5907                 0.7486                 9.8263

                     22                     23                     24
                      A                      A                      A
 Frequencies --    497.8606               549.3230               573.1121
 Red. masses --      2.1540                 2.3645                 3.2047
 Frc consts  --      0.3146                 0.4204                 0.6202
 IR Inten    --      1.9110                43.3256                13.7036

                     25                     26                     27
                      A                      A                      A
 Frequencies --    617.6125               623.5625               671.5336
 Red. masses --      1.7833                 2.1685                 1.8216
 Frc consts  --      0.4008                 0.4968                 0.4840
 IR Inten    --     56.8684                37.5564                24.1296

                     28                     29                     30
                      A                      A                      A
 Frequencies --    688.5547               703.5158               757.8373
 Red. masses --      2.1070                 1.8344                 1.5479
 Frc consts  --      0.5886                 0.5349                 0.5238
 IR Inten    --     43.0592               104.9660                13.3136

                     31                     32                     33
                      A                      A                      A
 Frequencies --    776.0815               802.6948               819.3326
 Red. masses --      1.8993                 1.4647                 1.6545
 Frc consts  --      0.6740                 0.5560                 0.6544
 IR Inten    --      5.4459                 1.9386                 0.9603

                     34                     35                     36
                      A                      A                      A
 Frequencies --    835.2422               856.3855               880.4535
 Red. masses --      2.7856                 3.5692                 2.2593
 Frc consts  --      1.1450                 1.5423                 1.0319
 IR Inten    --      1.4369                 2.5355                 0.6341

                     37                     38                     39
                      A                      A                      A
 Frequencies --    905.3317               923.4542               940.8826
 Red. masses --      2.2929                 1.5831                 2.2045
 Frc consts  --      1.1072                 0.7954                 1.1498
 IR Inten    --      6.8303                 3.6823                 3.7790

                     40                     41                     42
                      A                      A                      A
 Frequencies --    956.3865               957.1961               984.6577
 Red. masses --      2.0486                 2.3671                 1.8343
 Frc consts  --      1.1040                 1.2778                 1.0478
 IR Inten    --      2.6045                 1.2678                10.9327

                     43                     44                     45
                      A                      A                      A
 Frequencies --    990.5475              1001.1576              1066.1529
 Red. masses --      2.4181                 1.7028                 1.8060
 Frc consts  --      1.3979                 1.0056                 1.2095
 IR Inten    --      0.9673                 2.1238                 5.1343

                     46                     47                     48
                      A                      A                      A
 Frequencies --   1080.6194              1085.5986              1123.9151
 Red. masses --      2.0475                 1.4706                 1.6185
 Frc consts  --      1.4087                 1.0211                 1.2046
 IR Inten    --      4.0582                14.6356                 3.0644

                     49                     50                     51
                      A                      A                      A
 Frequencies --   1135.9461              1147.9300              1167.9424
 Red. masses --      1.9526                 2.2258                 3.3235
 Frc consts  --      1.4845                 1.7281                 2.6711
 IR Inten    --      7.2771                29.2827                15.1098

                     52                     53                     54
                      A                      A                      A
 Frequencies --   1202.4080              1218.1689              1223.8587
 Red. masses --      2.2901                 1.7110                 1.3490
 Frc consts  --      1.9508                 1.4959                 1.1905
 IR Inten    --    149.5075                 6.4893                10.6269

                     55                     56                     57
                      A                      A                      A
 Frequencies --   1227.0805              1260.3629              1272.1963
 Red. masses --      1.3552                 1.3005                 1.3481
 Frc consts  --      1.2022                 1.2172                 1.2855
 IR Inten    --      0.9300                23.4115                 1.5427

                     58                     59                     60
                      A                      A                      A
 Frequencies --   1275.1713              1280.9068              1293.5069
 Red. masses --      1.2693                 1.2974                 1.4071
 Frc consts  --      1.2160                 1.2542                 1.3871
 IR Inten    --      1.5234                 9.4336                 0.4500

                     61                     62                     63
                      A                      A                      A
 Frequencies --   1315.4689              1323.0957              1332.1001
 Red. masses --      1.7455                 1.5112                 1.1909
 Frc consts  --      1.7796                 1.5587                 1.2451
 IR Inten    --     78.5825                46.5498                 6.0544

                     64                     65                     66
                      A                      A                      A
 Frequencies --   1342.1899              1370.6483              1384.0676
 Red. masses --      1.6517                 1.6557                 1.8755
 Frc consts  --      1.7531                 1.8327                 2.1168
 IR Inten    --     14.7787                24.9069                14.4986

                     67                     68                     69
                      A                      A                      A
 Frequencies --   1391.1265              1403.7642              1405.0643
 Red. masses --      1.6122                 1.3864                 1.4556
 Frc consts  --      1.8383                 1.6097                 1.6932
 IR Inten    --     25.0118                 0.6970                 0.4950

                     70                     71                     72
                      A                      A                      A
 Frequencies --   1433.5935              1439.4275              1486.3549
 Red. masses --      1.7177                 1.2947                 1.0822
 Frc consts  --      2.0800                 1.5805                 1.4087
 IR Inten    --     78.3980                 7.7780                11.1782

                     73                     74                     75
                      A                      A                      A
 Frequencies --   1498.6676              1505.7528              1509.8012
 Red. masses --      1.6235                 1.1637                 1.0988
 Frc consts  --      2.1484                 1.5545                 1.4757
 IR Inten    --     56.3795                13.2635                 2.4086

                     76                     77                     78
                      A                      A                      A
 Frequencies --   1516.3084              1516.5271              1522.6128
 Red. masses --      1.1241                 1.0863                 1.0543
 Frc consts  --      1.5228                 1.4720                 1.4401
 IR Inten    --     25.2577                 3.7486                 0.6252

                     79                     80                     81
                      A                      A                      A
 Frequencies --   1534.4989              1537.7156              1544.9229
 Red. masses --      1.0751                 1.1038                 1.0886
 Frc consts  --      1.4915                 1.5378                 1.5309
 IR Inten    --     18.8700                 4.2386                 2.4245

                     82                     83                     84
                      A                      A                      A
 Frequencies --   1546.2388              1779.7062              1845.4083
 Red. masses --      1.0637                 7.7196                 9.4755
 Frc consts  --      1.4983                14.4060                19.0124
 IR Inten    --      8.5349               325.8700               283.5279

                     85                     86                     87
                      A                      A                      A
 Frequencies --   3003.2413              3040.6393              3042.5828
 Red. masses --      1.0742                 1.0456                 1.0598
 Frc consts  --      5.7083                 5.6955                 5.7804
 IR Inten    --     53.4506                20.5841                24.9743

                     88                     89                     90
                      A                      A                      A
 Frequencies --   3049.4328              3050.3447              3057.8923
 Red. masses --      1.0625                 1.0692                 1.0700
 Frc consts  --      5.8215                 5.8615                 5.8949
 IR Inten    --     30.4865                 7.2302                21.6044

                     91                     92                     93
                      A                      A                      A
 Frequencies --   3061.6945              3074.9504              3079.4653
 Red. masses --      1.0579                 1.0648                 1.0624
 Frc consts  --      5.8428                 5.9322                 5.9360
 IR Inten    --     34.4789                21.2617                40.1183

                     94                     95                     96
                      A                      A                      A
 Frequencies --   3082.4107              3104.5668              3108.2961
 Red. masses --      1.0983                 1.0990                 1.1072
 Frc consts  --      6.1484                 6.2412                 6.3026
 IR Inten    --      1.4603                59.1982                19.3184

                     97                     98                     99
                      A                      A                      A
 Frequencies --   3110.5070              3117.9152              3123.3873
 Red. masses --      1.0975                 1.1007                 1.0941
 Frc consts  --      6.2561                 6.3046                 6.2885
 IR Inten    --     32.4681                34.5349                32.9720

                    100                    101                    102
                      A                      A                      A
 Frequencies --   3128.6652              3129.8847              3144.2372
 Red. masses --      1.1060                 1.0926                 1.0919
 Frc consts  --      6.3788                 6.3061                 6.3603
 IR Inten    --     31.4648                 8.8585                11.3394

                    103                    104                    105
                      A                      A                      A
 Frequencies --   3144.7934              3572.4356              3679.8182
 Red. masses --      1.0985                 1.0749                 1.0639
 Frc consts  --      6.4007                 8.0823                 8.4883
 IR Inten    --     42.2769                12.2084                50.0437

 - Thermochemistry -
 -------------------
 Temperature   298.150 Kelvin.  Pressure   1.00000 Atm.
 Atom     1 has atomic number  6 and mass  12.00000

 Molecular mass:   227.15214 amu.
 Principal axes and moments of inertia in atomic units:
                           1         2         3
     Eigenvalues --  2397.341514996.139466304.12721
           X            0.99957  -0.02805   0.00861
           Y            0.02808   0.99960  -0.00379
           Z           -0.00850   0.00403   0.99996
 This molecule is an asymmetric top.
 Rotational symmetry number  1.
 Warning -- assumption of classical behavior for rotation
           may cause significant error
 Rotational temperatures (Kelvin)      0.03613     0.01734     0.01374
 Rotational constants (GHZ):           0.75281     0.36123     0.28628
 Zero-point vibrational energy     856529.8 (Joules/Mol)
                                  204.71553 (Kcal/Mol)
 Warning -- explicit consideration of  25 degrees of freedom as
           vibrations may cause significant error
 Vibrational temperatures:     27.21    41.03    77.39    93.21   107.79
          (Kelvin)            139.56   160.24   166.40   218.74   230.95
                              289.83   337.57   351.05   384.54   409.40
                              477.54   506.81   532.63   550.46   611.88
                              665.16   716.31   790.35   824.58   888.61
                              897.17   966.19   990.68  1012.20  1090.36
                             1116.61  1154.90  1178.84  1201.73  1232.15
                             1266.78  1302.57  1328.64  1353.72  1376.03
                             1377.19  1416.70  1425.18  1440.44  1533.96
                             1554.77  1561.93  1617.06  1634.37  1651.62
                             1680.41  1730.00  1752.67  1760.86  1765.50
                             1813.38  1830.41  1834.69  1842.94  1861.07
                             1892.67  1903.64  1916.59  1931.11  1972.06
                             1991.36  2001.52  2019.70  2021.57  2062.62
                             2071.02  2138.53  2156.25  2166.44  2172.27
                             2181.63  2181.94  2190.70  2207.80  2212.43
                             2222.80  2224.69  2560.60  2655.13  4320.99
                             4374.80  4377.60  4387.45  4388.77  4399.62
                             4405.10  4424.17  4430.66  4434.90  4466.78
                             4472.14  4475.33  4485.98  4493.86  4501.45
                             4503.21  4523.86  4524.66  5139.94  5294.44

 Zero-point correction=                           0.326235 (Hartree/Particle)
 Thermal correction to Energy=                    0.343643
 Thermal correction to Enthalpy=                  0.344587
 Thermal correction to Gibbs Free Energy=         0.279264
 Sum of electronic and zero-point Energies=           -750.094419
 Sum of electronic and thermal Energies=              -750.077011
 Sum of electronic and thermal Enthalpies=            -750.076067
 Sum of electronic and thermal Free Energies=         -750.141389

                     E (Thermal)             CV                S
                      KCal/Mol        Cal/Mol-Kelvin    Cal/Mol-Kelvin
 Total                  215.639             64.621            137.483
 Electronic               0.000              0.000              0.000
 Translational            0.889              2.981             42.164
 Rotational               0.889              2.981             32.690
 Vibrational            213.862             58.659             62.629
 Vibration     1          0.593              1.986              6.745
 Vibration     2          0.593              1.984              5.930
 Vibration     3          0.596              1.976              4.673
 Vibration     4          0.597              1.971              4.306
 Vibration     5          0.599              1.966              4.020
 Vibration     6          0.603              1.951              3.514
 Vibration     7          0.607              1.940              3.245
 Vibration     8          0.608              1.936              3.172
 Vibration     9          0.619              1.900              2.647
 Vibration    10          0.622              1.891              2.544
 Vibration    11          0.638              1.838              2.120
 Vibration    12          0.654              1.788              1.843
 Vibration    13          0.659              1.773              1.774
 Vibration    14          0.672              1.733              1.614
 Vibration    15          0.683              1.702              1.506
 Vibration    16          0.714              1.612              1.251
 Vibration    17          0.729              1.571              1.156
 Vibration    18          0.742              1.533              1.079
 Vibration    19          0.752              1.507              1.029
 Vibration    20          0.787              1.415              0.874
 Vibration    21          0.820              1.334              0.759
 Vibration    22          0.853              1.255              0.663
 Vibration    23          0.905              1.141              0.546
 Vibration    24          0.929              1.089              0.498
 Vibration    25          0.977              0.995              0.420

                           ! Non-Optimized Parameters !
 Normal termination of Gaussian 16 at Thu Dec 10 23:19:54 2020.

 ----------------------------------------------------------------------
 # B3LYP/6-311++G(d,p) empiricaldispersion=gd3bj scf=xqc pop=npa geom=c
 heck
 ----------------------------------------------------------------------

 --------------------------------------
 CID_81165529_JID_6451_Energie_neutraal
 --------------------------------------
 Structure from the checkpoint file:  "JID_6451.chk"
 Charge =  0 Multiplicity = 1

 SCF Done:  E(RB3LYP) =  -750.646593654     A.U. after   14 cycles
 Normal termination of Gaussian 16 at Thu Dec 10 23:25:31 2020.

 ----------------------------------------------------------------------
 # B3LYP/6-311++G(d,p) empiricaldispersion=gd3bj scf=xqc pop=npa geom=c
 heck
 ----------------------------------------------------------------------

 ------------------------------------
 CID_81165529_JID_6451_Energie_kation
 ------------------------------------
 Structure from the checkpoint file:  "JID_6451.chk"
 Charge =  1 Multiplicity = 2

 SCF Done:  E(UB3LYP) =  -750.318347795     A.U. after   33 cycles
 SCF Done:  E(UB3LYP) =  -750.318347795     a.u. after    1 cycles
 Normal termination of Gaussian 16 at Thu Dec 10 23:43:50 2020.
 Gaussian 16:  ES64L-G16RevA.03 25-Dec-2016

 ----------------------------------------------------------------------
 # B3LYP/6-311++G(d,p) empiricaldispersion=gd3bj scf=xqc pop=npa geom=c
 heck
 ----------------------------------------------------------------------

 -----------------------------------
 CID_81165529_JID_6451_Energie_anion
 -----------------------------------
 Structure from the checkpoint file:  "JID_6451.chk"
 Charge = -1 Multiplicity = 2

                         Standard orientation:
 ---------------------------------------------------------------------
 Center     Atomic      Atomic             Coordinates (Angstroms)
 Number     Number       Type             X           Y           Z
 ---------------------------------------------------------------------
      1          6           0       -2.860619    1.887931   -0.675156
      2          6           0       -3.279355    0.758636    0.271467
      3          6           0       -3.520769   -0.583719   -0.433456
      4          6           0       -2.233688   -1.243742   -0.948969
      5          6           0       -1.400137   -1.795156    0.203727
      6          8           0       -1.923285   -2.425708    1.115836
      7          7           0       -0.042241   -1.595023    0.197658
      8          6           0        0.814804   -0.938427   -0.774975
      9          6           0        2.014691   -0.269781   -0.101155
     10          6           0        3.132445   -1.235075    0.416692
     11          6           0        4.196188   -0.340324   -0.269935
     12          6           0        3.063049    0.331729   -1.086336
     13          6           0        1.592889    0.699412    1.015353
     14          6           0        0.556283    1.745718    0.668392
     15          8           0       -0.292531    2.154944    1.427589
     16          8           0        0.682302    2.226526   -0.598205
     17          1           0       -1.943303    1.637380   -1.221828
     18          1           0       -2.672341    2.811068   -0.116953
     19          1           0       -3.639687    2.089584   -1.420717
     20          1           0       -2.518230    0.634795    1.051383
     21          1           0       -4.200061    1.055809    0.789214
     22          1           0       -3.995451   -1.284663    0.259670
     23          1           0       -4.209741   -0.437698   -1.275958
     24          1           0       -2.489343   -2.107824   -1.576331
     25          1           0       -1.669774   -0.557884   -1.585364
     26          1           0        0.418408   -2.094131    0.950825
     27          1           0        1.188962   -1.652494   -1.524759
     28          1           0        0.241462   -0.180502   -1.310971
     29          1           0        3.209943   -1.368480    1.501006
     30          1           0        3.059483   -2.222992   -0.050986
     31          1           0        4.981158   -0.850373   -0.834705
     32          1           0        4.673923    0.350776    0.431240
     33          1           0        2.962840   -0.102757   -2.086792
     34          1           0        3.073373    1.419380   -1.182825
     35          1           0        1.188108    0.153667    1.870983
     36          1           0        2.479961    1.237724    1.376584
     37          1           0       -0.030573    2.885464   -0.701983
 ---------------------------------------------------------------------

 SCF Done:  E(UB3LYP) =  -750.637796129     A.U. after   33 cycles
 SCF Done:  E(UB3LYP) =  -750.637796128     a.u. after    1 cycles

 The electronic state is 2-A.
 Alpha  occ. eigenvalues --  -19.07557 -19.02043 -18.99204 -14.24426 -10.21131
 Alpha  occ. eigenvalues --  -10.18028 -10.11500 -10.10073 -10.09194 -10.08659
 Alpha  occ. eigenvalues --  -10.07661 -10.07659 -10.07210 -10.07122 -10.07038
 Alpha  occ. eigenvalues --  -10.06525  -1.01582  -0.94464  -0.92648  -0.83267
 Alpha  occ. eigenvalues --   -0.76526  -0.71256  -0.67146  -0.64866  -0.62643
 Alpha  occ. eigenvalues --   -0.57448  -0.56869  -0.53892  -0.51211  -0.50331
 Alpha  occ. eigenvalues --   -0.46146  -0.44744  -0.41713  -0.40730  -0.40372
 Alpha  occ. eigenvalues --   -0.39651  -0.38266  -0.37811  -0.36447  -0.35936
 Alpha  occ. eigenvalues --   -0.34815  -0.33428  -0.32725  -0.32316  -0.31019
 Alpha  occ. eigenvalues --   -0.30472  -0.29756  -0.29038  -0.28529  -0.28483
 Alpha  occ. eigenvalues --   -0.26753  -0.25312  -0.24293  -0.23855  -0.23693
 Alpha  occ. eigenvalues --   -0.23021  -0.22855  -0.21823  -0.21323  -0.18538
 Alpha  occ. eigenvalues --   -0.16545  -0.16153   0.04029
 Alpha virt. eigenvalues --    0.06111   0.06608   0.07376   0.08016   0.08112
 Alpha virt. eigenvalues --    0.08769   0.09180   0.09428   0.10192   0.10731
 Alpha virt. eigenvalues --    0.10996   0.11264   0.11346   0.12071   0.12186

  Beta  occ. eigenvalues --  -19.07517 -19.02023 -18.99202 -14.24421 -10.21092
  Beta  occ. eigenvalues --  -10.18028 -10.11476 -10.10075 -10.09168 -10.08647
  Beta  occ. eigenvalues --  -10.07655 -10.07636 -10.07179 -10.07118 -10.07015
  Beta  occ. eigenvalues --  -10.06499  -1.01507  -0.94461  -0.92591  -0.83255
  Beta  occ. eigenvalues --   -0.76504  -0.71242  -0.67085  -0.64840  -0.62595
  Beta  occ. eigenvalues --   -0.57395  -0.56824  -0.53812  -0.51130  -0.50295
  Beta  occ. eigenvalues --   -0.46121  -0.44664  -0.41679  -0.40708  -0.40303
  Beta  occ. eigenvalues --   -0.39600  -0.38217  -0.37781  -0.36410  -0.35866
  Beta  occ. eigenvalues --   -0.34779  -0.33403  -0.32705  -0.32288  -0.30982
  Beta  occ. eigenvalues --   -0.30432  -0.29728  -0.29009  -0.28504  -0.28444
  Beta  occ. eigenvalues --   -0.26724  -0.25275  -0.24270  -0.23824  -0.23678
  Beta  occ. eigenvalues --   -0.22983  -0.22796  -0.21787  -0.21286  -0.18494
  Beta  occ. eigenvalues --   -0.16536  -0.16139
  Beta virt. eigenvalues --    0.06267   0.06815   0.07531   0.07967   0.08381
  Beta virt. eigenvalues --    0.08399   0.09105   0.09446   0.09821   0.10458
  Beta virt. eigenvalues --    0.11008   0.11218   0.11466   0.11529   0.12264

 Mulliken charges and spin densities:
               1          2
     1  C    0.067498  -0.633234
     2  C   -0.367260   0.291966
     3  C   -0.077587  -0.361656
     4  C    0.523984  -0.343030
     5  C   -0.540143   0.195829
     6  O   -0.307805   0.002893
     7  N   -0.155876   0.038837
     8  C    0.900296  -1.532347
     9  C   -1.260141   2.108973
    10  C    0.172082  -0.421069
    11  C    0.589973  -1.015525
    12  C    0.511019  -0.928152
    13  C    0.642770  -1.204648
    14  C   -0.411574   0.073716
    15  O   -0.239141   0.069090
    16  O   -0.100636   0.017138
    17  H    0.061995   0.027428
    18  H   -0.024189   0.166801
    19  H   -0.203116   0.323976
    20  H    0.140519   0.031582
    21  H    0.118373   0.045419
    22  H    0.174323   0.011286
    23  H    0.091342   0.044369
    24  H   -0.011798   0.217293
    25  H    0.062682   0.105553
    26  H    0.182478   0.133042
    27  H   -0.461680   0.670228
    28  H    0.179256  -0.078604
    29  H   -0.076867   0.235891
    30  H   -0.181329   0.334655
    31  H   -0.312609   0.480951
    32  H   -0.113720   0.244161
    33  H   -0.314023   0.456556
    34  H    0.046245   0.130925
    35  H    0.287461  -0.069722
    36  H   -0.324592   0.546654
    37  H   -0.268210   0.582777
 Sum of Mulliken charges =  -1.00000   1.00000

 Dipole moment (field-independent basis, Debye):
    X=             -3.5475    Y=             -0.6326    Z=              0.5452  Tot=              3.6445
 Quadrupole moment (field-independent basis, Debye-Ang):
   XX=           -167.2639   YY=           -153.6881   ZZ=           -137.9209
   XY=              1.1171   XZ=              7.3750   YZ=              0.3903

 Summary of Natural Population Analysis:

                                       Natural Population
                Natural  -----------------------------------------------
    Atom  No    Charge         Core      Valence    Rydberg      Total
 -----------------------------------------------------------------------
      C    1   -0.28837      0.99967     2.28288    0.00582     3.28837
      C    2   -0.19467      0.99964     2.18733    0.00770     3.19467
      C    3   -0.18940      0.99963     2.18051    0.00926     3.18940
      C    4   -0.23403      0.99958     2.22681    0.00764     3.23403
      C    5    0.34618      0.99967     1.63093    0.02321     2.65382
      O    6   -0.33039      0.99988     3.32523    0.00528     4.33039
      N    7   -0.31778      0.99967     2.80862    0.00950     3.81778
      C    8   -0.08643      0.99953     2.07583    0.01107     3.08643
      C    9   -0.04148      0.99956     2.02626    0.01565     3.04148
      C   10   -0.18670      0.99960     2.17818    0.00892     3.18670
      C   11   -0.19046      0.99965     2.18252    0.00829     3.19046
      C   12   -0.18201      0.99959     2.17359    0.00883     3.18201
      C   13   -0.24134      0.99952     2.23090    0.01091     3.24134
      C   14    0.41431      0.99971     1.56089    0.02509     2.58569
      O   15   -0.30477      0.99987     3.29902    0.00588     4.30477
      O   16   -0.34935      0.99988     3.34243    0.00705     4.34935
      H   17    0.09274      0.00000     0.40582    0.00144     0.40726
      H   18    0.10403      0.00000     0.39506    0.00091     0.39597
      H   19    0.09278      0.00000     0.40625    0.00098     0.40722
      H   20    0.10458      0.00000     0.39419    0.00122     0.39542
      H   21    0.09309      0.00000     0.40605    0.00086     0.40691
      H   22    0.10753      0.00000     0.39141    0.00106     0.39247
      H   23    0.09262      0.00000     0.40650    0.00088     0.40738
      H   24    0.11155      0.00000     0.38749    0.00096     0.38845
      H   25    0.10177      0.00000     0.39672    0.00151     0.39823
      H   26    0.19280      0.00000     0.30486    0.00234     0.30720
      H   27    0.09535      0.00000     0.40270    0.00196     0.40465
      H   28    0.10501      0.00000     0.39255    0.00244     0.39499
      H   29    0.09777      0.00000     0.40108    0.00115     0.40223
      H   30    0.10107      0.00000     0.39742    0.00151     0.39893
      H   31    0.09876      0.00000     0.39978    0.00145     0.40124
      H   32    0.09715      0.00000     0.40119    0.00166     0.40285
      H   33    0.10031      0.00000     0.39805    0.00163     0.39969
      H   34    0.10602      0.00000     0.39217    0.00181     0.39398
      H   35    0.11460      0.00000     0.38422    0.00118     0.38540
      H   36    0.12153      0.00000     0.37675    0.00172     0.37847
      H   37    0.24563      0.00000     0.24843    0.00593     0.25437
 =======================================================================
   * Total *    0.00000     15.99464    45.80067    0.20469    62.00000

 Normal termination of Gaussian 16 at Fri Dec 11 00:01:48 2020.
