 Gaussian 16, Revision A.03,

 -----------------------------------------------------------
 # opt freq B3LYP/6-31G(d) empiricaldispersion=gd3bj scf=xqc
 -----------------------------------------------------------

 -------------------------------
 CID_106086842_JID_9525_neutraal
 -------------------------------
 Symbolic Z-matrix:
 Charge =  0 Multiplicity = 1

 SCF Done:  E(RB3LYP) =  -1250.56433221     A.U. after   15 cycles
 SCF Done:  E(RB3LYP) =  -1250.57596006     A.U. after   13 cycles
 SCF Done:  E(RB3LYP) =  -1250.57002127     A.U. after   15 cycles
 SCF Done:  E(RB3LYP) =  -1250.57534322     A.U. after   13 cycles
 SCF Done:  E(RB3LYP) =  -1250.57747082     A.U. after   10 cycles
 SCF Done:  E(RB3LYP) =  -1250.57934755     A.U. after   13 cycles
 SCF Done:  E(RB3LYP) =  -1250.57998577     A.U. after   12 cycles
 SCF Done:  E(RB3LYP) =  -1250.58040681     A.U. after   12 cycles
 SCF Done:  E(RB3LYP) =  -1250.58093108     A.U. after   12 cycles
 SCF Done:  E(RB3LYP) =  -1250.58142570     A.U. after   12 cycles
 SCF Done:  E(RB3LYP) =  -1250.58425998     A.U. after    9 cycles
 SCF Done:  E(RB3LYP) =  -1250.58426150     A.U. after    8 cycles
 SCF Done:  E(RB3LYP) =  -1250.58426225     A.U. after    8 cycles
 SCF Done:  E(RB3LYP) =  -1250.58426233     A.U. after    7 cycles
 SCF Done:  E(RB3LYP) =  -1250.58426236     A.U. after    6 cycles
 Optimization completed.
    -- Stationary point found.
 Normal termination of Gaussian 16 at Sat Dec 12 09:59:48 2020.

 --------------------------------------------------------------------
 #N Geom=AllCheck Guess=TCheck SCRF=Check GenChk RB3LYP/6-31G(d) Freq
 --------------------------------------------------------------------

 Structure from the checkpoint file:  "JID_9525.chk"
 -------------------------------
 CID_106086842_JID_9525_neutraal
 -------------------------------
 Charge =  0 Multiplicity = 1

 SCF Done:  E(RB3LYP) =  -1250.58426236     A.U. after    1 cycles

  Exact polarizability: 187.677  -3.307 184.938   9.463  20.417 120.156
 Approx polarizability: 265.423  -4.569 288.006  12.305  48.659 210.063

                      1                      2                      3
                      A                      A                      A
 Frequencies --     28.2477                43.2720                50.4333
 Red. masses --      4.9656                 4.8431                 4.1434
 Frc consts  --      0.0023                 0.0053                 0.0062
 IR Inten    --      0.9551                 0.5829                 0.4230

                      4                      5                      6
                      A                      A                      A
 Frequencies --     72.7659                87.9720               101.2809
 Red. masses --      4.7100                 5.4858                 4.6967
 Frc consts  --      0.0147                 0.0250                 0.0284
 IR Inten    --      2.9267                 0.6119                 0.8044

                      7                      8                      9
                      A                      A                      A
 Frequencies --    121.9042               138.4792               174.8213
 Red. masses --      5.3712                 4.9929                 2.2852
 Frc consts  --      0.0470                 0.0564                 0.0411
 IR Inten    --      0.9155                 1.1178                10.1660

                     10                     11                     12
                      A                      A                      A
 Frequencies --    183.2454               202.3739               231.5713
 Red. masses --      1.2544                 2.7657                 5.0924
 Frc consts  --      0.0248                 0.0667                 0.1609
 IR Inten    --      1.0919                 1.1011                 8.9587

                     13                     14                     15
                      A                      A                      A
 Frequencies --    252.3129               283.0031               303.7012
 Red. masses --      5.1234                 6.6378                 1.7210
 Frc consts  --      0.1922                 0.3132                 0.0935
 IR Inten    --     10.8508                 0.0389                40.2054

                     16                     17                     18
                      A                      A                      A
 Frequencies --    317.7340               319.1664               354.9093
 Red. masses --      2.5074                 4.4679                 6.4149
 Frc consts  --      0.1491                 0.2682                 0.4761
 IR Inten    --     22.0743                 8.9336                 4.4495

                     19                     20                     21
                      A                      A                      A
 Frequencies --    366.2758               394.3831               436.0426
 Red. masses --      3.7436                 2.9586                 1.2659
 Frc consts  --      0.2959                 0.2711                 0.1418
 IR Inten    --      2.7602                18.4166                49.9717

                     22                     23                     24
                      A                      A                      A
 Frequencies --    447.5895               459.4731               497.6168
 Red. masses --      3.6364                 2.9624                 3.1022
 Frc consts  --      0.4292                 0.3685                 0.4526
 IR Inten    --      0.6503                 4.9854                24.4270

                     25                     26                     27
                      A                      A                      A
 Frequencies --    537.3108               559.9549               587.4647
 Red. masses --      7.8298                 5.5737                 7.7610
 Frc consts  --      1.3318                 1.0297                 1.5781
 IR Inten    --     48.0024                 8.3834                91.9288

                     28                     29                     30
                      A                      A                      A
 Frequencies --    621.2297               639.5010               657.8698
 Red. masses --      3.8736                 3.9554                 5.4717
 Frc consts  --      0.8808                 0.9531                 1.3952
 IR Inten    --     22.4736                11.1300                71.9175

                     31                     32                     33
                      A                      A                      A
 Frequencies --    679.8133               697.8253               744.7176
 Red. masses --      6.4768                 3.2890                 2.8722
 Frc consts  --      1.7636                 0.9436                 0.9385
 IR Inten    --      7.3497                29.3847                 9.3097

                     34                     35                     36
                      A                      A                      A
 Frequencies --    761.0898               793.9878               823.2357
 Red. masses --      3.0549                 1.9187                 1.3707
 Frc consts  --      1.0426                 0.7127                 0.5473
 IR Inten    --     16.4621                37.8195                 7.6934

                     37                     38                     39
                      A                      A                      A
 Frequencies --    840.9584               874.3256               881.0190
 Red. masses --      4.8182                 1.3516                 1.4527
 Frc consts  --      2.0076                 0.6087                 0.6643
 IR Inten    --    217.4149                 1.4815                28.4045

                     40                     41                     42
                      A                      A                      A
 Frequencies --    885.3156               902.6387               918.2015
 Red. masses --      1.6668                 1.3476                 2.0252
 Frc consts  --      0.7697                 0.6469                 1.0060
 IR Inten    --     69.8878                54.5513                23.5917

                     43                     44                     45
                      A                      A                      A
 Frequencies --    980.7619               988.3523              1000.7594
 Red. masses --      2.2688                 1.2879                 3.2843
 Frc consts  --      1.2858                 0.7412                 1.9380
 IR Inten    --     22.9183                 0.1606                28.7573

                     46                     47                     48
                      A                      A                      A
 Frequencies --   1012.3654              1016.1977              1072.7757
 Red. masses --      6.6105                 7.1901                 2.0414
 Frc consts  --      3.9917                 4.3746                 1.3842
 IR Inten    --     13.3191                13.6835                12.2956

                     49                     50                     51
                      A                      A                      A
 Frequencies --   1081.2279              1089.1389              1113.2250
 Red. masses --      2.4021                 1.5386                 2.0534
 Frc consts  --      1.6545                 1.0753                 1.4993
 IR Inten    --     15.3011                 4.3421                42.1927

                     52                     53                     54
                      A                      A                      A
 Frequencies --   1117.4653              1127.2767              1154.3159
 Red. masses --      2.9798                 1.5136                 2.4496
 Frc consts  --      2.1923                 1.1332                 1.9230
 IR Inten    --     95.2290                 7.4894               159.7065

                     55                     56                     57
                      A                      A                      A
 Frequencies --   1189.8349              1196.0590              1204.7628
 Red. masses --      1.3167                 1.2100                 1.4451
 Frc consts  --      1.0982                 1.0199                 1.2358
 IR Inten    --     19.2912                 6.6285                11.7401

                     58                     59                     60
                      A                      A                      A
 Frequencies --   1228.1242              1245.1619              1293.1331
 Red. masses --      1.7684                 1.7698                 2.6419
 Frc consts  --      1.5715                 1.6167                 2.6028
 IR Inten    --      0.3426                42.3609                10.3998

                     61                     62                     63
                      A                      A                      A
 Frequencies --   1337.9999              1341.1439              1348.6896
 Red. masses --      9.1381                 1.9747                 5.0682
 Frc consts  --      9.6387                 2.0926                 5.4316
 IR Inten    --     67.5997                 9.2776                46.7427

                     64                     65                     66
                      A                      A                      A
 Frequencies --   1362.8790              1388.0167              1404.2191
 Red. masses --      1.3339                 3.1781                 1.6130
 Frc consts  --      1.4598                 3.6075                 1.8739
 IR Inten    --      7.0956                12.1333                 7.6484

                     67                     68                     69
                      A                      A                      A
 Frequencies --   1421.7092              1437.8269              1443.1815
 Red. masses --      2.3829                 1.5387                 3.0063
 Frc consts  --      2.8378                 1.8742                 3.6892
 IR Inten    --     87.2013                29.0034                39.7116

                     70                     71                     72
                      A                      A                      A
 Frequencies --   1450.6992              1488.2104              1495.5994
 Red. masses --      1.4044                 2.2067                 1.8699
 Frc consts  --      1.7414                 2.8795                 2.4644
 IR Inten    --     24.4229                25.6983                21.1366

                     73                     74                     75
                      A                      A                      A
 Frequencies --   1501.8064              1508.7881              1514.9967
 Red. masses --      1.6902                 2.4428                 1.1241
 Frc consts  --      2.2461                 3.2764                 1.5201
 IR Inten    --      8.9405               185.2725                 5.2410

                     76                     77                     78
                      A                      A                      A
 Frequencies --   1531.3586              1538.9426              1568.2591
 Red. masses --      1.1149                 1.1404                 4.5334
 Frc consts  --      1.5404                 1.5913                 6.5692
 IR Inten    --      3.1006                40.7696                72.0355

                     79                     80                     81
                      A                      A                      A
 Frequencies --   1643.4217              1651.2851              1704.2851
 Red. masses --      6.5020                 5.2356                 1.0872
 Frc consts  --     10.3466                 8.4113                 1.8605
 IR Inten    --     96.2728               133.7240                25.8152

                     82                     83                     84
                      A                      A                      A
 Frequencies --   3004.3884              3043.1517              3087.1400
 Red. masses --      1.0699                 1.0373                 1.0879
 Frc consts  --      5.6897                 5.6600                 6.1090
 IR Inten    --     49.5685                17.9304                18.0914

                     85                     86                     87
                      A                      A                      A
 Frequencies --   3103.4739              3105.3006              3135.1013
 Red. masses --      1.0641                 1.1013                 1.1017
 Frc consts  --      6.0382                 6.2570                 6.3802
 IR Inten    --     42.1000                 7.3689                18.4708

                     88                     89                     90
                      A                      A                      A
 Frequencies --   3158.3014              3192.4097              3206.9988
 Red. masses --      1.1088                 1.0870                 1.0929
 Frc consts  --      6.5162                 6.5269                 6.6223
 IR Inten    --      8.7826                 5.9969                15.9240

                     91                     92                     93
                      A                      A                      A
 Frequencies --   3218.8848              3283.4470              3328.8482
 Red. masses --      1.0961                 1.0972                 1.0990
 Frc consts  --      6.6914                 6.9692                 7.1753
 IR Inten    --     13.5687                 0.7680                 6.4038

                     94                     95                     96
                      A                      A                      A
 Frequencies --   3477.8396              3560.2778              3589.5888
 Red. masses --      1.0508                 1.0922                 1.0767
 Frc consts  --      7.4882                 8.1570                 8.1740
 IR Inten    --      1.0981                 1.6151                55.8779

 - Thermochemistry -
 -------------------
 Temperature   298.150 Kelvin.  Pressure   1.00000 Atm.
 Atom     1 has atomic number  6 and mass  12.00000

 Molecular mass:   281.09465 amu.
 Principal axes and moments of inertia in atomic units:
                           1         2         3
     Eigenvalues --  4276.946785546.056198522.10151
           X            0.99951   0.03115   0.00236
           Y           -0.03118   0.99940   0.01497
           Z           -0.00189  -0.01504   0.99989
 This molecule is an asymmetric top.
 Rotational symmetry number  1.
 Warning -- assumption of classical behavior for rotation
           may cause significant error
 Rotational temperatures (Kelvin)      0.02025     0.01562     0.01016
 Rotational constants (GHZ):           0.42197     0.32541     0.21177
 Zero-point vibrational energy     711565.4 (Joules/Mol)
                                  170.06821 (Kcal/Mol)
 Warning -- explicit consideration of  27 degrees of freedom as
           vibrations may cause significant error
 Vibrational temperatures:     40.64    62.26    72.56   104.69   126.57
          (Kelvin)            145.72   175.39   199.24   251.53   263.65
                              291.17   333.18   363.02   407.18   436.96
                              457.15   459.21   510.64   526.99   567.43
                              627.37   643.98   661.08   715.96   773.07
                              805.65   845.23   893.81   920.10   946.53
                              978.10  1004.02  1071.48  1095.04  1142.37
                             1184.45  1209.95  1257.96  1267.59  1273.77
                             1298.70  1321.09  1411.10  1422.02  1439.87
                             1456.57  1462.08  1543.48  1555.65  1567.03
                             1601.68  1607.78  1621.90  1660.80  1711.91
                             1720.86  1733.38  1767.00  1791.51  1860.53
                             1925.08  1929.61  1940.46  1960.88  1997.05
                             2020.36  2045.52  2068.71  2076.42  2087.23
                             2141.20  2151.83  2160.76  2170.81  2179.74
                             2203.28  2214.20  2256.38  2364.52  2375.83
                             2452.09  4322.64  4378.42  4441.71  4465.21
                             4467.83  4510.71  4544.09  4593.17  4614.16
                             4631.26  4724.15  4789.47  5003.84  5122.45
                             5164.62

 Zero-point correction=                           0.271021 (Hartree/Particle)
 Thermal correction to Energy=                    0.288939
 Thermal correction to Enthalpy=                  0.289883
 Thermal correction to Gibbs Free Energy=         0.224211
 Sum of electronic and zero-point Energies=          -1250.313241
 Sum of electronic and thermal Energies=             -1250.295323
 Sum of electronic and thermal Enthalpies=           -1250.294379
 Sum of electronic and thermal Free Energies=        -1250.360051

                     E (Thermal)             CV                S
                      KCal/Mol        Cal/Mol-Kelvin    Cal/Mol-Kelvin
 Total                  181.312             67.833            138.218
 Electronic               0.000              0.000              0.000
 Translational            0.889              2.981             42.799
 Rotational               0.889              2.981             33.669
 Vibrational            179.534             61.871             61.751
 Vibration     1          0.593              1.984              5.949
 Vibration     2          0.595              1.980              5.103
 Vibration     3          0.595              1.977              4.800
 Vibration     4          0.599              1.967              4.077
 Vibration     5          0.601              1.958              3.705
 Vibration     6          0.604              1.948              3.430
 Vibration     7          0.609              1.931              3.070
 Vibration     8          0.614              1.915              2.825
 Vibration     9          0.627              1.873              2.383
 Vibration    10          0.631              1.863              2.295
 Vibration    11          0.639              1.837              2.111
 Vibration    12          0.653              1.793              1.867
 Vibration    13          0.664              1.759              1.714
 Vibration    14          0.682              1.705              1.515
 Vibration    15          0.695              1.667              1.396
 Vibration    16          0.704              1.640              1.322
 Vibration    17          0.705              1.637              1.314
 Vibration    18          0.731              1.565              1.144
 Vibration    19          0.739              1.542              1.095
 Vibration    20          0.761              1.482              0.984
 Vibration    21          0.796              1.392              0.839
 Vibration    22          0.807              1.366              0.803
 Vibration    23          0.817              1.340              0.768
 Vibration    24          0.853              1.255              0.664
 Vibration    25          0.892              1.168              0.571
 Vibration    26          0.916              1.118              0.524
 Vibration    27          0.945              1.059              0.472

 Optimization completed.
    -- Stationary point found.
 Normal termination of Gaussian 16 at Sat Dec 12 10:18:57 2020.

 ----------------------------------------------------------------------
 # B3LYP/6-311++G(d,p) empiricaldispersion=gd3bj scf=xqc pop=npa geom=c
 heck
 ----------------------------------------------------------------------

 ---------------------------------------
 CID_106086842_JID_9525_Energie_neutraal
 ---------------------------------------
 Structure from the checkpoint file:  "JID_9525.chk"
 Charge =  0 Multiplicity = 1

 SCF Done:  E(RB3LYP) =  -1250.85054300     A.U. after   16 cycles
 Normal termination of Gaussian 16 at Sat Dec 12 10:27:41 2020.

 ----------------------------------------------------------------------
 # B3LYP/6-311++G(d,p) empiricaldispersion=gd3bj scf=xqc pop=npa geom=c
 heck
 ----------------------------------------------------------------------

 -------------------------------------
 CID_106086842_JID_9525_Energie_kation
 -------------------------------------
 Structure from the checkpoint file:  "JID_9525.chk"
 Charge =  1 Multiplicity = 2

 SCF Done:  E(UB3LYP) =  -1250.55035901     A.U. after   26 cycles
 Normal termination of Gaussian 16 at Sat Dec 12 10:47:14 2020.
 Gaussian 16:  ES64L-G16RevA.03 25-Dec-2016

 ----------------------------------------------------------------------
 # B3LYP/6-311++G(d,p) empiricaldispersion=gd3bj scf=xqc pop=npa geom=c
 heck
 ----------------------------------------------------------------------

 ------------------------------------
 CID_106086842_JID_9525_Energie_anion
 ------------------------------------
 Structure from the checkpoint file:  "JID_9525.chk"
 Charge = -1 Multiplicity = 2

                         Standard orientation:
 ---------------------------------------------------------------------
 Center     Atomic      Atomic             Coordinates (Angstroms)
 Number     Number       Type             X           Y           Z
 ---------------------------------------------------------------------
      1          6           0       -1.269148    2.694788    1.450389
      2          6           0       -2.001854    1.762203    0.523377
      3          7           0       -1.410571    0.575490    0.293414
      4          6           0       -2.027746   -0.307354   -0.491935
      5          6           0       -3.259190   -0.056403   -1.119456
      6          6           0       -3.849638    1.178927   -0.897853
      7          6           0       -3.221466    2.105758   -0.062860
      8          7           0       -1.368137   -1.519781   -0.720858
      9         16           0       -0.265264   -2.241873    0.369466
     10          8           0       -0.707958   -2.046680    1.746103
     11          8           0       -0.099412   -3.578614   -0.205782
     12          6           0        1.205335   -1.340213    0.115810
     13          6           0        1.564366   -0.159530    0.744742
     14          7           0        2.745856    0.201788    0.200905
     15          7           0        3.175195   -0.666909   -0.758806
     16          6           0        2.241902   -1.610837   -0.808007
     17          6           0        3.431404    1.476502    0.362221
     18          6           0        2.993911    2.469847   -0.715856
     19          7           0        1.561419    2.747958   -0.589929
     20          1           0       -0.264794    2.907632    1.063913
     21          1           0       -1.808999    3.637344    1.579183
     22          1           0       -1.152584    2.225947    2.434663
     23          1           0       -3.727496   -0.806544   -1.749148
     24          1           0       -4.801993    1.415992   -1.363757
     25          1           0       -3.670827    3.072597    0.136990
     26          1           0       -1.864553   -2.238327   -1.236611
     27          1           0        1.048592    0.427091    1.486300
     28          1           0        2.336004   -2.456493   -1.474155
     29          1           0        3.183479    1.863478    1.353567
     30          1           0        4.504577    1.282444    0.302614
     31          1           0        3.543121    3.404991   -0.557549
     32          1           0        3.294671    2.068008   -1.696532
     33          1           0        1.292063    3.488763   -1.233723
     34          1           0        1.018325    1.927463   -0.856299
 ---------------------------------------------------------------------

 SCF Done:  E(UB3LYP) =  -1250.84520348     A.U. after   33 cycles
 SCF Done:  E(UB3LYP) =  -1250.84520348     a.u. after    1 cycles

 The electronic state is 2-A.
 Alpha  occ. eigenvalues --  -88.97861 -19.02635 -19.02384 -14.30897 -14.25546
 Alpha  occ. eigenvalues --  -14.24753 -14.20245 -14.18983 -10.14892 -10.12888
 Alpha  occ. eigenvalues --  -10.12444 -10.11698 -10.10575 -10.10518 -10.10481
 Alpha  occ. eigenvalues --  -10.07606 -10.07309 -10.06661 -10.05665  -8.03899
 Alpha  occ. eigenvalues --   -6.00220  -6.00133  -6.00005  -1.02993  -0.97089
 Alpha  occ. eigenvalues --   -0.91977  -0.87133  -0.80875  -0.80104  -0.75834
 Alpha  occ. eigenvalues --   -0.72082  -0.69847  -0.67309  -0.65092  -0.60670
 Alpha  occ. eigenvalues --   -0.58414  -0.54582  -0.53826  -0.51717  -0.49440
 Alpha  occ. eigenvalues --   -0.48412  -0.45706  -0.43046  -0.42808  -0.41626
 Alpha  occ. eigenvalues --   -0.40027  -0.39348  -0.37699  -0.37583  -0.36641
 Alpha  occ. eigenvalues --   -0.36202  -0.35183  -0.33173  -0.32965  -0.32537
 Alpha  occ. eigenvalues --   -0.30419  -0.30221  -0.29606  -0.29014  -0.28502
 Alpha  occ. eigenvalues --   -0.28196  -0.26797  -0.25748  -0.24377  -0.23376
 Alpha  occ. eigenvalues --   -0.23147  -0.21679  -0.20719  -0.18474  -0.18019
 Alpha  occ. eigenvalues --   -0.17764  -0.15702  -0.15345  -0.12977   0.04088
 Alpha virt. eigenvalues --    0.05780   0.06377   0.07215   0.07607   0.08245
 Alpha virt. eigenvalues --    0.08517   0.08764   0.08951   0.09476   0.09695
 Alpha virt. eigenvalues --    0.10224   0.10652   0.11253   0.11835   0.12917

  Beta  occ. eigenvalues --  -88.97855 -19.02630 -19.02368 -14.30877 -14.25521
  Beta  occ. eigenvalues --  -14.24716 -14.20228 -14.18803 -10.14883 -10.12851
  Beta  occ. eigenvalues --  -10.12425 -10.11700 -10.10544 -10.10513 -10.10383
  Beta  occ. eigenvalues --  -10.07388 -10.07264 -10.06698 -10.05665  -8.03892
  Beta  occ. eigenvalues --   -6.00208  -6.00128  -6.00000  -1.02969  -0.97042
  Beta  occ. eigenvalues --   -0.91954  -0.86992  -0.80707  -0.80060  -0.75789
  Beta  occ. eigenvalues --   -0.72024  -0.69536  -0.67167  -0.65038  -0.60580
  Beta  occ. eigenvalues --   -0.58360  -0.54520  -0.53761  -0.51546  -0.49271
  Beta  occ. eigenvalues --   -0.48348  -0.45633  -0.42971  -0.42742  -0.41559
  Beta  occ. eigenvalues --   -0.39991  -0.39265  -0.37657  -0.37478  -0.36610
  Beta  occ. eigenvalues --   -0.36138  -0.35121  -0.32937  -0.32820  -0.32428
  Beta  occ. eigenvalues --   -0.30320  -0.30126  -0.29551  -0.28898  -0.28442
  Beta  occ. eigenvalues --   -0.28137  -0.26698  -0.25686  -0.24243  -0.23324
  Beta  occ. eigenvalues --   -0.23000  -0.21544  -0.20669  -0.18162  -0.17700
  Beta  occ. eigenvalues --   -0.17118  -0.15618  -0.15169  -0.12651
  Beta virt. eigenvalues --    0.06273   0.06870   0.07485   0.07689   0.08039
  Beta virt. eigenvalues --    0.08508   0.08858   0.08976   0.09191   0.09609
  Beta virt. eigenvalues --    0.09964   0.10660   0.10805   0.11304   0.12062

 Mulliken charges and spin densities:
               1          2
     1  C    0.278453  -0.929586
     2  C   -0.701266   0.886993
     3  N   -0.026635   0.107219
     4  C    0.410978  -0.073611
     5  C   -0.454286   0.050872
     6  C   -0.241395  -0.065293
     7  C   -0.127869  -0.113013
     8  N   -0.350858   0.001559
     9  S    0.691880  -0.119670
    10  O   -0.172035   0.004289
    11  O   -0.190761   0.003383
    12  C   -0.441289  -0.115425
    13  C   -0.620398   0.133298
    14  N    0.421122   0.047773
    15  N   -0.302518   0.042630
    16  C    0.288006  -0.147297
    17  C   -0.073174  -0.171624
    18  C    0.989896  -1.351007
    19  N   -0.524958   0.071380
    20  H    0.398801  -0.173677
    21  H   -0.092667   0.225680
    22  H    0.068444   0.101080
    23  H   -0.016919   0.127879
    24  H    0.003638   0.137000
    25  H   -0.000780   0.134280
    26  H    0.310060   0.041269
    27  H    0.073114   0.136345
    28  H    0.156343   0.032652
    29  H   -0.043918   0.208342
    30  H   -0.237753   0.436982
    31  H   -0.814489   0.999146
    32  H    0.131079   0.015120
    33  H   -0.110571   0.367496
    34  H    0.322725  -0.052461
 Sum of Mulliken charges =  -1.00000   1.00000

 Dipole moment (field-independent basis, Debye):
    X=             -3.5658    Y=             -3.6073    Z=             -1.4005  Tot=              5.2621
 Quadrupole moment (field-independent basis, Debye-Ang):
   XX=           -179.9993   YY=           -183.4662   ZZ=           -143.5094
   XY=            -15.3039   XZ=              6.4515   YZ=              6.9078

 Summary of Natural Population Analysis:

                                       Natural Population
                Natural  -----------------------------------------------
    Atom  No    Charge         Core      Valence    Rydberg      Total
 -----------------------------------------------------------------------
      C    1   -0.30768      0.99963     2.30180    0.00625     3.30768
      C    2    0.13617      0.99955     1.85075    0.01353     2.86383
      N    3   -0.24948      0.99963     2.73845    0.01140     3.74948
      C    4    0.19749      0.99953     1.78627    0.01671     2.80251
      C    5   -0.14128      0.99952     2.13360    0.00816     3.14128
      C    6   -0.03808      0.99958     2.02853    0.00998     3.03808
      C    7   -0.14787      0.99951     2.14026    0.00809     3.14787
      N    8   -0.41853      0.99967     2.90696    0.01189     3.91853
      S    9    1.11928      4.99916     1.77842    0.10314     6.88072
      O   10   -0.44711      0.99990     3.44188    0.00533     4.44711
      O   11   -0.46966      0.99991     3.46479    0.00496     4.46966
      C   12   -0.21411      0.99935     2.20131    0.01345     3.21411
      C   13    0.03156      0.99949     1.95690    0.01205     2.96844
      N   14   -0.10401      0.99965     2.59095    0.01340     3.60401
      N   15   -0.14791      0.99973     2.63690    0.01128     3.64791
      C   16    0.00161      0.99957     1.98435    0.01447     2.99839
      C   17   -0.08503      0.99960     2.07293    0.01250     3.08503
      C   18   -0.09293      0.99963     2.08237    0.01092     3.09293
      N   19   -0.42721      0.99977     2.91688    0.01056     3.92721
      H   20    0.12095      0.00000     0.37737    0.00168     0.37905
      H   21    0.09629      0.00000     0.40293    0.00077     0.40371
      H   22    0.10561      0.00000     0.39338    0.00101     0.39439
      H   23    0.09802      0.00000     0.40100    0.00098     0.40198
      H   24    0.09477      0.00000     0.40446    0.00077     0.40523
      H   25    0.09995      0.00000     0.39918    0.00088     0.40005
      H   26    0.20114      0.00000     0.29668    0.00217     0.29886
      H   27    0.12545      0.00000     0.37281    0.00174     0.37455
      H   28    0.10611      0.00000     0.39291    0.00098     0.39389
      H   29    0.10458      0.00000     0.39399    0.00143     0.39542
      H   30    0.10842      0.00000     0.38998    0.00160     0.39158
      H   31    0.09940      0.00000     0.39591    0.00468     0.40060
      H   32    0.08478      0.00000     0.41355    0.00168     0.41522
      H   33    0.18034      0.00000     0.31778    0.00188     0.31966
      H   34    0.17894      0.00000     0.31846    0.00260     0.32106
 =======================================================================
   * Total *   -0.00000     22.99239    50.68470    0.32292    74.00000

 Normal termination of Gaussian 16 at Sat Dec 12 11:12:35 2020.
