 Gaussian 16, Revision A.03,

 -----------------------------------------------------------
 # opt freq B3LYP/6-31G(d) empiricaldispersion=gd3bj scf=xqc
 -----------------------------------------------------------

 -----------------------------
 CID_3301599_JID_7454_neutraal
 -----------------------------
 Symbolic Z-matrix:
 Charge =  0 Multiplicity = 1

 SCF Done:  E(RB3LYP) =  -750.216488622     A.U. after   14 cycles
 SCF Done:  E(RB3LYP) =  -750.219153325     A.U. after   12 cycles
 SCF Done:  E(RB3LYP) =  -750.219337895     A.U. after   11 cycles
 SCF Done:  E(RB3LYP) =  -750.219229184     A.U. after   11 cycles
 SCF Done:  E(RB3LYP) =  -750.219382078     A.U. after   11 cycles
 SCF Done:  E(RB3LYP) =  -750.219392949     A.U. after    9 cycles
 SCF Done:  E(RB3LYP) =  -750.219393589     A.U. after    8 cycles
 SCF Done:  E(RB3LYP) =  -750.219394275     A.U. after    8 cycles
 SCF Done:  E(RB3LYP) =  -750.219394803     A.U. after    8 cycles
 SCF Done:  E(RB3LYP) =  -750.219395401     A.U. after    9 cycles
 SCF Done:  E(RB3LYP) =  -750.219395736     A.U. after    8 cycles
 SCF Done:  E(RB3LYP) =  -750.219395869     A.U. after    7 cycles
 Optimization completed.
    -- Stationary point found.
 Normal termination of Gaussian 16 at Fri Dec 11 12:04:20 2020.

 --------------------------------------------------------------------
 #N Geom=AllCheck Guess=TCheck SCRF=Check GenChk RB3LYP/6-31G(d) Freq
 --------------------------------------------------------------------

 Structure from the checkpoint file:  "JID_7454.chk"
 -----------------------------
 CID_3301599_JID_7454_neutraal
 -----------------------------
 Charge =  0 Multiplicity = 1

 SCF Done:  E(RB3LYP) =  -750.219395869     A.U. after    1 cycles

  Exact polarizability: 185.607  23.823 132.463   0.007   0.017 142.168
 Approx polarizability: 224.580  44.107 216.616   0.008   0.031 236.516

                      1                      2                      3
                      A                      A                      A
 Frequencies --     25.2089                29.8250                32.5209
 Red. masses --      7.5028                 1.0476                 5.3243
 Frc consts  --      0.0028                 0.0005                 0.0033
 IR Inten    --      1.1977                 0.0952                 0.2510

                      4                      5                      6
                      A                      A                      A
 Frequencies --     43.1838                70.9349                77.9430
 Red. masses --      3.2720                 3.6233                 4.7175
 Frc consts  --      0.0036                 0.0107                 0.0169
 IR Inten    --      0.2131                 0.0099                 0.0692

                      7                      8                      9
                      A                      A                      A
 Frequencies --    144.6944               160.6881               214.7540
 Red. masses --      4.4727                 4.2161                 3.9418
 Frc consts  --      0.0552                 0.0641                 0.1071
 IR Inten    --      0.7574                 0.0291                 0.7497

                     10                     11                     12
                      A                      A                      A
 Frequencies --    237.9610               257.6176               275.7596
 Red. masses --      2.5717                 2.2390                 5.2686
 Frc consts  --      0.0858                 0.0875                 0.2361
 IR Inten    --      0.4734                 0.0167                 2.9016

                     13                     14                     15
                      A                      A                      A
 Frequencies --    310.9808               353.5416               369.8052
 Red. masses --      3.3859                 2.6132                 2.9806
 Frc consts  --      0.1929                 0.1924                 0.2402
 IR Inten    --      5.4570                 0.1464                 1.7490

                     16                     17                     18
                      A                      A                      A
 Frequencies --    401.9979               419.6861               422.5932
 Red. masses --      2.6068                 2.0608                 2.6936
 Frc consts  --      0.2482                 0.2139                 0.2834
 IR Inten    --      1.9331                 0.0362                 0.0011

                     19                     20                     21
                      A                      A                      A
 Frequencies --    484.4144               489.7677               520.6105
 Red. masses --      3.5175                 2.7830                 4.0055
 Frc consts  --      0.4863                 0.3933                 0.6396
 IR Inten    --      4.6161                 1.2194                15.0428

                     22                     23                     24
                      A                      A                      A
 Frequencies --    526.7365               619.2558               619.5917
 Red. masses --      2.4822                 1.2334                 3.6235
 Frc consts  --      0.4058                 0.2787                 0.8196
 IR Inten    --      0.3418                76.8505                44.2079

                     25                     26                     27
                      A                      A                      A
 Frequencies --    660.8672               668.3847               722.1272
 Red. masses --      6.5398                 2.9644                 3.8151
 Frc consts  --      1.6828                 0.7803                 1.1722
 IR Inten    --      0.0008                25.9232                 0.8800

                     28                     29                     30
                      A                      A                      A
 Frequencies --    764.0602               772.4337               781.3111
 Red. masses --      2.3724                 4.6897                 3.2767
 Frc consts  --      0.8160                 1.6486                 1.1785
 IR Inten    --     14.7013                36.4778                11.2850

                     31                     32                     33
                      A                      A                      A
 Frequencies --    837.7443               838.5210               849.9553
 Red. masses --      2.6420                 1.4899                 2.3521
 Frc consts  --      1.0924                 0.6172                 1.0011
 IR Inten    --     14.0760                 0.2331                 0.1006

                     34                     35                     36
                      A                      A                      A
 Frequencies --    859.4202               867.1248               932.7418
 Red. masses --      1.2461                 2.8565                 2.9660
 Frc consts  --      0.5423                 1.2654                 1.5204
 IR Inten    --      0.0024                12.5686                11.5870

                     37                     38                     39
                      A                      A                      A
 Frequencies --    933.5923               963.2158               966.3652
 Red. masses --      1.9537                 1.3405                 1.2955
 Frc consts  --      1.0033                 0.7328                 0.7128
 IR Inten    --      1.4941                 0.0034                 1.6658

                     40                     41                     42
                      A                      A                      A
 Frequencies --    984.8167              1014.8491              1019.2486
 Red. masses --      1.5857                 2.4209                 1.4450
 Frc consts  --      0.9061                 1.4690                 0.8845
 IR Inten    --      1.2569                39.6186                 0.8424

                     43                     44                     45
                      A                      A                      A
 Frequencies --   1036.3714              1045.0978              1051.8592
 Red. masses --      1.5618                 2.9147                 2.2122
 Frc consts  --      0.9883                 1.8757                 1.4421
 IR Inten    --      0.1406                 1.3477                26.1783

                     46                     47                     48
                      A                      A                      A
 Frequencies --   1076.0817              1112.4628              1131.6559
 Red. masses --      1.5231                 2.9076                 2.5788
 Frc consts  --      1.0391                 2.1201                 1.9458
 IR Inten    --      9.3175                 4.8200                66.0958

                     49                     50                     51
                      A                      A                      A
 Frequencies --   1145.6762              1145.8374              1167.1647
 Red. masses --      2.4278                 1.5649                 1.6207
 Frc consts  --      1.8775                 1.2106                 1.3008
 IR Inten    --     40.3103                18.2912                 3.2060

                     52                     53                     54
                      A                      A                      A
 Frequencies --   1201.0988              1217.4908              1220.6782
 Red. masses --      1.2466                 2.1418                 1.2682
 Frc consts  --      1.0596                 1.8705                 1.1134
 IR Inten    --      0.4339               145.3137                 1.4118

                     55                     56                     57
                      A                      A                      A
 Frequencies --   1229.2905              1247.6581              1255.7212
 Red. masses --      3.1986                 2.5107                 1.2346
 Frc consts  --      2.8479                 2.3027                 1.1470
 IR Inten    --     25.5536                 0.7353                 0.6402

                     58                     59                     60
                      A                      A                      A
 Frequencies --   1300.7209              1318.5416              1339.3977
 Red. masses --      1.3880                 1.3099                 1.7537
 Frc consts  --      1.3836                 1.3418                 1.8537
 IR Inten    --     16.8363                 0.7091                17.1199

                     61                     62                     63
                      A                      A                      A
 Frequencies --   1349.0828              1353.4940              1357.8031
 Red. masses --      1.5238                 2.0263                 1.2947
 Frc consts  --      1.6340                 2.1871                 1.4064
 IR Inten    --      0.9558                 0.0608                18.0062

                     64                     65                     66
                      A                      A                      A
 Frequencies --   1377.9470              1380.3512              1387.9776
 Red. masses --      1.5968                 2.5182                 1.2571
 Frc consts  --      1.7863                 2.8269                 1.4269
 IR Inten    --      4.2093                49.9817                28.6007

                     67                     68                     69
                      A                      A                      A
 Frequencies --   1391.0016              1406.8655              1414.9025
 Red. masses --      1.3375                 1.4064                 1.5325
 Frc consts  --      1.5248                 1.6401                 1.8076
 IR Inten    --      0.3506                 0.2133                 0.3233

                     70                     71                     72
                      A                      A                      A
 Frequencies --   1443.0266              1443.7412              1463.6118
 Red. masses --      1.2474                 1.4453                 2.3648
 Frc consts  --      1.5305                 1.7750                 2.9847
 IR Inten    --      0.1251                15.4040                 1.3628

                     73                     74                     75
                      A                      A                      A
 Frequencies --   1501.9842              1508.1964              1518.4291
 Red. masses --      1.0933                 1.0930                 1.0490
 Frc consts  --      1.4532                 1.4649                 1.4250
 IR Inten    --      9.0364                 1.2137                 5.8588

                     76                     77                     78
                      A                      A                      A
 Frequencies --   1522.1588              1523.1677              1528.6119
 Red. masses --      1.0921                 1.1062                 1.0822
 Frc consts  --      1.4909                 1.5121                 1.4898
 IR Inten    --     12.0408                 7.7691                 1.5491

                     79                     80                     81
                      A                      A                      A
 Frequencies --   1541.4672              1566.2733              1634.8146
 Red. masses --      1.1038                 2.4830                 5.6011
 Frc consts  --      1.5453                 3.5890                 8.8199
 IR Inten    --     10.3744                12.7786                 0.1570

                     82                     83                     84
                      A                      A                      A
 Frequencies --   1677.5462              1845.5946              2940.1483
 Red. masses --      5.8448                 9.4574                 1.0724
 Frc consts  --      9.6910                18.9799                 5.4620
 IR Inten    --      3.4989               303.2329                14.9065

                     85                     86                     87
                      A                      A                      A
 Frequencies --   2946.7865              3041.3907              3041.9194
 Red. masses --      1.0715                 1.0426                 1.0575
 Frc consts  --      5.4822                 5.6821                 5.7654
 IR Inten    --     79.2298                51.0349                22.6632

                     88                     89                     90
                      A                      A                      A
 Frequencies --   3058.4446              3059.4401              3069.9337
 Red. masses --      1.0659                 1.0669                 1.0836
 Frc consts  --      5.8744                 5.8836                 6.0167
 IR Inten    --      9.8315                28.0515                65.8851

                     91                     92                     93
                      A                      A                      A
 Frequencies --   3071.5419              3073.6276              3086.7237
 Red. masses --      1.0854                 1.0842                 1.1054
 Frc consts  --      6.0331                 6.0350                 6.2055
 IR Inten    --      5.1978                17.4012                31.5656

                     94                     95                     96
                      A                      A                      A
 Frequencies --   3098.7071              3111.3168              3117.2464
 Red. masses --      1.0954                 1.1036                 1.1014
 Frc consts  --      6.1971                 6.2942                 6.3059
 IR Inten    --     23.2994                 5.6003                40.1792

                     97                     98                     99
                      A                      A                      A
 Frequencies --   3125.5488              3170.6896              3171.1057
 Red. masses --      1.1028                 1.0866                 1.0865
 Frc consts  --      6.3473                 6.4359                 6.4371
 IR Inten    --     16.5888                27.3496                 0.2835

                    100                    101                    102
                      A                      A                      A
 Frequencies --   3186.9030              3190.2337              3687.3493
 Red. masses --      1.0938                 1.0946                 1.0640
 Frc consts  --      6.5454                 6.5640                 8.5238
 IR Inten    --     48.7638                 0.8798                51.7648

 - Thermochemistry -
 -------------------
 Temperature   298.150 Kelvin.  Pressure   1.00000 Atm.
 Atom     1 has atomic number  6 and mass  12.00000

 Molecular mass:   233.14158 amu.
 Principal axes and moments of inertia in atomic units:
                           1         2         3
     Eigenvalues --  1707.826839218.833919580.58869
           X            0.99988   0.01562   0.00000
           Y           -0.01562   0.99988   0.00008
           Z            0.00000  -0.00008   1.00000
 This molecule is an asymmetric top.
 Rotational symmetry number  1.
 Warning -- assumption of classical behavior for rotation
           may cause significant error
 Rotational temperatures (Kelvin)      0.05072     0.00940     0.00904
 Rotational constants (GHZ):           1.05675     0.19577     0.18837
 Zero-point vibrational energy     820499.2 (Joules/Mol)
                                  196.10403 (Kcal/Mol)
 Warning -- explicit consideration of  24 degrees of freedom as
           vibrations may cause significant error
 Vibrational temperatures:     36.27    42.91    46.79    62.13   102.06
          (Kelvin)            112.14   208.18   231.19   308.98   342.37
                              370.65   396.76   447.43   508.67   532.07
                              578.39   603.83   608.02   696.96   704.67
                              749.04   757.86   890.97   891.45   950.84
                              961.66  1038.98  1099.31  1111.36  1124.13
                             1205.33  1206.44  1222.90  1236.51  1247.60
                             1342.01  1343.23  1385.85  1390.38  1416.93
                             1460.14  1466.47  1491.11  1503.66  1513.39
                             1548.24  1600.59  1628.20  1648.37  1648.60
                             1679.29  1728.11  1751.70  1756.28  1768.67
                             1795.10  1806.70  1871.45  1897.09  1927.09
                             1941.03  1947.38  1953.58  1982.56  1986.02
                             1996.99  2001.34  2024.17  2035.73  2076.19
                             2077.22  2105.81  2161.02  2169.96  2184.68
                             2190.05  2191.50  2199.33  2217.83  2253.52
                             2352.13  2413.61  2655.40  4230.22  4239.77
                             4375.88  4376.64  4400.42  4401.85  4416.95
                             4419.26  4422.26  4441.11  4458.35  4476.49
                             4485.02  4496.97  4561.92  4562.51  4585.24
                             4590.03  5305.27

 Zero-point correction=                           0.312512 (Hartree/Particle)
 Thermal correction to Energy=                    0.328532
 Thermal correction to Enthalpy=                  0.329476
 Thermal correction to Gibbs Free Energy=         0.266280
 Sum of electronic and zero-point Energies=           -749.906884
 Sum of electronic and thermal Energies=              -749.890864
 Sum of electronic and thermal Enthalpies=            -749.889920
 Sum of electronic and thermal Free Energies=         -749.953116

                     E (Thermal)             CV                S
                      KCal/Mol        Cal/Mol-Kelvin    Cal/Mol-Kelvin
 Total                  206.157             61.106            133.006
 Electronic               0.000              0.000              0.000
 Translational            0.889              2.981             42.241
 Rotational               0.889              2.981             33.378
 Vibrational            204.379             55.145             57.387
 Vibration     1          0.593              1.985              6.175
 Vibration     2          0.594              1.984              5.841
 Vibration     3          0.594              1.983              5.669
 Vibration     4          0.595              1.980              5.107
 Vibration     5          0.598              1.968              4.127
 Vibration     6          0.599              1.964              3.942
 Vibration     7          0.616              1.908              2.741
 Vibration     8          0.622              1.891              2.542
 Vibration     9          0.645              1.819              2.003
 Vibration    10          0.656              1.783              1.818
 Vibration    11          0.667              1.750              1.678
 Vibration    12          0.677              1.718              1.560
 Vibration    13          0.700              1.653              1.357
 Vibration    14          0.730              1.568              1.150
 Vibration    15          0.742              1.534              1.081
 Vibration    16          0.768              1.466              0.955
 Vibration    17          0.782              1.427              0.893
 Vibration    18          0.785              1.421              0.883
 Vibration    19          0.841              1.285              0.698
 Vibration    20          0.846              1.273              0.684
 Vibration    21          0.876              1.204              0.609
 Vibration    22          0.882              1.191              0.595
 Vibration    23          0.979              0.991              0.418
 Vibration    24          0.980              0.991              0.417

                           ! Non-Optimized Parameters !
 Normal termination of Gaussian 16 at Fri Dec 11 12:18:16 2020.

 ----------------------------------------------------------------------
 # B3LYP/6-311++G(d,p) empiricaldispersion=gd3bj scf=xqc pop=npa geom=c
 heck
 ----------------------------------------------------------------------

 -------------------------------------
 CID_3301599_JID_7454_Energie_neutraal
 -------------------------------------
 Structure from the checkpoint file:  "JID_7454.chk"
 Charge =  0 Multiplicity = 1

 SCF Done:  E(RB3LYP) =  -750.431771872     A.U. after   14 cycles
 Normal termination of Gaussian 16 at Fri Dec 11 12:23:38 2020.

 ----------------------------------------------------------------------
 # B3LYP/6-311++G(d,p) empiricaldispersion=gd3bj scf=xqc pop=npa geom=c
 heck
 ----------------------------------------------------------------------

 -----------------------------------
 CID_3301599_JID_7454_Energie_kation
 -----------------------------------
 Structure from the checkpoint file:  "JID_7454.chk"
 Charge =  1 Multiplicity = 2

 SCF Done:  E(UB3LYP) =  -750.144049505     A.U. after   23 cycles
 Normal termination of Gaussian 16 at Fri Dec 11 12:36:03 2020.
 Gaussian 16:  ES64L-G16RevA.03 25-Dec-2016

 ----------------------------------------------------------------------
 # B3LYP/6-311++G(d,p) empiricaldispersion=gd3bj scf=xqc pop=npa geom=c
 heck
 ----------------------------------------------------------------------

 ----------------------------------
 CID_3301599_JID_7454_Energie_anion
 ----------------------------------
 Structure from the checkpoint file:  "JID_7454.chk"
 Charge = -1 Multiplicity = 2

                         Standard orientation:
 ---------------------------------------------------------------------
 Center     Atomic      Atomic             Coordinates (Angstroms)
 Number     Number       Type             X           Y           Z
 ---------------------------------------------------------------------
      1          6           0        5.206364    1.884113    0.000224
      2          6           0        4.105584    0.851611   -0.000056
      3          6           0        3.573676    0.363949   -1.199511
      4          6           0        2.537537   -0.568002   -1.199091
      5          6           0        1.996536   -1.046265   -0.000058
      6          6           0        2.536978   -0.567310    1.199065
      7          6           0        3.573044    0.364573    1.199500
      8          6           0        0.824533   -2.011595   -0.000070
      9          7           0       -0.509030   -1.397689   -0.000024
     10          6           0       -0.796887   -0.630481    1.208737
     11          6           0       -2.273626   -0.235430    1.255695
     12          6           0       -2.645821    0.575723    0.000062
     13          6           0       -2.273727   -0.235444   -1.255623
     14          6           0       -0.796995   -0.630526   -1.208804
     15          6           0       -4.101383    0.982652   -0.000102
     16          8           0       -4.520491    2.119377   -0.001241
     17          8           0       -4.934895   -0.092186    0.001052
     18          1           0        5.836259    1.798124   -0.891323
     19          1           0        4.795307    2.902329    0.011510
     20          1           0        5.849136    1.784017    0.881122
     21          1           0        3.980919    0.714254   -2.145207
     22          1           0        2.149883   -0.939164   -2.144995
     23          1           0        2.148837   -0.937983    2.144960
     24          1           0        3.979828    0.715382    2.145224
     25          1           0        0.881332   -2.659663   -0.883160
     26          1           0        0.881325   -2.659639    0.883036
     27          1           0       -0.171590    0.279710    1.282998
     28          1           0       -0.554623   -1.255881    2.076332
     29          1           0       -2.469399    0.352430    2.160334
     30          1           0       -2.891215   -1.138301    1.299481
     31          1           0       -2.078211    1.513232   -0.000002
     32          1           0       -2.891342   -1.138308   -1.299348
     33          1           0       -2.469575    0.352436   -2.160231
     34          1           0       -0.554852   -1.255979   -2.076392
     35          1           0       -0.171675    0.279632   -1.283173
     36          1           0       -5.838930    0.274254    0.000695
 ---------------------------------------------------------------------

 SCF Done:  E(UB3LYP) =  -750.420005046     A.U. after   33 cycles
 SCF Done:  E(UB3LYP) =  -750.420005046     a.u. after    1 cycles

 The electronic state is 2-A.
 Alpha  occ. eigenvalues --  -19.07971 -19.02805 -14.21676 -10.21643 -10.10713
 Alpha  occ. eigenvalues --  -10.10354 -10.10353 -10.10102 -10.09255 -10.08471
 Alpha  occ. eigenvalues --  -10.08420 -10.08418 -10.08261 -10.08253 -10.08153
 Alpha  occ. eigenvalues --  -10.08152 -10.08112  -1.02064  -0.93161  -0.84347
 Alpha  occ. eigenvalues --   -0.77000  -0.73155  -0.69104  -0.67082  -0.65584
 Alpha  occ. eigenvalues --   -0.63341  -0.59368  -0.55370  -0.54686  -0.51810
 Alpha  occ. eigenvalues --   -0.51079  -0.48973  -0.47335  -0.42294  -0.40454
 Alpha  occ. eigenvalues --   -0.39915  -0.39263  -0.38350  -0.37186  -0.36809
 Alpha  occ. eigenvalues --   -0.36735  -0.34714  -0.34381  -0.33396  -0.33058
 Alpha  occ. eigenvalues --   -0.32776  -0.31730  -0.30750  -0.30736  -0.29874
 Alpha  occ. eigenvalues --   -0.27327  -0.26904  -0.26560  -0.26095  -0.25596
 Alpha  occ. eigenvalues --   -0.24720  -0.24622  -0.23999  -0.23196  -0.19033
 Alpha  occ. eigenvalues --   -0.16533  -0.15340  -0.12959   0.03903
 Alpha virt. eigenvalues --    0.05263   0.06288   0.06302   0.07104   0.07276
 Alpha virt. eigenvalues --    0.07973   0.08413   0.08416   0.08645   0.09462
 Alpha virt. eigenvalues --    0.09521   0.10216   0.10600   0.10960   0.11954

  Beta  occ. eigenvalues --  -19.07925 -19.02796 -14.21676 -10.21639 -10.10701
  Beta  occ. eigenvalues --  -10.10342 -10.10341 -10.10094 -10.09234 -10.08452
  Beta  occ. eigenvalues --  -10.08408 -10.08406 -10.08247 -10.08239 -10.08141
  Beta  occ. eigenvalues --  -10.08140 -10.08089  -1.02006  -0.93114  -0.84333
  Beta  occ. eigenvalues --   -0.76964  -0.73128  -0.69056  -0.67058  -0.65550
  Beta  occ. eigenvalues --   -0.63303  -0.59322  -0.55317  -0.54651  -0.51768
  Beta  occ. eigenvalues --   -0.51009  -0.48923  -0.47300  -0.42253  -0.40416
  Beta  occ. eigenvalues --   -0.39883  -0.39242  -0.38316  -0.37166  -0.36754
  Beta  occ. eigenvalues --   -0.36708  -0.34687  -0.34350  -0.33349  -0.33027
  Beta  occ. eigenvalues --   -0.32755  -0.31694  -0.30722  -0.30692  -0.29841
  Beta  occ. eigenvalues --   -0.27302  -0.26851  -0.26540  -0.26060  -0.25555
  Beta  occ. eigenvalues --   -0.24691  -0.24599  -0.23966  -0.23172  -0.18997
  Beta  occ. eigenvalues --   -0.16489  -0.15238  -0.12951
  Beta virt. eigenvalues --    0.05839   0.06363   0.06871   0.06976   0.07351
  Beta virt. eigenvalues --    0.07410   0.08428   0.08480   0.08540   0.09012
  Beta virt. eigenvalues --    0.09542   0.09822   0.10285   0.10915   0.11196

 Mulliken charges and spin densities:
               1          2
     1  C    1.778360  -2.459713
     2  C    0.273072   0.109298
     3  C   -0.517090   0.189669
     4  C   -0.483903   0.416428
     5  C    1.049647  -0.493681
     6  C   -0.480544   0.413487
     7  C   -0.527891   0.218988
     8  C   -0.279258  -0.625056
     9  N    0.197382   0.064334
    10  C   -0.547971   0.361354
    11  C    0.537897  -1.300497
    12  C    0.088030   0.305634
    13  C    0.539862  -1.301863
    14  C   -0.549137   0.362364
    15  C   -0.199349  -0.102741
    16  O   -0.270568   0.018344
    17  O   -0.190760   0.057399
    18  H   -0.166769   0.306451
    19  H    0.138215   0.026342
    20  H   -0.163273   0.302945
    21  H   -0.426742   0.608672
    22  H   -0.342752   0.501149
    23  H   -0.341975   0.500153
    24  H   -0.427935   0.610713
    25  H   -0.038459   0.220702
    26  H   -0.037910   0.220206
    27  H    0.226004  -0.078687
    28  H    0.012295   0.148816
    29  H   -0.039884   0.204532
    30  H    0.066798   0.133313
    31  H    0.145049   0.073749
    32  H    0.066240   0.133817
    33  H   -0.039046   0.203676
    34  H    0.012768   0.148333
    35  H    0.225539  -0.078165
    36  H   -0.285940   0.579539
 Sum of Mulliken charges =  -1.00000   1.00000

 Dipole moment (field-independent basis, Debye):
    X=              0.7261    Y=             -0.5548    Z=              0.0030  Tot=              0.9138
 Quadrupole moment (field-independent basis, Debye-Ang):
   XX=           -227.4854   YY=           -140.1805   ZZ=           -140.9365
   XY=              2.4303   XZ=              0.0244   YZ=              0.0173

 Summary of Natural Population Analysis:

                                       Natural Population
                Natural  -----------------------------------------------
    Atom  No    Charge         Core      Valence    Rydberg      Total
 -----------------------------------------------------------------------
      C    1   -0.29095      0.99964     2.28643    0.00488     3.29095
      C    2   -0.01600      0.99952     2.00646    0.01003     3.01600
      C    3   -0.09965      0.99951     2.09056    0.00958     3.09965
      C    4   -0.09467      0.99951     2.08538    0.00978     3.09467
      C    5   -0.03051      0.99950     2.02137    0.00965     3.03051
      C    6   -0.09470      0.99951     2.08541    0.00978     3.09470
      C    7   -0.09959      0.99951     2.09050    0.00957     3.09959
      C    8   -0.08680      0.99958     2.07506    0.01217     3.08680
      N    9   -0.27753      0.99971     2.76550    0.01232     3.77753
      C   10   -0.08554      0.99961     2.07497    0.01096     3.08554
      C   11   -0.18898      0.99961     2.18034    0.00903     3.18898
      C   12   -0.15528      0.99954     2.14485    0.01089     3.15528
      C   13   -0.18897      0.99961     2.18033    0.00903     3.18897
      C   14   -0.08554      0.99961     2.07497    0.01096     3.08554
      C   15    0.41359      0.99967     1.56058    0.02616     2.58641
      O   16   -0.30671      0.99987     3.30084    0.00600     4.30671
      O   17   -0.34724      0.99988     3.34043    0.00693     4.34724
      H   18    0.10320      0.00000     0.39555    0.00125     0.39680
      H   19    0.10313      0.00000     0.39582    0.00105     0.39687
      H   20    0.10328      0.00000     0.39546    0.00126     0.39672
      H   21    0.09931      0.00000     0.39924    0.00145     0.40069
      H   22    0.10005      0.00000     0.39823    0.00172     0.39995
      H   23    0.10005      0.00000     0.39823    0.00172     0.39995
      H   24    0.09931      0.00000     0.39925    0.00144     0.40069
      H   25    0.09814      0.00000     0.40067    0.00119     0.40186
      H   26    0.09813      0.00000     0.40068    0.00119     0.40187
      H   27    0.08444      0.00000     0.41389    0.00167     0.41556
      H   28    0.09873      0.00000     0.39999    0.00128     0.40127
      H   29    0.10153      0.00000     0.39761    0.00085     0.39847
      H   30    0.10538      0.00000     0.39278    0.00185     0.39462
      H   31    0.10749      0.00000     0.39075    0.00175     0.39251
      H   32    0.10537      0.00000     0.39279    0.00184     0.39463
      H   33    0.10154      0.00000     0.39761    0.00085     0.39846
      H   34    0.09873      0.00000     0.39999    0.00128     0.40127
      H   35    0.08444      0.00000     0.41389    0.00167     0.41556
      H   36    0.24282      0.00000     0.24514    0.01203     0.25718
 =======================================================================
   * Total *    0.00000     16.99337    45.79156    0.21506    63.00000

 Normal termination of Gaussian 16 at Fri Dec 11 12:57:57 2020.
