 Gaussian 16, Revision A.03,

 -----------------------------------------------------------
 # opt freq B3LYP/6-31G(d) empiricaldispersion=gd3bj scf=xqc
 -----------------------------------------------------------

 -------------------------------
 CID_143828195_JID_8508_neutraal
 -------------------------------
 Symbolic Z-matrix:
 Charge =  0 Multiplicity = 1

 SCF Done:  E(RB3LYP) =  -878.578070874     A.U. after   15 cycles
 SCF Done:  E(RB3LYP) =  -878.584026595     A.U. after   12 cycles
 SCF Done:  E(RB3LYP) =  -878.584192466     A.U. after   13 cycles
 SCF Done:  E(RB3LYP) =  -878.583316476     A.U. after   12 cycles
 SCF Done:  E(RB3LYP) =  -878.584228668     A.U. after   12 cycles
 SCF Done:  E(RB3LYP) =  -878.585101106     A.U. after   12 cycles
 SCF Done:  E(RB3LYP) =  -878.585457400     A.U. after   12 cycles
 SCF Done:  E(RB3LYP) =  -878.585811231     A.U. after   12 cycles
 SCF Done:  E(RB3LYP) =  -878.586037863     A.U. after   12 cycles
 SCF Done:  E(RB3LYP) =  -878.586302513     A.U. after   12 cycles
 SCF Done:  E(RB3LYP) =  -878.591182970     A.U. after   10 cycles
 SCF Done:  E(RB3LYP) =  -878.591193563     A.U. after    9 cycles
 SCF Done:  E(RB3LYP) =  -878.591199039     A.U. after   10 cycles
 SCF Done:  E(RB3LYP) =  -878.591200076     A.U. after    8 cycles
 SCF Done:  E(RB3LYP) =  -878.591200334     A.U. after    8 cycles
 Optimization completed.
    -- Stationary point found.
 Normal termination of Gaussian 16 at Fri Dec 11 22:11:13 2020.

 --------------------------------------------------------------------
 #N Geom=AllCheck Guess=TCheck SCRF=Check GenChk RB3LYP/6-31G(d) Freq
 --------------------------------------------------------------------

 Structure from the checkpoint file:  "JID_8508.chk"
 -------------------------------
 CID_143828195_JID_8508_neutraal
 -------------------------------
 Charge =  0 Multiplicity = 1

 SCF Done:  E(RB3LYP) =  -878.591200334     A.U. after    1 cycles

  Exact polarizability: 188.661   6.567 175.150   1.041  -5.223  96.162
 Approx polarizability: 256.140   3.164 272.206   5.258 -23.075 147.413

                      1                      2                      3
                      A                      A                      A
 Frequencies --     26.1423                39.1442                51.9886
 Red. masses --      4.6536                 3.6737                 5.8644
 Frc consts  --      0.0019                 0.0033                 0.0093
 IR Inten    --      0.3060                 4.1034                 5.4590

                      4                      5                      6
                      A                      A                      A
 Frequencies --     63.3300               104.5308               115.4862
 Red. masses --      3.6243                 3.8720                 3.9276
 Frc consts  --      0.0086                 0.0249                 0.0309
 IR Inten    --      0.3812                 0.3918                 0.2022

                      7                      8                      9
                      A                      A                      A
 Frequencies --    139.0575               149.9036               155.9729
 Red. masses --      2.9322                 5.6921                 5.3301
 Frc consts  --      0.0334                 0.0754                 0.0764
 IR Inten    --      3.4764                 1.9896                 7.5383

                     10                     11                     12
                      A                      A                      A
 Frequencies --    194.5793               205.7810               222.0676
 Red. masses --      2.2948                 1.9631                 1.9587
 Frc consts  --      0.0512                 0.0490                 0.0569
 IR Inten    --      6.0142                 1.4342                 1.4563

                     13                     14                     15
                      A                      A                      A
 Frequencies --    231.1289               235.0726               240.6660
 Red. masses --      1.2889                 2.3205                 1.1487
 Frc consts  --      0.0406                 0.0755                 0.0392
 IR Inten    --      0.2437                 0.5126                 0.1364

                     16                     17                     18
                      A                      A                      A
 Frequencies --    268.1412               291.3286               342.2440
 Red. masses --      2.9230                 4.7726                 3.1177
 Frc consts  --      0.1238                 0.2387                 0.2152
 IR Inten    --      0.2744                 8.0817                 4.5275

                     19                     20                     21
                      A                      A                      A
 Frequencies --    369.8317               386.1647               400.6610
 Red. masses --      3.2953                 1.3843                 3.3911
 Frc consts  --      0.2656                 0.1216                 0.3207
 IR Inten    --      3.3298               160.8716                23.5467

                     22                     23                     24
                      A                      A                      A
 Frequencies --    416.5415               419.2924               467.3968
 Red. masses --      3.5823                 3.7439                 2.9841
 Frc consts  --      0.3662                 0.3878                 0.3841
 IR Inten    --      9.7496                 0.2159                15.2799

                     25                     26                     27
                      A                      A                      A
 Frequencies --    493.3337               502.2237               521.7514
 Red. masses --      2.9046                 2.7279                 4.3759
 Frc consts  --      0.4165                 0.4054                 0.7018
 IR Inten    --     11.7915                 2.2671                 7.6579

                     28                     29                     30
                      A                      A                      A
 Frequencies --    563.2282               575.7505               600.4780
 Red. masses --      2.5014                 3.9361                 2.1837
 Frc consts  --      0.4675                 0.7687                 0.4639
 IR Inten    --      9.6006                36.5710                 8.3326

                     31                     32                     33
                      A                      A                      A
 Frequencies --    627.6367               643.9112               695.7438
 Red. masses --      1.2597                 3.0173                 4.5091
 Frc consts  --      0.2924                 0.7371                 1.2860
 IR Inten    --     78.6178                30.0443                16.6245

                     34                     35                     36
                      A                      A                      A
 Frequencies --    712.2167               763.1763               780.8808
 Red. masses --      4.4848                 2.9428                 4.5448
 Frc consts  --      1.3403                 1.0099                 1.6328
 IR Inten    --      9.0507                 7.6859                24.3013

                     37                     38                     39
                      A                      A                      A
 Frequencies --    803.2327               818.0191               869.0998
 Red. masses --      3.7490                 3.4056                 1.7317
 Frc consts  --      1.4251                 1.3427                 0.7707
 IR Inten    --      9.4801                25.9851                14.8668

                     40                     41                     42
                      A                      A                      A
 Frequencies --    904.8624               911.6046               926.9474
 Red. masses --      1.5246                 2.8247                 2.1640
 Frc consts  --      0.7355                 1.3830                 1.0955
 IR Inten    --     14.3183                 0.4636                 2.6774

                     43                     44                     45
                      A                      A                      A
 Frequencies --    931.8798               951.7579               958.7054
 Red. masses --      1.3578                 1.3437                 1.2440
 Frc consts  --      0.6947                 0.7172                 0.6737
 IR Inten    --      6.8439                 0.4211                 0.4146

                     46                     47                     48
                      A                      A                      A
 Frequencies --    988.0803              1014.7234              1060.1177
 Red. masses --      3.4236                 6.8967                 2.9169
 Frc consts  --      1.9693                 4.1840                 1.9314
 IR Inten    --     47.7193                 2.2588                32.2140

                     49                     50                     51
                      A                      A                      A
 Frequencies --   1097.0351              1104.5467              1112.5497
 Red. masses --      2.8275                 4.1199                 2.0759
 Frc consts  --      2.0049                 2.9614                 1.5139
 IR Inten    --     77.7200                83.2555                16.5931

                     52                     53                     54
                      A                      A                      A
 Frequencies --   1131.7442              1160.4038              1167.9846
 Red. masses --      1.4240                 2.1736                 2.2046
 Frc consts  --      1.0746                 1.7244                 1.7720
 IR Inten    --      0.8240                75.4934                17.8971

                     55                     56                     57
                      A                      A                      A
 Frequencies --   1170.6356              1182.8774              1216.7954
 Red. masses --      2.0560                 2.2127                 1.8957
 Frc consts  --      1.6601                 1.8241                 1.6537
 IR Inten    --     31.2576               234.1887                25.5597

                     58                     59                     60
                      A                      A                      A
 Frequencies --   1233.9498              1270.2671              1311.5767
 Red. masses --      1.5661                 1.2493                 7.4447
 Frc consts  --      1.4049                 1.1877                 7.5455
 IR Inten    --    133.6703                30.2481                20.9713

                     61                     62                     63
                      A                      A                      A
 Frequencies --   1343.5192              1351.2218              1383.1787
 Red. masses --      1.3245                 3.3667                 1.8874
 Frc consts  --      1.4086                 3.6217                 2.1275
 IR Inten    --      3.3592                11.9433               171.6455

                     64                     65                     66
                      A                      A                      A
 Frequencies --   1393.6566              1406.7039              1430.3211
 Red. masses --      1.3172                 1.4354                 1.4093
 Frc consts  --      1.5074                 1.6736                 1.6988
 IR Inten    --      6.0641               119.5437                46.7878

                     67                     68                     69
                      A                      A                      A
 Frequencies --   1433.1150              1434.1048              1445.1124
 Red. masses --      1.3300                 1.2827                 2.1824
 Frc consts  --      1.6094                 1.5542                 2.6853
 IR Inten    --     15.0283                20.2080               123.5010

                     70                     71                     72
                      A                      A                      A
 Frequencies --   1450.1399              1470.5510              1478.4039
 Red. masses --      1.2594                 3.2526                 1.4302
 Frc consts  --      1.5604                 4.1442                 1.8418
 IR Inten    --     25.6992               242.4809                28.9258

                     73                     74                     75
                      A                      A                      A
 Frequencies --   1494.6546              1513.7943              1517.4218
 Red. masses --      1.8515                 1.0755                 1.0618
 Frc consts  --      2.4370                 1.4520                 1.4405
 IR Inten    --    154.9786                 3.5701                 2.9069

                     76                     77                     78
                      A                      A                      A
 Frequencies --   1525.8714              1526.5422              1528.9796
 Red. masses --      1.0662                 1.0987                 1.0556
 Frc consts  --      1.4626                 1.5084                 1.4539
 IR Inten    --      7.9238                12.6899                 3.2645

                     79                     80                     81
                      A                      A                      A
 Frequencies --   1532.3370              1552.4686              1609.2155
 Red. masses --      1.0836                 1.0889                 7.8145
 Frc consts  --      1.4992                 1.5463                11.9229
 IR Inten    --      8.2539                17.9099               276.9778

                     82                     83                     84
                      A                      A                      A
 Frequencies --   1643.4832              1667.0430              1798.0325
 Red. masses --      1.3631                 4.7282                 8.7764
 Frc consts  --      2.1692                 7.7417                16.7172
 IR Inten    --    239.5759                72.2789               231.2946

                     85                     86                     87
                      A                      A                      A
 Frequencies --   3002.7297              3054.8081              3062.4322
 Red. masses --      1.0697                 1.0358                 1.0411
 Frc consts  --      5.6823                 5.6949                 5.7528
 IR Inten    --     34.9135                11.6184                20.4520

                     88                     89                     90
                      A                      A                      A
 Frequencies --   3067.3693              3081.8150              3092.7300
 Red. masses --      1.0426                 1.0819                 1.0903
 Frc consts  --      5.7795                 6.0540                 6.1444
 IR Inten    --     10.9389                46.8108                22.8649

                     91                     92                     93
                      A                      A                      A
 Frequencies --   3105.8671              3123.6432              3126.5835
 Red. masses --      1.0927                 1.1009                 1.0995
 Frc consts  --      6.2101                 6.3287                 6.3329
 IR Inten    --     16.2306                20.2615                63.1477

                     94                     95                     96
                      A                      A                      A
 Frequencies --   3130.1077              3134.7829              3171.4817
 Red. masses --      1.1021                 1.1024                 1.0989
 Frc consts  --      6.3620                 6.3827                 6.5125
 IR Inten    --     28.9121                24.7317                20.9758

                     97                     98                     99
                      A                      A                      A
 Frequencies --   3184.0966              3238.7070              3257.8055
 Red. masses --      1.0981                 1.0916                 1.0920
 Frc consts  --      6.5596                 6.7459                 6.8283
 IR Inten    --      1.5060                 2.0787                 3.7239

                    100                    101                    102
                      A                      A                      A
 Frequencies --   3585.7761              3621.8919              3706.6809
 Red. masses --      1.0458                 1.0652                 1.1032
 Frc consts  --      7.9226                 8.2330                 8.9308
 IR Inten    --     36.2817               204.6665                35.1255

 - Thermochemistry -
 -------------------
 Temperature   298.150 Kelvin.  Pressure   1.00000 Atm.
 Atom     1 has atomic number  6 and mass  12.00000

 Molecular mass:   254.12666 amu.
 Principal axes and moments of inertia in atomic units:
                           1         2         3
     Eigenvalues --  3644.476145482.919778378.89042
           X            0.99797   0.06371  -0.00074
           Y           -0.06369   0.99785   0.01515
           Z            0.00171  -0.01507   0.99988
 This molecule is an asymmetric top.
 Rotational symmetry number  1.
 Warning -- assumption of classical behavior for rotation
           may cause significant error
 Rotational temperatures (Kelvin)      0.02377     0.01580     0.01034
 Rotational constants (GHZ):           0.49520     0.32916     0.21539
 Zero-point vibrational energy     789507.6 (Joules/Mol)
                                  188.69684 (Kcal/Mol)
 Warning -- explicit consideration of  30 degrees of freedom as
           vibrations may cause significant error
 Vibrational temperatures:     37.61    56.32    74.80    91.12   150.40
          (Kelvin)            166.16   200.07   215.68   224.41   279.96
                              296.07   319.51   332.54   338.22   346.26
                              385.80   419.16   492.41   532.11   555.60
                              576.46   599.31   603.27   672.48   709.80
                              722.59   750.68   810.36   828.38   863.95
                              903.03   926.44  1001.02  1024.72  1098.04
                             1123.51  1155.67  1176.95  1250.44  1301.90
                             1311.60  1333.67  1340.77  1369.37  1379.36
                             1421.63  1459.96  1525.27  1578.39  1589.20
                             1600.71  1628.33  1669.56  1680.47  1684.28
                             1701.90  1750.70  1775.38  1827.63  1887.07
                             1933.02  1944.11  1990.09  2005.16  2023.93
                             2057.91  2061.93  2063.36  2079.19  2086.43
                             2115.79  2127.09  2150.47  2178.01  2183.23
                             2195.39  2196.35  2199.86  2204.69  2233.66
                             2315.30  2364.61  2398.50  2586.97  4320.26
                             4395.19  4406.16  4413.26  4434.04  4449.75
                             4468.65  4494.23  4498.46  4503.53  4510.25
                             4563.05  4581.20  4659.78  4687.26  5159.13
                             5211.09  5333.09

 Zero-point correction=                           0.300708 (Hartree/Particle)
 Thermal correction to Energy=                    0.319340
 Thermal correction to Enthalpy=                  0.320284
 Thermal correction to Gibbs Free Energy=         0.253592
 Sum of electronic and zero-point Energies=           -878.290493
 Sum of electronic and thermal Energies=              -878.271861
 Sum of electronic and thermal Enthalpies=            -878.270916
 Sum of electronic and thermal Free Energies=         -878.337608

                     E (Thermal)             CV                S
                      KCal/Mol        Cal/Mol-Kelvin    Cal/Mol-Kelvin
 Total                  200.389             70.129            140.364
 Electronic               0.000              0.000              0.000
 Translational            0.889              2.981             42.498
 Rotational               0.889              2.981             33.481
 Vibrational            198.611             64.168             64.385
 Vibration     1          0.593              1.985              6.103
 Vibration     2          0.594              1.981              5.302
 Vibration     3          0.596              1.977              4.740
 Vibration     4          0.597              1.972              4.351
 Vibration     5          0.605              1.946              3.368
 Vibration     6          0.608              1.937              3.175
 Vibration     7          0.615              1.914              2.817
 Vibration     8          0.618              1.903              2.673
 Vibration     9          0.620              1.896              2.598
 Vibration    10          0.635              1.847              2.184
 Vibration    11          0.640              1.832              2.081
 Vibration    12          0.648              1.807              1.942
 Vibration    13          0.653              1.793              1.870
 Vibration    14          0.655              1.787              1.840
 Vibration    15          0.658              1.778              1.798
 Vibration    16          0.673              1.732              1.608
 Vibration    17          0.687              1.690              1.466
 Vibration    18          0.721              1.591              1.202
 Vibration    19          0.742              1.534              1.080
 Vibration    20          0.755              1.500              1.015
 Vibration    21          0.766              1.469              0.960
 Vibration    22          0.780              1.434              0.904
 Vibration    23          0.782              1.428              0.894
 Vibration    24          0.825              1.322              0.745
 Vibration    25          0.849              1.265              0.675
 Vibration    26          0.858              1.245              0.653
 Vibration    27          0.877              1.202              0.606
 Vibration    28          0.919              1.111              0.517
 Vibration    29          0.932              1.084              0.493
 Vibration    30          0.959              1.031              0.449

                           ! Non-Optimized Parameters !
 Normal termination of Gaussian 16 at Fri Dec 11 22:27:08 2020.

 ----------------------------------------------------------------------
 # B3LYP/6-311++G(d,p) empiricaldispersion=gd3bj scf=xqc pop=npa geom=c
 heck
 ----------------------------------------------------------------------

 ---------------------------------------
 CID_143828195_JID_8508_Energie_neutraal
 ---------------------------------------
 Structure from the checkpoint file:  "JID_8508.chk"
 Charge =  0 Multiplicity = 1

 SCF Done:  E(RB3LYP) =  -878.852784102     A.U. after   16 cycles
 Normal termination of Gaussian 16 at Fri Dec 11 22:34:42 2020.

 ----------------------------------------------------------------------
 # B3LYP/6-311++G(d,p) empiricaldispersion=gd3bj scf=xqc pop=npa geom=c
 heck
 ----------------------------------------------------------------------

 -------------------------------------
 CID_143828195_JID_8508_Energie_kation
 -------------------------------------
 Structure from the checkpoint file:  "JID_8508.chk"
 Charge =  1 Multiplicity = 2

 SCF Done:  E(UB3LYP) =  -878.544776423     A.U. after   24 cycles
 Normal termination of Gaussian 16 at Fri Dec 11 22:50:38 2020.
 Gaussian 16:  ES64L-G16RevA.03 25-Dec-2016

 ----------------------------------------------------------------------
 # B3LYP/6-311++G(d,p) empiricaldispersion=gd3bj scf=xqc pop=npa geom=c
 heck
 ----------------------------------------------------------------------

 ------------------------------------
 CID_143828195_JID_8508_Energie_anion
 ------------------------------------
 Structure from the checkpoint file:  "JID_8508.chk"
 Charge = -1 Multiplicity = 2

                         Standard orientation:
 ---------------------------------------------------------------------
 Center     Atomic      Atomic             Coordinates (Angstroms)
 Number     Number       Type             X           Y           Z
 ---------------------------------------------------------------------
      1          6           0        2.670728    2.346025    1.224248
      2          6           0        2.200017    2.545314   -0.213456
      3          6           0        2.923533    1.684879   -1.245533
      4          8           0        0.752183    2.459187   -0.338293
      5          6           0        0.030982    1.364446   -0.054798
      6          7           0        0.598976    0.218997    0.332526
      7          6           0       -0.205426   -0.821130    0.607145
      8          6           0       -1.590054   -0.775586    0.496443
      9          6           0       -2.175207    0.429624    0.078835
     10          6           0       -1.361017    1.517095   -0.191999
     11          6           0       -3.661712    0.612405   -0.083102
     12          8           0       -4.179317    1.719781   -0.093235
     13          7           0       -4.392177   -0.542852   -0.196113
     14          8           0        0.381922   -1.947996    1.101052
     15          6           0        1.047341   -2.864376    0.187342
     16          6           0        0.034385   -3.583761   -0.694309
     17          6           0        2.139549   -2.165051   -0.624905
     18          8           0        3.005442   -1.404088    0.188095
     19          1           0        2.570535    1.309825    1.549979
     20          1           0        2.096548    2.983220    1.904300
     21          1           0        3.726363    2.629615    1.297349
     22          1           0        2.354326    3.595880   -0.478139
     23          1           0        2.942241    0.629176   -0.973472
     24          1           0        2.454007    1.801448   -2.227611
     25          1           0        3.961924    2.026669   -1.324702
     26          1           0       -2.170021   -1.643427    0.783678
     27          1           0       -1.784193    2.465522   -0.495915
     28          1           0       -3.951288   -1.403233   -0.485942
     29          1           0       -5.369010   -0.425792   -0.429677
     30          1           0        1.522672   -3.566939    0.876709
     31          1           0       -0.474392   -2.879902   -1.362593
     32          1           0        0.535065   -4.336796   -1.312970
     33          1           0       -0.719408   -4.087240   -0.081490
     34          1           0        2.745331   -2.930939   -1.121372
     35          1           0        1.679107   -1.547418   -1.412485
     36          1           0        2.432045   -0.707069    0.563031
 ---------------------------------------------------------------------

 SCF Done:  E(UB3LYP) =  -878.863294424     A.U. after   33 cycles
 SCF Done:  E(UB3LYP) =  -878.863294424     a.u. after    1 cycles

 The electronic state is 2-A.
 Alpha  occ. eigenvalues --  -19.02189 -19.01369 -19.00363 -18.93123 -14.19187
 Alpha  occ. eigenvalues --  -14.15556 -10.12772 -10.12150 -10.11877 -10.11331
 Alpha  occ. eigenvalues --  -10.10980 -10.10932 -10.06511 -10.06033 -10.05670
 Alpha  occ. eigenvalues --  -10.02637 -10.02146 -10.01150  -0.94703  -0.93938
 Alpha  occ. eigenvalues --   -0.90623  -0.88607  -0.79199  -0.76439  -0.68945
 Alpha  occ. eigenvalues --   -0.67585  -0.65935  -0.60222  -0.59271  -0.57685
 Alpha  occ. eigenvalues --   -0.53755  -0.51526  -0.49799  -0.46321  -0.43392
 Alpha  occ. eigenvalues --   -0.41230  -0.40796  -0.39553  -0.37972  -0.36467
 Alpha  occ. eigenvalues --   -0.35681  -0.34705  -0.34439  -0.33967  -0.32494
 Alpha  occ. eigenvalues --   -0.31606  -0.30639  -0.29958  -0.29639  -0.29274
 Alpha  occ. eigenvalues --   -0.28532  -0.27324  -0.26900  -0.26374  -0.25337
 Alpha  occ. eigenvalues --   -0.25166  -0.24063  -0.23518  -0.23101  -0.20862
 Alpha  occ. eigenvalues --   -0.19308  -0.17313  -0.15842  -0.14553  -0.14429
 Alpha  occ. eigenvalues --   -0.14072  -0.11043  -0.09182   0.04614
 Alpha virt. eigenvalues --    0.06844   0.07404   0.08257   0.09301   0.09843
 Alpha virt. eigenvalues --    0.10080   0.10559   0.10976   0.12108   0.12508
 Alpha virt. eigenvalues --    0.12711   0.13395   0.13682   0.13817   0.13926

  Beta  occ. eigenvalues --  -19.02158 -19.01370 -19.00361 -18.92836 -14.19126
  Beta  occ. eigenvalues --  -14.15175 -10.12774 -10.12135 -10.11836 -10.11270
  Beta  occ. eigenvalues --  -10.10933 -10.10781 -10.06490 -10.06027 -10.05666
  Beta  occ. eigenvalues --  -10.02626 -10.01763 -10.01007  -0.94613  -0.93897
  Beta  occ. eigenvalues --   -0.90613  -0.88097  -0.78717  -0.76193  -0.68890
  Beta  occ. eigenvalues --   -0.67536  -0.65299  -0.59947  -0.59260  -0.57655
  Beta  occ. eigenvalues --   -0.53426  -0.51389  -0.49240  -0.46242  -0.43129
  Beta  occ. eigenvalues --   -0.41194  -0.40721  -0.39471  -0.37810  -0.36368
  Beta  occ. eigenvalues --   -0.35523  -0.34662  -0.34286  -0.33845  -0.32394
  Beta  occ. eigenvalues --   -0.31535  -0.30607  -0.29800  -0.29309  -0.29141
  Beta  occ. eigenvalues --   -0.28249  -0.27076  -0.26217  -0.25988  -0.25014
  Beta  occ. eigenvalues --   -0.24777  -0.23860  -0.23428  -0.23003  -0.20779
  Beta  occ. eigenvalues --   -0.18904  -0.17053  -0.15816  -0.14093  -0.13168
  Beta  occ. eigenvalues --   -0.12473  -0.10591  -0.08183
  Beta virt. eigenvalues --    0.06837   0.07376   0.08275   0.09208   0.09748
  Beta virt. eigenvalues --    0.10031   0.10519   0.10753   0.10925   0.12077
  Beta virt. eigenvalues --    0.12588   0.12780   0.13342   0.13691   0.13769

 Mulliken charges and spin densities:
               1          2
     1  C   -0.395076  -0.012458
     2  C   -0.032692  -0.005618
     3  C   -0.414353   0.006439
     4  O   -0.077922   0.003118
     5  C   -0.690788   0.055173
     6  N   -0.072765   0.187082
     7  C   -0.764193   0.124559
     8  C    0.171163   0.027958
     9  C    0.690182   0.088498
    10  C   -0.192247   0.136673
    11  C   -0.093200   0.146143
    12  O   -0.423308   0.104851
    13  N   -0.377595   0.021592
    14  O   -0.090135  -0.004286
    15  C    0.219958   0.131261
    16  C   -0.401725  -0.308190
    17  C   -0.396387  -0.108518
    18  O   -0.211037   0.003739
    19  H    0.168622   0.009510
    20  H    0.142240  -0.001135
    21  H    0.110867   0.011760
    22  H    0.142055  -0.000432
    23  H    0.125364  -0.006190
    24  H    0.135904   0.002089
    25  H    0.120361   0.000772
    26  H    0.188422  -0.047266
    27  H    0.179862  -0.005319
    28  H    0.130016   0.077339
    29  H    0.267444   0.016379
    30  H    0.142612   0.046213
    31  H    0.108462   0.070428
    32  H   -0.013281   0.119696
    33  H    0.052215   0.110343
    34  H    0.143790  -0.010445
    35  H    0.140816   0.007869
    36  H    0.266347   0.000373
 Sum of Mulliken charges =  -1.00000   1.00000

 Dipole moment (field-independent basis, Debye):
    X=              5.7116    Y=             -2.8554    Z=             -1.6277  Tot=              6.5898
 Quadrupole moment (field-independent basis, Debye-Ang):
   XX=           -159.2901   YY=           -132.3757   ZZ=           -119.8907
   XY=             21.8238   XZ=             -0.9156   YZ=              3.7629

 Summary of Natural Population Analysis:

                                       Natural Population
                Natural  -----------------------------------------------
    Atom  No    Charge         Core      Valence    Rydberg      Total
 -----------------------------------------------------------------------
      C    1   -0.29839      0.99964     2.29436    0.00439     3.29839
      C    2    0.06987      0.99956     1.91922    0.01135     2.93013
      C    3   -0.30190      0.99963     2.29763    0.00464     3.30190
      O    4   -0.28360      0.99985     3.27342    0.01034     4.28360
      C    5    0.27867      0.99948     1.70590    0.01595     2.72133
      N    6   -0.26755      0.99960     2.75759    0.01036     3.76755
      C    7    0.26304      0.99944     1.71888    0.01864     2.73696
      C    8   -0.15325      0.99948     2.14465    0.00913     3.15325
      C    9    0.02328      0.99947     1.96528    0.01197     2.97672
      C   10   -0.09868      0.99949     2.09173    0.00746     3.09868
      C   11    0.35528      0.99967     1.62154    0.02351     2.64472
      O   12   -0.30226      0.99988     3.29672    0.00566     4.30226
      N   13   -0.40942      0.99971     2.90170    0.00801     3.90942
      O   14   -0.30086      0.99986     3.29137    0.00964     4.30086
      C   15    0.05526      0.99954     1.92897    0.01623     2.94474
      C   16   -0.30128      0.99964     2.29658    0.00506     3.30128
      C   17   -0.02466      0.99956     2.01343    0.01167     3.02466
      O   18   -0.38463      0.99990     3.37770    0.00704     4.38463
      H   19    0.10960      0.00000     0.38930    0.00110     0.39040
      H   20    0.10140      0.00000     0.39770    0.00090     0.39860
      H   21    0.09354      0.00000     0.40561    0.00085     0.40646
      H   22    0.08320      0.00000     0.41549    0.00130     0.41680
      H   23    0.11333      0.00000     0.38486    0.00181     0.38667
      H   24    0.10061      0.00000     0.39848    0.00091     0.39939
      H   25    0.09258      0.00000     0.40656    0.00086     0.40742
      H   26    0.09947      0.00000     0.39925    0.00129     0.40053
      H   27    0.11080      0.00000     0.38822    0.00098     0.38920
      H   28    0.18718      0.00000     0.31073    0.00210     0.31282
      H   29    0.18436      0.00000     0.31293    0.00271     0.31564
      H   30    0.08791      0.00000     0.41077    0.00132     0.41209
      H   31    0.10666      0.00000     0.39214    0.00120     0.39334
      H   32    0.09594      0.00000     0.40306    0.00100     0.40406
      H   33    0.10295      0.00000     0.39558    0.00147     0.39705
      H   34    0.08349      0.00000     0.41530    0.00122     0.41651
      H   35    0.08217      0.00000     0.41642    0.00141     0.41783
      H   36    0.24592      0.00000     0.24961    0.00447     0.25408
 =======================================================================
   * Total *    0.00000     17.99339    49.78866    0.21795    68.00000

 Normal termination of Gaussian 16 at Fri Dec 11 23:13:05 2020.
