 Gaussian 16, Revision A.03,

 -----------------------------------------------------------
 # opt freq B3LYP/6-31G(d) empiricaldispersion=gd3bj scf=xqc
 -----------------------------------------------------------

 ------------------------------
 CID_20512868_JID_3196_neutraal
 ------------------------------
 Symbolic Z-matrix:
 Charge =  0 Multiplicity = 1

 SCF Done:  E(RB3LYP) =  -1066.66472204     A.U. after   14 cycles
 SCF Done:  E(RB3LYP) =  -1066.66799746     A.U. after   13 cycles
 SCF Done:  E(RB3LYP) =  -1066.67041172     A.U. after   13 cycles
 SCF Done:  E(RB3LYP) =  -1066.67054920     A.U. after   13 cycles
 SCF Done:  E(RB3LYP) =  -1066.66900716     A.U. after   14 cycles
 SCF Done:  E(RB3LYP) =  -1066.67020987     A.U. after   12 cycles
 SCF Done:  E(RB3LYP) =  -1066.67222111     A.U. after   11 cycles
 SCF Done:  E(RB3LYP) =  -1066.67358921     A.U. after   12 cycles
 SCF Done:  E(RB3LYP) =  -1066.67444788     A.U. after   12 cycles
 SCF Done:  E(RB3LYP) =  -1066.67473658     A.U. after   11 cycles
 SCF Done:  E(RB3LYP) =  -1066.67510320     A.U. after   11 cycles
 SCF Done:  E(RB3LYP) =  -1066.67512058     A.U. after   10 cycles
 SCF Done:  E(RB3LYP) =  -1066.67513036     A.U. after   10 cycles
 SCF Done:  E(RB3LYP) =  -1066.67513177     A.U. after    8 cycles
 SCF Done:  E(RB3LYP) =  -1066.67513255     A.U. after    8 cycles
 SCF Done:  E(RB3LYP) =  -1066.67513275     A.U. after    8 cycles
 Optimization completed.
    -- Stationary point found.
 Normal termination of Gaussian 16 at Wed Dec  9 22:36:49 2020.

 --------------------------------------------------------------------
 #N Geom=AllCheck Guess=TCheck SCRF=Check GenChk RB3LYP/6-31G(d) Freq
 --------------------------------------------------------------------

 Structure from the checkpoint file:  "JID_3196.chk"
 ------------------------------
 CID_20512868_JID_3196_neutraal
 ------------------------------
 Charge =  0 Multiplicity = 1

 SCF Done:  E(RB3LYP) =  -1066.67513275     A.U. after    1 cycles

  Exact polarizability: 112.912  -1.615  98.343   2.761  -3.010  90.922
 Approx polarizability: 145.476   0.434 143.688   1.010  -3.873 145.542

                      1                      2                      3
                      A                      A                      A
 Frequencies --     33.0123                48.5708                71.5507
 Red. masses --      4.9972                 3.3234                 5.1292
 Frc consts  --      0.0032                 0.0046                 0.0155
 IR Inten    --      0.5947                 0.8222                 2.0563

                      4                      5                      6
                      A                      A                      A
 Frequencies --     89.0562               113.0377               139.7054
 Red. masses --      4.5103                 4.1317                 4.2098
 Frc consts  --      0.0211                 0.0311                 0.0484
 IR Inten    --      3.1066                 2.1155                 0.4439

                      7                      8                      9
                      A                      A                      A
 Frequencies --    183.9643               215.0472               229.0147
 Red. masses --      4.5121                 3.4059                 1.3924
 Frc consts  --      0.0900                 0.0928                 0.0430
 IR Inten    --      6.0421                11.0140                15.4174

                     10                     11                     12
                      A                      A                      A
 Frequencies --    232.0902               259.0969               269.9103
 Red. masses --      1.9774                 2.3212                 1.1313
 Frc consts  --      0.0628                 0.0918                 0.0486
 IR Inten    --     13.3351                14.1573                 2.7689

                     13                     14                     15
                      A                      A                      A
 Frequencies --    305.9717               323.0030               339.6149
 Red. masses --      1.1585                 3.4369                 2.2359
 Frc consts  --      0.0639                 0.2113                 0.1519
 IR Inten    --     64.2788                27.9383                42.5981

                     16                     17                     18
                      A                      A                      A
 Frequencies --    355.9201               378.4234               397.7745
 Red. masses --      3.5738                 2.9544                 3.3938
 Frc consts  --      0.2667                 0.2493                 0.3164
 IR Inten    --     18.1136                 5.6906                10.0380

                     19                     20                     21
                      A                      A                      A
 Frequencies --    428.3938               439.6322               461.7347
 Red. masses --      2.6512                 2.7554                 2.1166
 Frc consts  --      0.2867                 0.3138                 0.2659
 IR Inten    --      1.7549                 3.6756                 7.0697

                     22                     23                     24
                      A                      A                      A
 Frequencies --    469.7129               506.8089               518.4414
 Red. masses --      2.9550                 6.2601                 1.7035
 Frc consts  --      0.3841                 0.9474                 0.2698
 IR Inten    --     64.5160                 8.1297               100.0245

                     25                     26                     27
                      A                      A                      A
 Frequencies --    560.4850               677.9100               701.9914
 Red. masses --      4.0277                 3.4271                 5.4927
 Frc consts  --      0.7455                 0.9279                 1.5948
 IR Inten    --     78.1487                13.7428                42.2251

                     28                     29                     30
                      A                      A                      A
 Frequencies --    803.6994               827.7330               837.9149
 Red. masses --      8.9396                 3.4396                 2.9208
 Frc consts  --      3.4022                 1.3885                 1.2082
 IR Inten    --    125.9075                92.2406                 3.6834

                     31                     32                     33
                      A                      A                      A
 Frequencies --    907.1897               914.2739               963.3750
 Red. masses --      1.6427                 1.5461                 2.1456
 Frc consts  --      0.7965                 0.7614                 1.1733
 IR Inten    --      9.0855                 8.0590                20.1660

                     34                     35                     36
                      A                      A                      A
 Frequencies --    973.2639              1007.0059              1084.8134
 Red. masses --      1.7254                 2.4822                 1.7411
 Frc consts  --      0.9630                 1.4830                 1.2072
 IR Inten    --     11.9616                81.5932                53.3243

                     37                     38                     39
                      A                      A                      A
 Frequencies --   1096.0872              1104.6634              1122.1218
 Red. masses --      2.5220                 2.0797                 4.1961
 Frc consts  --      1.7852                 1.4952                 3.1130
 IR Inten    --    111.6197                45.5103               118.6904

                     40                     41                     42
                      A                      A                      A
 Frequencies --   1138.9557              1167.9070              1173.8338
 Red. masses --      2.6286                 1.9654                 2.0197
 Frc consts  --      2.0091                 1.5795                 1.6396
 IR Inten    --      8.8565                56.7358                38.4853

                     43                     44                     45
                      A                      A                      A
 Frequencies --   1184.5041              1202.0334              1291.4883
 Red. masses --      2.1533                 2.7895                 1.3719
 Frc consts  --      1.7800                 2.3747                 1.3482
 IR Inten    --     79.8273               136.9153                10.6926

                     46                     47                     48
                      A                      A                      A
 Frequencies --   1312.2679              1321.3125              1342.1432
 Red. masses --      1.3856                 1.2339                 2.8733
 Frc consts  --      1.4059                 1.2693                 3.0495
 IR Inten    --     55.0051                 3.5234               172.2336

                     49                     50                     51
                      A                      A                      A
 Frequencies --   1363.4495              1377.5440              1394.2880
 Red. masses --      1.5267                 1.2698                 1.2957
 Frc consts  --      1.6722                 1.4197                 1.4841
 IR Inten    --     21.6411                22.1013                10.4404

                     52                     53                     54
                      A                      A                      A
 Frequencies --   1419.1219              1426.6178              1435.6896
 Red. masses --      1.3311                 1.3051                 1.1913
 Frc consts  --      1.5794                 1.5650                 1.4468
 IR Inten    --      4.5596                10.0648                27.0497

                     55                     56                     57
                      A                      A                      A
 Frequencies --   1446.1497              1451.5153              1469.4746
 Red. masses --      1.2320                 1.3109                 1.1913
 Frc consts  --      1.5181                 1.6272                 1.5156
 IR Inten    --      8.7565                28.1132                64.8379

                     58                     59                     60
                      A                      A                      A
 Frequencies --   1501.9997              1519.1039              1524.8831
 Red. masses --      1.0764                 1.0701                 1.0719
 Frc consts  --      1.4307                 1.4549                 1.4685
 IR Inten    --      1.7501                 5.1613                 2.6859

                     61                     62                     63
                      A                      A                      A
 Frequencies --   1527.7967              1536.6271              1542.2734
 Red. masses --      1.0696                 1.0482                 1.0512
 Frc consts  --      1.4709                 1.4582                 1.4732
 IR Inten    --     11.7214                11.8924                 5.3216

                     64                     65                     66
                      A                      A                      A
 Frequencies --   3046.6412              3049.1485              3053.2798
 Red. masses --      1.0700                 1.0433                 1.0774
 Frc consts  --      5.8514                 5.7148                 5.9178
 IR Inten    --      9.9995                13.7738                28.6036

                     67                     68                     69
                      A                      A                      A
 Frequencies --   3065.5729              3075.5726              3089.1697
 Red. masses --      1.0447                 1.0832                 1.0655
 Frc consts  --      5.7846                 6.0370                 5.9910
 IR Inten    --     27.6342                27.5324                16.7989

                     70                     71                     72
                      A                      A                      A
 Frequencies --   3122.7098              3125.3563              3129.8431
 Red. masses --      1.0968                 1.0978                 1.1014
 Frc consts  --      6.3017                 6.3178                 6.3566
 IR Inten    --     24.8693                14.6256                23.8730

                     73                     74                     75
                      A                      A                      A
 Frequencies --   3151.4042              3155.9467              3165.5846
 Red. masses --      1.1017                 1.1001                 1.0989
 Frc consts  --      6.4467                 6.4558                 6.4884
 IR Inten    --      5.7519                16.4659                13.5778

                     76                     77                     78
                      A                      A                      A
 Frequencies --   3685.4822              3696.4747              3723.4983
 Red. masses --      1.0656                 1.0658                 1.0660
 Frc consts  --      8.5276                 8.5805                 8.7075
 IR Inten    --     86.8298               126.0741                11.3660

 - Thermochemistry -
 -------------------
 Temperature   298.150 Kelvin.  Pressure   1.00000 Atm.
 Atom     1 has atomic number  6 and mass  12.00000

 Molecular mass:   213.06709 amu.
 Principal axes and moments of inertia in atomic units:
                           1         2         3
     Eigenvalues --  1782.794673484.849934230.88153
           X            0.99970  -0.02284   0.00902
           Y            0.02310   0.99929  -0.02980
           Z           -0.00833   0.03000   0.99952
 This molecule is an asymmetric top.
 Rotational symmetry number  1.
 Warning -- assumption of classical behavior for rotation
           may cause significant error
 Rotational temperatures (Kelvin)      0.04858     0.02485     0.02047
 Rotational constants (GHZ):           1.01231     0.51788     0.42656
 Zero-point vibrational energy     608891.3 (Joules/Mol)
                                  145.52852 (Kcal/Mol)
 Warning -- explicit consideration of  25 degrees of freedom as
           vibrations may cause significant error
 Vibrational temperatures:     47.50    69.88   102.95   128.13   162.64
          (Kelvin)            201.00   264.68   309.40   329.50   333.93
                              372.78   388.34   440.23   464.73   488.63
                              512.09   544.47   572.31   616.36   632.53
                              664.33   675.81   729.18   745.92   806.41
                              975.36  1010.01  1156.34  1190.92  1205.57
                             1305.24  1315.44  1386.08  1400.31  1448.86
                             1560.80  1577.03  1589.36  1614.48  1638.70
                             1680.36  1688.89  1704.24  1729.46  1858.16
                             1888.06  1901.07  1931.04  1961.70  1981.98
                             2006.07  2041.80  2052.58  2065.64  2080.69
                             2088.41  2114.25  2161.04  2185.65  2193.97
                             2198.16  2210.86  2218.99  4383.44  4387.04
                             4392.99  4410.68  4425.06  4444.63  4492.88
                             4496.69  4503.15  4534.17  4540.70  4554.57
                             5302.59  5318.40  5357.28

 Zero-point correction=                           0.231914 (Hartree/Particle)
 Thermal correction to Energy=                    0.247300
 Thermal correction to Enthalpy=                  0.248244
 Thermal correction to Gibbs Free Energy=         0.189406
 Sum of electronic and zero-point Energies=          -1066.443218
 Sum of electronic and thermal Energies=             -1066.427833
 Sum of electronic and thermal Enthalpies=           -1066.426888
 Sum of electronic and thermal Free Energies=        -1066.485727

                     E (Thermal)             CV                S
                      KCal/Mol        Cal/Mol-Kelvin    Cal/Mol-Kelvin
 Total                  155.183             56.695            123.836
 Electronic               0.000              0.000              0.000
 Translational            0.889              2.981             41.973
 Rotational               0.889              2.981             31.642
 Vibrational            153.406             50.734             50.221
 Vibration     1          0.594              1.983              5.640
 Vibration     2          0.595              1.978              4.875
 Vibration     3          0.598              1.968              4.110
 Vibration     4          0.602              1.957              3.681
 Vibration     5          0.607              1.939              3.216
 Vibration     6          0.615              1.914              2.808
 Vibration     7          0.631              1.862              2.288
 Vibration     8          0.645              1.818              2.000
 Vibration     9          0.652              1.797              1.887
 Vibration    10          0.653              1.792              1.863
 Vibration    11          0.668              1.747              1.668
 Vibration    12          0.674              1.729              1.597
 Vibration    13          0.696              1.662              1.384
 Vibration    14          0.708              1.629              1.295
 Vibration    15          0.720              1.596              1.214
 Vibration    16          0.731              1.563              1.140
 Vibration    17          0.749              1.516              1.045
 Vibration    18          0.764              1.475              0.971
 Vibration    19          0.790              1.408              0.864
 Vibration    20          0.800              1.384              0.828
 Vibration    21          0.819              1.335              0.761
 Vibration    22          0.827              1.317              0.738
 Vibration    23          0.862              1.235              0.641
 Vibration    24          0.873              1.209              0.614
 Vibration    25          0.916              1.117              0.523

 Optimization completed.
    -- Stationary point found.
 Normal termination of Gaussian 16 at Wed Dec  9 22:45:09 2020.

 ----------------------------------------------------------------------
 # B3LYP/6-311++G(d,p) empiricaldispersion=gd3bj scf=xqc pop=npa geom=c
 heck
 ----------------------------------------------------------------------

 --------------------------------------
 CID_20512868_JID_3196_Energie_neutraal
 --------------------------------------
 Structure from the checkpoint file:  "JID_3196.chk"
 Charge =  0 Multiplicity = 1

 SCF Done:  E(RB3LYP) =  -1066.92663785     A.U. after   14 cycles
 Normal termination of Gaussian 16 at Wed Dec  9 22:48:56 2020.

 ----------------------------------------------------------------------
 # B3LYP/6-311++G(d,p) empiricaldispersion=gd3bj scf=xqc pop=npa geom=c
 heck
 ----------------------------------------------------------------------

 ------------------------------------
 CID_20512868_JID_3196_Energie_kation
 ------------------------------------
 Structure from the checkpoint file:  "JID_3196.chk"
 Charge =  1 Multiplicity = 2

 SCF Done:  E(UB3LYP) =  -1066.59342694     A.U. after   23 cycles
 Normal termination of Gaussian 16 at Wed Dec  9 22:57:44 2020.
 Gaussian 16:  ES64L-G16RevA.03 25-Dec-2016

 ----------------------------------------------------------------------
 # B3LYP/6-311++G(d,p) empiricaldispersion=gd3bj scf=xqc pop=npa geom=c
 heck
 ----------------------------------------------------------------------

 -----------------------------------
 CID_20512868_JID_3196_Energie_anion
 -----------------------------------
 Structure from the checkpoint file:  "JID_3196.chk"
 Charge = -1 Multiplicity = 2

                         Standard orientation:
 ---------------------------------------------------------------------
 Center     Atomic      Atomic             Coordinates (Angstroms)
 Number     Number       Type             X           Y           Z
 ---------------------------------------------------------------------
      1          6           0        3.019463   -0.724644    1.128751
      2          6           0        2.154357   -1.525966    0.149494
      3          6           0        0.620561   -1.393301    0.368380
      4          7           0       -0.046825   -0.323239   -0.409038
      5          6           0       -1.421981   -0.621101   -0.853708
      6          6           0       -2.463598   -0.894838    0.247661
      7          6           0       -2.768407    0.305023    1.136867
      8          8           0       -3.639725   -1.398754   -0.387136
      9         16           0        0.439483    1.224901   -0.038255
     10          8           0        0.411270    1.479086    1.395518
     11          8           0        1.666216    1.525550   -0.787399
     12          8           0       -0.744047    2.109127   -0.741921
     13          8           0        2.507193   -1.307333   -1.202074
     14          1           0        2.924828    0.353804    0.988055
     15          1           0        4.068582   -0.993539    0.972613
     16          1           0        2.751237   -0.958089    2.165379
     17          1           0        2.367073   -2.586903    0.329686
     18          1           0        0.153445   -2.307920   -0.003112
     19          1           0        0.393068   -1.307888    1.438871
     20          1           0       -1.765228    0.195420   -1.490346
     21          1           0       -1.346131   -1.515457   -1.479712
     22          1           0       -2.110621   -1.725377    0.868976
     23          1           0       -3.110782    1.157342    0.535654
     24          1           0       -3.556909    0.041874    1.848422
     25          1           0       -1.888125    0.631466    1.697075
     26          1           0       -4.092564   -0.643003   -0.795381
     27          1           0       -0.327690    2.546034   -1.509270
     28          1           0        2.386241   -0.355960   -1.372155
 ---------------------------------------------------------------------

 SCF Done:  E(UB3LYP) =  -1066.92128246     A.U. after   26 cycles

 The electronic state is 2-A.
 Alpha  occ. eigenvalues --  -89.00008 -19.07351 -19.03196 -19.03171 -19.02701
 Alpha  occ. eigenvalues --  -19.02139 -14.25776 -10.13833 -10.12899 -10.12474
 Alpha  occ. eigenvalues --  -10.11136 -10.06826 -10.05859  -8.05869  -6.02253
 Alpha  occ. eigenvalues --   -6.02039  -6.02014  -1.06292  -0.94620  -0.93144
 Alpha  occ. eigenvalues --   -0.93026  -0.92362  -0.85153  -0.68688  -0.66955
 Alpha  occ. eigenvalues --   -0.62196  -0.61180  -0.54894  -0.52209  -0.50020
 Alpha  occ. eigenvalues --   -0.45767  -0.43545  -0.40822  -0.40320  -0.38566
 Alpha  occ. eigenvalues --   -0.38285  -0.36751  -0.36247  -0.35580  -0.34509
 Alpha  occ. eigenvalues --   -0.33571  -0.32936  -0.30862  -0.28656  -0.28089
 Alpha  occ. eigenvalues --   -0.27858  -0.27413  -0.26605  -0.25812  -0.25116
 Alpha  occ. eigenvalues --   -0.24307  -0.23222  -0.22569  -0.22059  -0.19537
 Alpha  occ. eigenvalues --   -0.18433  -0.15271   0.04405
 Alpha virt. eigenvalues --    0.06292   0.07397   0.08542   0.08702   0.09912
 Alpha virt. eigenvalues --    0.10165   0.11180   0.11880   0.12121   0.12363
 Alpha virt. eigenvalues --    0.12716   0.13731   0.13833   0.14477   0.15138

  Beta  occ. eigenvalues --  -88.99985 -19.07215 -19.03156 -19.03136 -19.02666
  Beta  occ. eigenvalues --  -19.02131 -14.25750 -10.13828 -10.12895 -10.12466
  Beta  occ. eigenvalues --  -10.11104 -10.06814 -10.05827  -8.05841  -6.02212
  Beta  occ. eigenvalues --   -6.02021  -6.01994  -1.06148  -0.94358  -0.93108
  Beta  occ. eigenvalues --   -0.92957  -0.92280  -0.85093  -0.68657  -0.66901
  Beta  occ. eigenvalues --   -0.62124  -0.61124  -0.54788  -0.52144  -0.49900
  Beta  occ. eigenvalues --   -0.45705  -0.43485  -0.40773  -0.40263  -0.38515
  Beta  occ. eigenvalues --   -0.38248  -0.36718  -0.36198  -0.35550  -0.34423
  Beta  occ. eigenvalues --   -0.33547  -0.32891  -0.30812  -0.28619  -0.28002
  Beta  occ. eigenvalues --   -0.27818  -0.27375  -0.26542  -0.25767  -0.25020
  Beta  occ. eigenvalues --   -0.24237  -0.23185  -0.22494  -0.21985  -0.19503
  Beta  occ. eigenvalues --   -0.18420  -0.15241
  Beta virt. eigenvalues --    0.06317   0.07723   0.08196   0.08816   0.09488
  Beta virt. eigenvalues --    0.10069   0.10353   0.11342   0.12069   0.12333
  Beta virt. eigenvalues --    0.12760   0.13157   0.13753   0.14185   0.14825

 Mulliken charges and spin densities:
               1          2
     1  C   -0.037973  -0.448627
     2  C   -0.423808   0.074806
     3  C   -0.184207  -0.191756
     4  N   -0.384371   0.211523
     5  C    0.797085  -1.181657
     6  C   -0.838476   0.749763
     7  C    0.401517  -0.977166
     8  O   -0.242187   0.021333
     9  S    1.014080  -0.820125
    10  O   -0.089237  -0.003633
    11  O   -0.151079   0.009347
    12  O   -0.122793  -0.078860
    13  O   -0.157240   0.004523
    14  H    0.208815   0.007264
    15  H    0.092835   0.066509
    16  H   -0.032120   0.156204
    17  H    0.006406   0.155516
    18  H    0.104227   0.078492
    19  H    0.155291   0.050778
    20  H   -0.499882   0.752941
    21  H    0.059626   0.144786
    22  H    0.037514   0.138496
    23  H   -0.069803   0.266662
    24  H   -0.169258   0.319181
    25  H    0.106889   0.055868
    26  H   -0.054785   0.316052
    27  H   -0.716590   1.044176
    28  H    0.189523   0.077603
 Sum of Mulliken charges =  -1.00000   1.00000

 Dipole moment (field-independent basis, Debye):
    X=              3.8074    Y=             -4.8795    Z=              4.3960  Tot=              7.5915
 Quadrupole moment (field-independent basis, Debye-Ang):
   XX=           -143.3947   YY=           -127.4779   ZZ=           -122.8409
   XY=              2.3310   XZ=             -3.8358   YZ=              5.3093

 Summary of Natural Population Analysis:

                                       Natural Population
                Natural  -----------------------------------------------
    Atom  No    Charge         Core      Valence    Rydberg      Total
 -----------------------------------------------------------------------
      C    1   -0.30284      0.99964     2.29787    0.00533     3.30284
      C    2    0.05692      0.99959     1.92930    0.01420     2.94308
      C    3   -0.09770      0.99958     2.08720    0.01092     3.09770
      N    4   -0.37494      0.99971     2.86052    0.01471     3.87494
      C    5   -0.09492      0.99957     2.08057    0.01479     3.09492
      C    6    0.05544      0.99958     1.93255    0.01244     2.94456
      C    7   -0.30863      0.99964     2.30251    0.00648     3.30863
      O    8   -0.37101      0.99990     3.36457    0.00654     4.37101
      S    9    1.20318      4.99931     1.69167    0.10584     6.79682
      O   10   -0.44507      0.99990     3.43976    0.00541     4.44507
      O   11   -0.46668      0.99990     3.46144    0.00535     4.46668
      O   12   -0.42918      0.99991     3.42154    0.00772     4.42918
      O   13   -0.37629      0.99989     3.36917    0.00722     4.37629
      H   14    0.10967      0.00000     0.38907    0.00126     0.39033
      H   15    0.09977      0.00000     0.39923    0.00100     0.40023
      H   16    0.09867      0.00000     0.40027    0.00106     0.40133
      H   17    0.08482      0.00000     0.41393    0.00125     0.41518
      H   18    0.10342      0.00000     0.39518    0.00140     0.39658
      H   19    0.09812      0.00000     0.40052    0.00136     0.40188
      H   20    0.11723      0.00000     0.37934    0.00343     0.38277
      H   21    0.10241      0.00000     0.39622    0.00138     0.39759
      H   22    0.08076      0.00000     0.41713    0.00211     0.41924
      H   23    0.10569      0.00000     0.39267    0.00164     0.39431
      H   24    0.10104      0.00000     0.39803    0.00093     0.39896
      H   25    0.11233      0.00000     0.38651    0.00116     0.38767
      H   26    0.23090      0.00000     0.26445    0.00465     0.26910
      H   27    0.26569      0.00000     0.19489    0.03942     0.23431
      H   28    0.24122      0.00000     0.25565    0.00313     0.25878
 =======================================================================
   * Total *   -0.00000     16.99611    39.72177    0.28212    57.00000

 Normal termination of Gaussian 16 at Wed Dec  9 23:07:21 2020.
