 Gaussian 16, Revision A.03,

 -----------------------------------------------------------
 # opt freq B3LYP/6-31G(d) empiricaldispersion=gd3bj scf=xqc
 -----------------------------------------------------------

 -------------------------------
 CID_145190634_JID_2481_neutraal
 -------------------------------
 Symbolic Z-matrix:
 Charge =  0 Multiplicity = 1

 SCF Done:  E(RB3LYP) =  -542.392707077     A.U. after   15 cycles
 SCF Done:  E(RB3LYP) =  -542.399656997     A.U. after   12 cycles
 SCF Done:  E(RB3LYP) =  -542.400321294     A.U. after   11 cycles
 SCF Done:  E(RB3LYP) =  -542.400591079     A.U. after   11 cycles
 SCF Done:  E(RB3LYP) =  -542.400751985     A.U. after   12 cycles
 SCF Done:  E(RB3LYP) =  -542.401307965     A.U. after   11 cycles
 SCF Done:  E(RB3LYP) =  -542.401706842     A.U. after   14 cycles
 SCF Done:  E(RB3LYP) =  -542.401866430     A.U. after   12 cycles
 SCF Done:  E(RB3LYP) =  -542.402279254     A.U. after   11 cycles
 SCF Done:  E(RB3LYP) =  -542.402462709     A.U. after   12 cycles
 SCF Done:  E(RB3LYP) =  -542.404476336     A.U. after    7 cycles
 SCF Done:  E(RB3LYP) =  -542.404476447     A.U. after    7 cycles
 SCF Done:  E(RB3LYP) =  -542.404476530     A.U. after    7 cycles
 SCF Done:  E(RB3LYP) =  -542.404476655     A.U. after    7 cycles
 SCF Done:  E(RB3LYP) =  -542.404476770     A.U. after    7 cycles
 SCF Done:  E(RB3LYP) =  -542.404476807     A.U. after    6 cycles
 Optimization completed.
    -- Stationary point found.
 Normal termination of Gaussian 16 at Wed Dec  9 17:57:09 2020.

 --------------------------------------------------------------------
 #N Geom=AllCheck Guess=TCheck SCRF=Check GenChk RB3LYP/6-31G(d) Freq
 --------------------------------------------------------------------

 Structure from the checkpoint file:  "JID_2481.chk"
 -------------------------------
 CID_145190634_JID_2481_neutraal
 -------------------------------
 Charge =  0 Multiplicity = 1

 SCF Done:  E(RB3LYP) =  -542.404476807     A.U. after    1 cycles

  Exact polarizability: 108.925 -11.197 104.677   3.847   1.173 111.922
 Approx polarizability: 144.438 -17.760 144.875   7.945   1.115 172.419

                      1                      2                      3
                      A                      A                      A
 Frequencies --     15.3606                31.3403                36.5092
 Red. masses --      2.4460                 4.4729                 2.5192
 Frc consts  --      0.0003                 0.0026                 0.0020
 IR Inten    --      0.6826                 1.2167                 0.1586

                      4                      5                      6
                      A                      A                      A
 Frequencies --     50.0003                59.1364                91.6041
 Red. masses --      3.0814                 2.9987                 3.1645
 Frc consts  --      0.0045                 0.0062                 0.0156
 IR Inten    --      0.0374                 0.7929                 0.1158

                      7                      8                      9
                      A                      A                      A
 Frequencies --     97.8432               138.0336               152.3277
 Red. masses --      1.7839                 3.3372                 1.0625
 Frc consts  --      0.0101                 0.0375                 0.0145
 IR Inten    --      0.2816                 0.7878                 0.2089

                     10                     11                     12
                      A                      A                      A
 Frequencies --    201.8400               217.1898               239.0203
 Red. masses --      2.5674                 3.3614                 1.0561
 Frc consts  --      0.0616                 0.0934                 0.0355
 IR Inten    --      3.5888                 1.0946                 0.0720

                     13                     14                     15
                      A                      A                      A
 Frequencies --    288.6868               293.9490               308.1538
 Red. masses --      1.1392                 1.6274                 2.7232
 Frc consts  --      0.0559                 0.0828                 0.1524
 IR Inten    --      0.0577                 5.0500                 0.9013

                     16                     17                     18
                      A                      A                      A
 Frequencies --    348.4528               349.3793               373.9952
 Red. masses --      1.5179                 3.5101                 2.0600
 Frc consts  --      0.1086                 0.2524                 0.1698
 IR Inten    --      1.7139                 1.3051                 0.1729

                     19                     20                     21
                      A                      A                      A
 Frequencies --    520.2055               542.6429               588.2456
 Red. masses --      2.4015                 4.7753                 3.7074
 Frc consts  --      0.3829                 0.8285                 0.7559
 IR Inten    --      0.6901                 2.5965                 6.4932

                     22                     23                     24
                      A                      A                      A
 Frequencies --    595.3084               649.1324               756.0487
 Red. masses --      4.8872                 3.7880                 1.0841
 Frc consts  --      1.0205                 0.9404                 0.3651
 IR Inten    --      7.0308                 1.9786                 6.6528

                     25                     26                     27
                      A                      A                      A
 Frequencies --    770.4591               788.4929               862.4813
 Red. masses --      4.5178                 1.1849                 3.8201
 Frc consts  --      1.5801                 0.4340                 1.6743
 IR Inten    --      3.1786                 1.9419                14.2363

                     28                     29                     30
                      A                      A                      A
 Frequencies --    885.5079               921.1397               944.7301
 Red. masses --      2.5539                 1.1013                 1.1947
 Frc consts  --      1.1799                 0.5506                 0.6282
 IR Inten    --      0.7449                 0.1335                 1.9064

                     31                     32                     33
                      A                      A                      A
 Frequencies --    962.0562               983.1378              1005.7880
 Red. masses --      2.0615                 2.9033                 2.1231
 Frc consts  --      1.1242                 1.6534                 1.2654
 IR Inten    --      3.8633                84.2681                33.1776

                     34                     35                     36
                      A                      A                      A
 Frequencies --   1061.5947              1071.2165              1083.5922
 Red. masses --      2.2007                 2.3997                 1.4958
 Frc consts  --      1.4613                 1.6224                 1.0348
 IR Inten    --      4.6669                 0.3856                 2.5845

                     37                     38                     39
                      A                      A                      A
 Frequencies --   1101.5447              1118.6348              1172.4576
 Red. masses --      2.6904                 1.4777                 2.9873
 Frc consts  --      1.9234                 1.0894                 2.4195
 IR Inten    --     96.9261                 3.1059                33.6660

                     40                     41                     42
                      A                      A                      A
 Frequencies --   1180.3570              1193.0863              1216.0211
 Red. masses --      1.2705                 1.7669                 2.2377
 Frc consts  --      1.0429                 1.4818                 1.9496
 IR Inten    --      3.3147                 1.4120                38.4182

                     43                     44                     45
                      A                      A                      A
 Frequencies --   1229.5651              1256.6259              1321.0503
 Red. masses --      1.6617                 4.3214                 1.1430
 Frc consts  --      1.4802                 4.0206                 1.1752
 IR Inten    --      0.9554                79.9960                 0.7210

                     46                     47                     48
                      A                      A                      A
 Frequencies --   1329.1753              1336.1930              1384.1198
 Red. masses --      1.1474                 2.0361                 1.4190
 Frc consts  --      1.1944                 2.1418                 1.6017
 IR Inten    --      1.9229                19.0127                 3.3618

                     49                     50                     51
                      A                      A                      A
 Frequencies --   1417.2719              1433.8549              1439.3141
 Red. masses --      1.7916                 1.2860                 1.2867
 Frc consts  --      2.1203                 1.5578                 1.5705
 IR Inten    --     10.7869                 2.9613                 0.7901

                     52                     53                     54
                      A                      A                      A
 Frequencies --   1449.1694              1450.3365              1471.3532
 Red. masses --      1.3370                 1.2367                 1.0911
 Frc consts  --      1.6543                 1.5327                 1.3917
 IR Inten    --     10.4055                 5.2181                 5.2771

                     55                     56                     57
                      A                      A                      A
 Frequencies --   1503.6940              1510.0987              1513.4446
 Red. masses --      1.0416                 1.0739                 1.0581
 Frc consts  --      1.3876                 1.4428                 1.4280
 IR Inten    --      6.4833                 1.5772                 3.6862

                     58                     59                     60
                      A                      A                      A
 Frequencies --   1520.3745              1521.6154              1527.3249
 Red. masses --      1.0461                 1.0499                 1.0506
 Frc consts  --      1.4248                 1.4322                 1.4440
 IR Inten    --      1.5593                 0.6198                 0.4060

                     61                     62                     63
                      A                      A                      A
 Frequencies --   1534.1627              1538.6827              1541.8650
 Red. masses --      1.0426                 1.0429                 1.0729
 Frc consts  --      1.4458                 1.4548                 1.5029
 IR Inten    --      8.3647                11.5006                 5.0263

                     64                     65                     66
                      A                      A                      A
 Frequencies --   1545.5108              1770.4884              1903.7063
 Red. masses --      1.0583                 7.9570                12.9132
 Frc consts  --      1.4894                14.6956                27.5729
 IR Inten    --      4.8136                17.5689               399.0997

                     67                     68                     69
                      A                      A                      A
 Frequencies --   3008.5891              3027.6446              3038.7557
 Red. masses --      1.0609                 1.1001                 1.0358
 Frc consts  --      5.6578                 5.9415                 5.6355
 IR Inten    --     32.0405                26.2482                26.1553

                     70                     71                     72
                      A                      A                      A
 Frequencies --   3045.8373              3047.3259              3050.6646
 Red. masses --      1.0398                 1.0606                 1.0607
 Frc consts  --      5.6837                 5.8030                 5.8163
 IR Inten    --      5.9495                26.9269                16.2092

                     73                     74                     75
                      A                      A                      A
 Frequencies --   3056.6652              3058.5517              3077.3259
 Red. masses --      1.0364                 1.0417                 1.0970
 Frc consts  --      5.7050                 5.7415                 6.1207
 IR Inten    --     12.9444                26.9488                 5.9490

                     76                     77                     78
                      A                      A                      A
 Frequencies --   3080.6896              3100.9843              3105.6740
 Red. masses --      1.1002                 1.1021                 1.1003
 Frc consts  --      6.1522                 6.2441                 6.2527
 IR Inten    --      6.5425                 4.5957                25.2771

                     79                     80                     81
                      A                      A                      A
 Frequencies --   3110.0976              3117.0416              3118.6409
 Red. masses --      1.1019                 1.1026                 1.1015
 Frc consts  --      6.2798                 6.3117                 6.3121
 IR Inten    --     33.1012               131.4413                40.5032

                     82                     83                     84
                      A                      A                      A
 Frequencies --   3123.9808              3128.5173              3202.4733
 Red. masses --      1.1023                 1.1031                 1.0945
 Frc consts  --      6.3384                 6.3611                 6.6133
 IR Inten    --     32.6527                25.9203                 6.4529

 - Thermochemistry -
 -------------------
 Temperature   298.150 Kelvin.  Pressure   1.00000 Atm.
 Atom     1 has atomic number  6 and mass  12.00000

 Molecular mass:   170.13068 amu.
 Principal axes and moments of inertia in atomic units:
                           1         2         3
     Eigenvalues --  1910.498442921.609793494.33975
           X            0.99891   0.04669   0.00297
           Y           -0.04668   0.99890  -0.00398
           Z           -0.00315   0.00383   0.99999
 This molecule is an asymmetric top.
 Rotational symmetry number  1.
 Warning -- assumption of classical behavior for rotation
           may cause significant error
 Rotational temperatures (Kelvin)      0.04534     0.02965     0.02479
 Rotational constants (GHZ):           0.94464     0.61772     0.51648
 Zero-point vibrational energy     695121.0 (Joules/Mol)
                                  166.13791 (Kcal/Mol)
 Warning -- explicit consideration of  22 degrees of freedom as
           vibrations may cause significant error
 Vibrational temperatures:     22.10    45.09    52.53    71.94    85.08
          (Kelvin)            131.80   140.77   198.60   219.17   290.40
                              312.49   343.90   415.36   422.93   443.36
                              501.35   502.68   538.10   748.46   780.74
                              846.35   856.52   933.96  1087.79  1108.52
                             1134.47  1240.92  1274.05  1325.31  1359.26
                             1384.18  1414.52  1447.10  1527.40  1541.24
                             1559.05  1584.88  1609.47  1686.90  1698.27
                             1716.59  1749.58  1769.07  1808.00  1900.70
                             1912.39  1922.48  1991.44  2039.14  2063.00
                             2070.85  2085.03  2086.71  2116.95  2163.48
                             2172.70  2177.51  2187.48  2189.27  2197.48
                             2207.32  2213.82  2218.40  2223.65  2547.34
                             2739.01  4328.69  4356.11  4372.09  4382.28
                             4384.42  4389.23  4397.86  4400.57  4427.59
                             4432.43  4461.62  4468.37  4474.74  4484.73
                             4487.03  4494.71  4501.24  4607.64

 Zero-point correction=                           0.264758 (Hartree/Particle)
 Thermal correction to Energy=                    0.280422
 Thermal correction to Enthalpy=                  0.281366
 Thermal correction to Gibbs Free Energy=         0.218937
 Sum of electronic and zero-point Energies=           -542.139719
 Sum of electronic and thermal Energies=              -542.124055
 Sum of electronic and thermal Enthalpies=            -542.123111
 Sum of electronic and thermal Free Energies=         -542.185540

                     E (Thermal)             CV                S
                      KCal/Mol        Cal/Mol-Kelvin    Cal/Mol-Kelvin
 Total                  175.967             53.854            131.393
 Electronic               0.000              0.000              0.000
 Translational            0.889              2.981             41.302
 Rotational               0.889              2.981             31.345
 Vibrational            174.190             47.893             58.745
 Vibration     1          0.593              1.986              7.158
 Vibration     2          0.594              1.983              5.743
 Vibration     3          0.594              1.982              5.440
 Vibration     4          0.595              1.978              4.817
 Vibration     5          0.597              1.974              4.486
 Vibration     6          0.602              1.955              3.626
 Vibration     7          0.603              1.951              3.497
 Vibration     8          0.614              1.915              2.831
 Vibration     9          0.619              1.900              2.643
 Vibration    10          0.639              1.837              2.116
 Vibration    11          0.646              1.815              1.982
 Vibration    12          0.657              1.781              1.810
 Vibration    13          0.685              1.695              1.482
 Vibration    14          0.689              1.685              1.451
 Vibration    15          0.698              1.658              1.372
 Vibration    16          0.726              1.578              1.173
 Vibration    17          0.727              1.577              1.169
 Vibration    18          0.745              1.525              1.063
 Vibration    19          0.875              1.205              0.609
 Vibration    20          0.898              1.156              0.560
 Vibration    21          0.945              1.057              0.470
 Vibration    22          0.953              1.042              0.458

                           ! Non-Optimized Parameters !
 Normal termination of Gaussian 16 at Wed Dec  9 18:05:05 2020.

 ----------------------------------------------------------------------
 # B3LYP/6-311++G(d,p) empiricaldispersion=gd3bj scf=xqc pop=npa geom=c
 heck
 ----------------------------------------------------------------------

 ---------------------------------------
 CID_145190634_JID_2481_Energie_neutraal
 ---------------------------------------
 Structure from the checkpoint file:  "JID_2481.chk"
 Charge =  0 Multiplicity = 1

 SCF Done:  E(RB3LYP) =  -542.561938929     A.U. after   14 cycles
 Normal termination of Gaussian 16 at Wed Dec  9 18:08:37 2020.

 ----------------------------------------------------------------------
 # B3LYP/6-311++G(d,p) empiricaldispersion=gd3bj scf=xqc pop=npa geom=c
 heck
 ----------------------------------------------------------------------

 -------------------------------------
 CID_145190634_JID_2481_Energie_kation
 -------------------------------------
 Structure from the checkpoint file:  "JID_2481.chk"
 Charge =  1 Multiplicity = 2

 SCF Done:  E(UB3LYP) =  -542.247335241     A.U. after   20 cycles
 Normal termination of Gaussian 16 at Wed Dec  9 18:16:18 2020.
 Gaussian 16:  ES64L-G16RevA.03 25-Dec-2016

 ----------------------------------------------------------------------
 # B3LYP/6-311++G(d,p) empiricaldispersion=gd3bj scf=xqc pop=npa geom=c
 heck
 ----------------------------------------------------------------------

 ------------------------------------
 CID_145190634_JID_2481_Energie_anion
 ------------------------------------
 Structure from the checkpoint file:  "JID_2481.chk"
 Charge = -1 Multiplicity = 2

                         Standard orientation:
 ---------------------------------------------------------------------
 Center     Atomic      Atomic             Coordinates (Angstroms)
 Number     Number       Type             X           Y           Z
 ---------------------------------------------------------------------
      1          6           0       -3.427325   -1.082756   -0.482886
      2          6           0       -2.047869   -1.685744   -0.207076
      3          6           0       -1.634497   -1.570400    1.261460
      4          6           0       -1.345800    2.600487   -0.287341
      5          6           0       -0.471708    1.739200   -1.200834
      6          6           0        0.555818    0.850144   -0.561077
      7          6           0        0.959191    0.691730    0.708465
      8          8           0        1.951093   -0.300394    0.843934
      9          6           0        2.231652   -0.829219   -0.397038
     10          8           0        3.042542   -1.699687   -0.557765
     11          6           0        1.351251   -0.111001   -1.408347
     12          6           0        0.626720    1.304525    2.023231
     13          1           0       -4.201885   -1.575976    0.116916
     14          1           0       -3.708283   -1.181174   -1.537672
     15          1           0       -3.445404   -0.015079   -0.229851
     16          1           0       -2.038328   -2.740871   -0.510245
     17          1           0       -1.301650   -1.180003   -0.831290
     18          1           0       -2.308264   -2.146255    1.907433
     19          1           0       -0.614241   -1.935142    1.423424
     20          1           0       -1.670542   -0.526165    1.592943
     21          1           0       -1.897440    1.986588    0.432383
     22          1           0       -2.078767    3.151577   -0.885447
     23          1           0       -0.754023    3.335126    0.267946
     24          1           0       -1.128326    1.099228   -1.809202
     25          1           0        0.038155    2.390336   -1.927577
     26          1           0        1.980156    0.381972   -2.161607
     27          1           0        0.734174   -0.842505   -1.946020
     28          1           0       -0.154157    2.057382    1.937913
     29          1           0        0.294926    0.529288    2.723349
     30          1           0        1.520220    1.770524    2.455908
 ---------------------------------------------------------------------

 SCF Done:  E(UB3LYP) =  -542.550117618     A.U. after   32 cycles

 The electronic state is 2-A.
 Alpha  occ. eigenvalues --  -19.08066 -19.02555 -10.21373 -10.13933 -10.09956
 Alpha  occ. eigenvalues --  -10.08579 -10.08192 -10.07957 -10.06957 -10.06136
 Alpha  occ. eigenvalues --  -10.06087 -10.05910  -1.02160  -0.94646  -0.73338
 Alpha  occ. eigenvalues --   -0.68560  -0.67993  -0.65864  -0.58544  -0.58194
 Alpha  occ. eigenvalues --   -0.53833  -0.51480  -0.49040  -0.43387  -0.40283
 Alpha  occ. eigenvalues --   -0.39486  -0.36516  -0.35722  -0.34751  -0.34527
 Alpha  occ. eigenvalues --   -0.34173  -0.33684  -0.31634  -0.30810  -0.30719
 Alpha  occ. eigenvalues --   -0.30352  -0.29202  -0.28518  -0.26442  -0.26283
 Alpha  occ. eigenvalues --   -0.25104  -0.24885  -0.24435  -0.24298  -0.23299
 Alpha  occ. eigenvalues --   -0.18925  -0.13683   0.04337
 Alpha virt. eigenvalues --    0.06640   0.06917   0.07291   0.07717   0.09129
 Alpha virt. eigenvalues --    0.09536   0.09770   0.09942   0.10696   0.11377
 Alpha virt. eigenvalues --    0.12012   0.12602   0.12862   0.13395   0.13890

  Beta  occ. eigenvalues --  -19.08062 -19.02552 -10.21368 -10.13929 -10.09934
  Beta  occ. eigenvalues --  -10.08578 -10.08164 -10.07920 -10.06942 -10.06118
  Beta  occ. eigenvalues --  -10.06039 -10.05875  -1.02150  -0.94639  -0.73307
  Beta  occ. eigenvalues --   -0.68527  -0.67963  -0.65808  -0.58486  -0.58137
  Beta  occ. eigenvalues --   -0.53736  -0.51442  -0.48961  -0.43346  -0.40254
  Beta  occ. eigenvalues --   -0.39452  -0.36490  -0.35694  -0.34715  -0.34485
  Beta  occ. eigenvalues --   -0.34132  -0.33655  -0.31600  -0.30781  -0.30663
  Beta  occ. eigenvalues --   -0.30311  -0.29178  -0.28491  -0.26403  -0.26235
  Beta  occ. eigenvalues --   -0.25043  -0.24847  -0.24399  -0.24241  -0.23275
  Beta  occ. eigenvalues --   -0.18913  -0.13662
  Beta virt. eigenvalues --    0.06596   0.07127   0.07601   0.07762   0.08332
  Beta virt. eigenvalues --    0.09534   0.10018   0.10163   0.10438   0.11153
  Beta virt. eigenvalues --    0.11586   0.12434   0.12977   0.13180   0.13588

 Mulliken charges and spin densities:
               1          2
     1  C    0.606378  -1.167604
     2  C   -0.652381   0.640870
     3  C   -0.165583  -0.264636
     4  C    1.564734  -2.172609
     5  C   -2.108459   1.641141
     6  C    1.895327  -1.426927
     7  C   -1.052672   0.818207
     8  O   -0.055729   0.008544
     9  C    0.030296  -0.140237
    10  O   -0.312561   0.014938
    11  C    0.257658  -0.253944
    12  C    1.077178  -1.477003
    13  H   -0.126863   0.249536
    14  H   -0.471992   0.609494
    15  H   -0.071785   0.214267
    16  H    0.000733   0.148779
    17  H    0.977184  -0.954938
    18  H   -0.022359   0.170990
    19  H   -0.015256   0.146641
    20  H    0.018201   0.115969
    21  H   -0.070215   0.203675
    22  H   -0.614404   0.775361
    23  H   -0.172553   0.325010
    24  H   -0.220185   0.362164
    25  H   -0.576914   0.774016
    26  H   -0.274074   0.488895
    27  H   -0.155483   0.371712
    28  H   -0.167298   0.316373
    29  H    0.005264   0.167458
    30  H   -0.126185   0.293858
 Sum of Mulliken charges =  -1.00000   1.00000

 Dipole moment (field-independent basis, Debye):
    X=              1.9484    Y=             -3.3010    Z=              2.5565  Tot=              4.6075
 Quadrupole moment (field-independent basis, Debye-Ang):
   XX=           -139.8728   YY=           -131.2577   ZZ=           -115.3106
   XY=              6.9695   XZ=             -4.1174   YZ=              6.0819

 Summary of Natural Population Analysis:

                                       Natural Population
                Natural  -----------------------------------------------
    Atom  No    Charge         Core      Valence    Rydberg      Total
 -----------------------------------------------------------------------
      C    1   -0.28470      0.99967     2.27991    0.00512     3.28470
      C    2   -0.19227      0.99965     2.18576    0.00686     3.19227
      C    3   -0.28428      0.99966     2.28018    0.00443     3.28428
      C    4   -0.28291      0.99967     2.27755    0.00570     3.28291
      C    5   -0.19906      0.99960     2.18957    0.00989     3.19906
      C    6   -0.04300      0.99943     2.03140    0.01217     3.04300
      C    7    0.15091      0.99934     1.83549    0.01426     2.84909
      O    8   -0.27416      0.99985     3.26684    0.00747     4.27416
      C    9    0.41294      0.99970     1.56206    0.02530     2.58706
      O   10   -0.29020      0.99986     3.28450    0.00583     4.29020
      C   11   -0.24946      0.99956     2.24186    0.00803     3.24946
      C   12   -0.30633      0.99961     2.30063    0.00609     3.30633
      H   13    0.09365      0.00000     0.40526    0.00109     0.40635
      H   14    0.09950      0.00000     0.39924    0.00127     0.40050
      H   15    0.09786      0.00000     0.40083    0.00131     0.40214
      H   16    0.08981      0.00000     0.40917    0.00102     0.41019
      H   17    0.09186      0.00000     0.40513    0.00301     0.40814
      H   18    0.09361      0.00000     0.40549    0.00091     0.40639
      H   19    0.09936      0.00000     0.39952    0.00113     0.40064
      H   20    0.09662      0.00000     0.40198    0.00140     0.40338
      H   21    0.09612      0.00000     0.40200    0.00188     0.40388
      H   22    0.10494      0.00000     0.39343    0.00163     0.39506
      H   23    0.09795      0.00000     0.40040    0.00165     0.40205
      H   24    0.10221      0.00000     0.39597    0.00182     0.39779
      H   25    0.10635      0.00000     0.39059    0.00307     0.39365
      H   26    0.12276      0.00000     0.37576    0.00148     0.37724
      H   27    0.11914      0.00000     0.37958    0.00128     0.38086
      H   28    0.11405      0.00000     0.38483    0.00112     0.38595
      H   29    0.10830      0.00000     0.39047    0.00123     0.39170
      H   30    0.10843      0.00000     0.39032    0.00125     0.39157
 =======================================================================
   * Total *    0.00000     11.99560    34.86571    0.13868    47.00000

 Normal termination of Gaussian 16 at Wed Dec  9 18:27:13 2020.
