 Gaussian 16, Revision A.03,

 -----------------------------------------------------------
 # opt freq B3LYP/6-31G(d) empiricaldispersion=gd3bj scf=xqc
 -----------------------------------------------------------

 -----------------------------
 CID_54138488_JID_796_neutraal
 -----------------------------
 Symbolic Z-matrix:
 Charge =  0 Multiplicity = 1

 SCF Done:  E(RB3LYP) =  -858.553886376     A.U. after   15 cycles
 SCF Done:  E(RB3LYP) =  -858.557225687     A.U. after   14 cycles
 SCF Done:  E(RB3LYP) =  -858.556634073     A.U. after   16 cycles
 SCF Done:  E(RB3LYP) =  -858.558450893     A.U. after   14 cycles
 SCF Done:  E(RB3LYP) =  -858.557443077     A.U. after   13 cycles
 SCF Done:  E(RB3LYP) =  -858.558541892     A.U. after   12 cycles
 SCF Done:  E(RB3LYP) =  -858.558297136     A.U. after   12 cycles
 SCF Done:  E(RB3LYP) =  -858.558594917     A.U. after   12 cycles
 SCF Done:  E(RB3LYP) =  -858.558596234     A.U. after   10 cycles
 SCF Done:  E(RB3LYP) =  -858.558596791     A.U. after    8 cycles
 SCF Done:  E(RB3LYP) =  -858.558596879     A.U. after    7 cycles
 Optimization completed.
    -- Stationary point found.
 Normal termination of Gaussian 16 at Tue Dec  8 12:40:52 2020.

 --------------------------------------------------------------------
 #N Geom=AllCheck Guess=TCheck SCRF=Check GenChk RB3LYP/6-31G(d) Freq
 --------------------------------------------------------------------

 Structure from the checkpoint file:  "JID_796.chk"
 -----------------------------
 CID_54138488_JID_796_neutraal
 -----------------------------
 Charge =  0 Multiplicity = 1

 SCF Done:  E(RB3LYP) =  -858.558596879     A.U. after    1 cycles

  Exact polarizability:  90.940   3.437  89.641  -0.644  -0.128  82.110
 Approx polarizability: 119.293   9.689 127.423   0.136   3.547 152.919

                      1                      2                      3
                      A                      A                      A
 Frequencies --     46.6486                64.8475                97.0254
 Red. masses --      7.2477                 7.7847                 2.4746
 Frc consts  --      0.0093                 0.0193                 0.0137
 IR Inten    --      3.1005                 0.1948                 1.0896

                      4                      5                      6
                      A                      A                      A
 Frequencies --    101.5243               144.6842               157.6406
 Red. masses --      2.7340                 5.8976                 4.3409
 Frc consts  --      0.0166                 0.0727                 0.0636
 IR Inten    --      1.2663                 2.9202                 1.3187

                      7                      8                      9
                      A                      A                      A
 Frequencies --    183.0120               197.6486               253.6824
 Red. masses --      1.1492                 1.7705                 2.9665
 Frc consts  --      0.0227                 0.0407                 0.1125
 IR Inten    --      0.2857                 0.5369                 8.2506

                     10                     11                     12
                      A                      A                      A
 Frequencies --    264.4051               330.5500               374.5326
 Red. masses --      1.8322                 4.7683                 4.8922
 Frc consts  --      0.0755                 0.3070                 0.4043
 IR Inten    --      0.7661                 4.0850                 0.6539

                     13                     14                     15
                      A                      A                      A
 Frequencies --    410.6098               433.2295               536.4017
 Red. masses --      4.0306                 4.9496                 5.8860
 Frc consts  --      0.4004                 0.5473                 0.9978
 IR Inten    --     17.8609                 0.7425                 1.7535

                     16                     17                     18
                      A                      A                      A
 Frequencies --    648.4397               660.8317               695.1532
 Red. masses --      2.4886                 1.9938                 3.5926
 Frc consts  --      0.6165                 0.5130                 1.0229
 IR Inten    --     58.7984               124.3537                18.2967

                     19                     20                     21
                      A                      A                      A
 Frequencies --    727.4087               748.3379               822.7240
 Red. masses --      4.8221                 1.9999                 5.5681
 Frc consts  --      1.5033                 0.6599                 2.2206
 IR Inten    --     18.6630                18.6080                 6.1475

                     22                     23                     24
                      A                      A                      A
 Frequencies --    861.5179               929.8345               999.9165
 Red. masses --      1.7160                 2.2941                 1.2538
 Frc consts  --      0.7504                 1.1686                 0.7386
 IR Inten    --      6.7478                21.9329                 2.4248

                     25                     26                     27
                      A                      A                      A
 Frequencies --   1006.5166              1036.9443              1068.0430
 Red. masses --      1.2074                 3.3161                 2.1151
 Frc consts  --      0.7207                 2.1008                 1.4215
 IR Inten    --      2.0905                57.8907                19.7516

                     28                     29                     30
                      A                      A                      A
 Frequencies --   1121.5966              1166.0518              1211.8000
 Red. masses --      1.5800                 2.2608                 1.8894
 Frc consts  --      1.1710                 1.8111                 1.6347
 IR Inten    --      5.9134                40.0189               181.7395

                     31                     32                     33
                      A                      A                      A
 Frequencies --   1249.7267              1304.8501              1360.1185
 Red. masses --      1.2907                 1.2996                 1.4051
 Frc consts  --      1.1877                 1.3037                 1.5314
 IR Inten    --      1.0609                 8.3250                16.1682

                     34                     35                     36
                      A                      A                      A
 Frequencies --   1390.8779              1396.7317              1420.3145
 Red. masses --      1.3230                 1.3887                 2.4728
 Frc consts  --      1.5080                 1.5962                 2.9391
 IR Inten    --      6.2496                18.4865                 6.0257

                     37                     38                     39
                      A                      A                      A
 Frequencies --   1440.7364              1496.9610              1516.2714
 Red. masses --      1.2299                 1.0542                 1.0700
 Frc consts  --      1.5042                 1.3918                 1.4494
 IR Inten    --      3.1736                10.5840                 5.0446

                     40                     41                     42
                      A                      A                      A
 Frequencies --   1518.0838              1529.6336              1538.5939
 Red. masses --      1.0522                 1.0479                 1.0531
 Frc consts  --      1.4287                 1.4447                 1.4688
 IR Inten    --     10.0387                 6.2954                 6.0276

                     43                     44                     45
                      A                      A                      A
 Frequencies --   1796.1182              1828.8381              3053.1908
 Red. masses --     11.7972                10.8034                 1.0363
 Frc consts  --     22.4233                21.2894                 5.6917
 IR Inten    --    142.0111               190.4375                24.4668

                     46                     47                     48
                      A                      A                      A
 Frequencies --   3069.2447              3071.1787              3106.3303
 Red. masses --      1.0334                 1.0576                 1.0996
 Frc consts  --      5.7354                 5.8775                 6.2514
 IR Inten    --      7.3086                17.4232                 1.3031

                     49                     50                     51
                      A                      A                      A
 Frequencies --   3119.2618              3127.2686              3134.4668
 Red. masses --      1.0926                 1.0967                 1.1022
 Frc consts  --      6.2636                 6.3192                 6.3804
 IR Inten    --     14.0287                18.0406                28.9915

                     52                     53                     54
                      A                      A                      A
 Frequencies --   3157.5093              3163.7653              3682.4037
 Red. masses --      1.1067                 1.1056                 1.0641
 Frc consts  --      6.5007                 6.5202                 8.5017
 IR Inten    --      7.0021                 5.9481                62.3553

 - Thermochemistry -
 -------------------
 Temperature   298.150 Kelvin.  Pressure   1.00000 Atm.
 Atom     1 has atomic number  6 and mass  12.00000

 Molecular mass:   162.03507 amu.
 Principal axes and moments of inertia in atomic units:
                           1         2         3
     Eigenvalues --  1407.545411962.001992478.30946
           X            0.99815  -0.05994  -0.00983
           Y            0.05929   0.99663  -0.05661
           Z            0.01319   0.05593   0.99835
 This molecule is an asymmetric top.
 Rotational symmetry number  1.
 Warning -- assumption of classical behavior for rotation
           may cause significant error
 Rotational temperatures (Kelvin)      0.06154     0.04415     0.03495
 Rotational constants (GHZ):           1.28219     0.91985     0.72821
 Zero-point vibrational energy     417341.4 (Joules/Mol)
                                   99.74699 (Kcal/Mol)
 Warning -- explicit consideration of  15 degrees of freedom as
           vibrations may cause significant error
 Vibrational temperatures:     67.12    93.30   139.60   146.07   208.17
          (Kelvin)            226.81   263.31   284.37   364.99   380.42
                              475.59   538.87   590.78   623.32   771.76
                              932.96   950.79  1000.17  1046.58  1076.69
                             1183.72  1239.53  1337.82  1438.66  1448.15
                             1491.93  1536.68  1613.73  1677.69  1743.51
                             1798.08  1877.39  1956.91  2001.16  2009.59
                             2043.52  2072.90  2153.79  2181.58  2184.18
                             2200.80  2213.69  2584.21  2631.29  4392.86
                             4415.96  4418.74  4469.32  4487.92  4499.44
                             4509.80  4542.95  4551.95  5298.16

 Zero-point correction=                           0.158957 (Hartree/Particle)
 Thermal correction to Energy=                    0.170822
 Thermal correction to Enthalpy=                  0.171766
 Thermal correction to Gibbs Free Energy=         0.120372
 Sum of electronic and zero-point Energies=           -858.399640
 Sum of electronic and thermal Energies=              -858.387775
 Sum of electronic and thermal Enthalpies=            -858.386831
 Sum of electronic and thermal Free Energies=         -858.438225

                     E (Thermal)             CV                S
                      KCal/Mol        Cal/Mol-Kelvin    Cal/Mol-Kelvin
 Total                  107.192             41.119            108.168
 Electronic               0.000              0.000              0.000
 Translational            0.889              2.981             41.157
 Rotational               0.889              2.981             30.305
 Vibrational            105.415             35.157             36.707
 Vibration     1          0.595              1.979              4.955
 Vibration     2          0.597              1.971              4.304
 Vibration     3          0.603              1.951              3.513
 Vibration     4          0.604              1.948              3.425
 Vibration     5          0.616              1.908              2.741
 Vibration     6          0.621              1.894              2.578
 Vibration     7          0.631              1.863              2.297
 Vibration     8          0.637              1.843              2.155
 Vibration     9          0.665              1.757              1.705
 Vibration    10          0.671              1.738              1.633
 Vibration    11          0.713              1.614              1.257
 Vibration    12          0.746              1.524              1.061
 Vibration    13          0.775              1.447              0.924
 Vibration    14          0.794              1.398              0.848
 Vibration    15          0.891              1.170              0.573

 Optimization completed.
    -- Stationary point found.
 Normal termination of Gaussian 16 at Tue Dec  8 12:49:34 2020.

 ----------------------------------------------------------------------
 # B3LYP/6-311++G(d,p) empiricaldispersion=gd3bj scf=xqc pop=npa geom=c
 heck
 ----------------------------------------------------------------------

 -------------------------------------
 CID_54138488_JID_796_Energie_neutraal
 -------------------------------------
 Structure from the checkpoint file:  "JID_796.chk"
 Charge =  0 Multiplicity = 1

 SCF Done:  E(RB3LYP) =  -858.732430395     A.U. after   15 cycles
 Normal termination of Gaussian 16 at Tue Dec  8 13:04:03 2020.

 ----------------------------------------------------------------------
 # B3LYP/6-311++G(d,p) empiricaldispersion=gd3bj scf=xqc pop=npa geom=c
 heck
 ----------------------------------------------------------------------

 -----------------------------------
 CID_54138488_JID_796_Energie_kation
 -----------------------------------
 Structure from the checkpoint file:  "JID_796.chk"
 Charge =  1 Multiplicity = 2

 SCF Done:  E(UB3LYP) =  -858.408785434     A.U. after   22 cycles
 Normal termination of Gaussian 16 at Tue Dec  8 13:11:28 2020.
 Gaussian 16:  ES64L-G16RevA.03 25-Dec-2016

 ----------------------------------------------------------------------
 # B3LYP/6-311++G(d,p) empiricaldispersion=gd3bj scf=xqc pop=npa geom=c
 heck
 ----------------------------------------------------------------------

 ----------------------------------
 CID_54138488_JID_796_Energie_anion
 ----------------------------------
 Structure from the checkpoint file:  "JID_796.chk"
 Charge = -1 Multiplicity = 2

                         Standard orientation:
 ---------------------------------------------------------------------
 Center     Atomic      Atomic             Coordinates (Angstroms)
 Number     Number       Type             X           Y           Z
 ---------------------------------------------------------------------
      1          6           0       -1.712982    2.522986   -0.044082
      2          6           0       -1.893706    1.001323   -0.081021
      3          6           0       -0.624399    0.292386   -0.538918
      4          6           0        0.520674    0.370212    0.441320
      5          8           0        0.385269    0.488647    1.642928
      6          6           0        1.918079    0.228492   -0.190778
      7          8           0        2.148335    0.465177   -1.356454
      8          8           0        2.845072   -0.133484    0.708915
      9         16           0       -0.788352   -1.539321   -0.794498
     10          6           0       -1.424220   -2.069825    0.834035
     11          1           0       -0.937967    2.809230    0.674186
     12          1           0       -2.644066    3.014569    0.256473
     13          1           0       -1.428893    2.913912   -1.028160
     14          1           0       -2.168686    0.643611    0.915977
     15          1           0       -2.705598    0.729675   -0.764482
     16          1           0       -0.289624    0.648764   -1.516461
     17          1           0        3.693553   -0.171121    0.227697
     18          1           0       -0.803212   -1.673875    1.642382
     19          1           0       -2.461683   -1.760659    0.977534
     20          1           0       -1.370276   -3.161139    0.840365
 ---------------------------------------------------------------------

 SCF Done:  E(UB3LYP) =  -858.751267060     A.U. after   25 cycles

 The electronic state is 2-A.
 Alpha  occ. eigenvalues --  -88.69227 -18.99931 -18.92515 -18.90029 -10.09993
 Alpha  occ. eigenvalues --  -10.05680 -10.04904 -10.03940 -10.03888 -10.03886
 Alpha  occ. eigenvalues --   -7.77857  -5.74252  -5.73895  -5.73232  -0.93648
 Alpha  occ. eigenvalues --   -0.84611  -0.84309  -0.67727  -0.62911  -0.57097
 Alpha  occ. eigenvalues --   -0.50522  -0.48721  -0.45155  -0.37489  -0.34550
 Alpha  occ. eigenvalues --   -0.31812  -0.31328  -0.30002  -0.29486  -0.28535
 Alpha  occ. eigenvalues --   -0.27812  -0.25829  -0.25081  -0.23532  -0.22449
 Alpha  occ. eigenvalues --   -0.21198  -0.20780  -0.19046  -0.16399  -0.16039
 Alpha  occ. eigenvalues --   -0.13006  -0.08900  -0.05643   0.05377
 Alpha virt. eigenvalues --    0.08920   0.09770   0.10797   0.11815   0.11887
 Alpha virt. eigenvalues --    0.13161   0.14362   0.14677   0.15350   0.16059
 Alpha virt. eigenvalues --    0.16696   0.17954   0.18238   0.19067   0.19417

  Beta  occ. eigenvalues --  -88.69171 -18.99853 -18.92114 -18.89235 -10.09734
  Beta  occ. eigenvalues --  -10.05683 -10.04943 -10.03937 -10.03887 -10.03429
  Beta  occ. eigenvalues --   -7.77800  -5.74169  -5.73819  -5.73172  -0.93288
  Beta  occ. eigenvalues --   -0.83715  -0.83205  -0.67564  -0.62837  -0.56845
  Beta  occ. eigenvalues --   -0.49813  -0.48356  -0.44880  -0.36929  -0.34356
  Beta  occ. eigenvalues --   -0.31491  -0.30952  -0.29706  -0.29310  -0.28248
  Beta  occ. eigenvalues --   -0.26525  -0.25774  -0.24613  -0.23320  -0.22031
  Beta  occ. eigenvalues --   -0.21044  -0.20049  -0.17666  -0.14841  -0.13950
  Beta  occ. eigenvalues --   -0.12560  -0.08477  -0.04963
  Beta virt. eigenvalues --    0.08881   0.09726   0.10798   0.11728   0.11816
  Beta virt. eigenvalues --    0.13080   0.13711   0.14478   0.14933   0.15313
  Beta virt. eigenvalues --    0.16284   0.16693   0.18003   0.18508   0.19108

 Mulliken charges and spin densities:
               1          2
     1  C   -0.672260   0.018217
     2  C   -0.339872  -0.001882
     3  C    0.547012  -0.005756
     4  C   -0.269230   0.351344
     5  O   -0.392966   0.271028
     6  C   -0.297639   0.169923
     7  O   -0.400697   0.131911
     8  O   -0.163327   0.012825
     9  S   -0.028741   0.090649
    10  C   -0.663766  -0.038993
    11  H    0.192858  -0.010359
    12  H    0.097994   0.000807
    13  H    0.113811  -0.001276
    14  H    0.150886  -0.000015
    15  H    0.116694  -0.000043
    16  H    0.311736   0.004271
    17  H    0.220763  -0.002849
    18  H    0.224690  -0.002378
    19  H    0.134886   0.003194
    20  H    0.117168   0.009382
 Sum of Mulliken charges =  -1.00000   1.00000

 Dipole moment (field-independent basis, Debye):
    X=             -3.1235    Y=             -0.2900    Z=             -0.1914  Tot=              3.1428
 Quadrupole moment (field-independent basis, Debye-Ang):
   XX=            -80.9872   YY=            -78.6135   ZZ=            -88.5753
   XY=             -3.4642   XZ=             -0.3063   YZ=             -4.4577

 Summary of Natural Population Analysis:

                                       Natural Population
                Natural  -----------------------------------------------
    Atom  No    Charge         Core      Valence    Rydberg      Total
 -----------------------------------------------------------------------
      C    1   -0.28417      0.99967     2.28026    0.00424     3.28417
      C    2   -0.19503      0.99961     2.18628    0.00913     3.19503
      C    3   -0.20293      0.99952     2.18649    0.01692     3.20293
      C    4    0.27393      0.99959     1.70038    0.02610     2.72607
      O    5   -0.22209      0.99987     3.21498    0.00723     4.22209
      C    6    0.40200      0.99970     1.57053    0.02777     2.59800
      O    7   -0.29885      0.99987     3.29204    0.00694     4.29885
      O    8   -0.34077      0.99987     3.33242    0.00848     4.34077
      S    9    0.10359      4.99964     2.87487    0.02190     7.89641
      C   10   -0.36071      0.99962     2.35541    0.00568     3.36071
      H   11    0.10798      0.00000     0.39101    0.00102     0.39202
      H   12    0.08837      0.00000     0.41071    0.00092     0.41163
      H   13    0.09144      0.00000     0.40760    0.00096     0.40856
      H   14    0.10162      0.00000     0.39693    0.00146     0.39838
      H   15    0.09066      0.00000     0.40806    0.00128     0.40934
      H   16    0.11866      0.00000     0.38034    0.00099     0.38134
      H   17    0.22001      0.00000     0.27338    0.00660     0.27999
      H   18    0.11687      0.00000     0.38157    0.00156     0.38313
      H   19    0.09159      0.00000     0.40685    0.00156     0.40841
      H   20    0.09782      0.00000     0.40126    0.00092     0.40218
 =======================================================================
   * Total *    0.00000     13.99697    28.85137    0.15166    43.00000

 Normal termination of Gaussian 16 at Tue Dec  8 13:23:25 2020.
