 Gaussian 16, Revision A.03,

 -----------------------------------------------------------
 # opt freq B3LYP/6-31G(d) empiricaldispersion=gd3bj scf=xqc
 -----------------------------------------------------------

 ------------------------------
 CID_57492632_JID_4395_neutraal
 ------------------------------
 Symbolic Z-matrix:
 Charge =  0 Multiplicity = 1

 SCF Done:  E(RB3LYP) =  -551.627490633     A.U. after   12 cycles
 SCF Done:  E(RB3LYP) =  -551.629258805     A.U. after   10 cycles
 SCF Done:  E(RB3LYP) =  -551.626713749     A.U. after   10 cycles
 SCF Done:  E(RB3LYP) =  -551.627594153     A.U. after   11 cycles
 SCF Done:  E(RB3LYP) =  -551.630426460     A.U. after    8 cycles
 SCF Done:  E(RB3LYP) =  -551.630536493     A.U. after   10 cycles
 SCF Done:  E(RB3LYP) =  -551.630810275     A.U. after   10 cycles
 SCF Done:  E(RB3LYP) =  -551.630789217     A.U. after    9 cycles
 SCF Done:  E(RB3LYP) =  -551.630790050     A.U. after    9 cycles
 SCF Done:  E(RB3LYP) =  -551.630950535     A.U. after   10 cycles
 SCF Done:  E(RB3LYP) =  -551.613353935     A.U. after   12 cycles
 SCF Done:  E(RB3LYP) =  -551.633640541     A.U. after   10 cycles
 SCF Done:  E(RB3LYP) =  -551.633808016     A.U. after    6 cycles
 SCF Done:  E(RB3LYP) =  -551.633808954     A.U. after    7 cycles
 SCF Done:  E(RB3LYP) =  -551.633808878     A.U. after    6 cycles
 SCF Done:  E(RB3LYP) =  -551.633809050     A.U. after    6 cycles
 Optimization completed.
    -- Stationary point found.
 Normal termination of Gaussian 16 at Thu Dec 10 10:15:52 2020.

 --------------------------------------------------------------------
 #N Geom=AllCheck Guess=TCheck SCRF=Check GenChk RB3LYP/6-31G(d) Freq
 --------------------------------------------------------------------

 Structure from the checkpoint file:  "JID_4395.chk"
 ------------------------------
 CID_57492632_JID_4395_neutraal
 ------------------------------
 Charge =  0 Multiplicity = 1

 SCF Done:  E(RB3LYP) =  -551.633809050     A.U. after    1 cycles

  Exact polarizability: 161.607  -0.937 147.498  -0.562   0.154 131.848
 Approx polarizability: 203.831  -0.646 202.396   1.461  -0.217 198.886

                      1                      2                      3
                      A                      A                      A
 Frequencies --     20.0322                60.2805                71.6963
 Red. masses --      2.5023                 1.9844                 2.7442
 Frc consts  --      0.0006                 0.0042                 0.0083
 IR Inten    --      0.0006                 0.0010                 0.0102

                      4                      5                      6
                      A                      A                      A
 Frequencies --     90.5071               109.4878               133.3311
 Red. masses --      2.4232                 2.6267                 1.9827
 Frc consts  --      0.0117                 0.0186                 0.0208
 IR Inten    --      0.0917                 0.0382                 0.0612

                      7                      8                      9
                      A                      A                      A
 Frequencies --    145.4567               182.8465               198.9909
 Red. masses --      1.9887                 1.9598                 1.8607
 Frc consts  --      0.0248                 0.0386                 0.0434
 IR Inten    --      0.0126                 0.0150                 0.0811

                     10                     11                     12
                      A                      A                      A
 Frequencies --    218.6751               220.3840               242.6306
 Red. masses --      1.7780                 1.4565                 1.2772
 Frc consts  --      0.0501                 0.0417                 0.0443
 IR Inten    --      0.0108                 0.2491                 0.0179

                     13                     14                     15
                      A                      A                      A
 Frequencies --    254.3835               258.2555               267.4508
 Red. masses --      1.5838                 1.6831                 1.6992
 Frc consts  --      0.0604                 0.0661                 0.0716
 IR Inten    --      0.0163                 0.1566                 0.2183

                     16                     17                     18
                      A                      A                      A
 Frequencies --    287.4445               299.0564               339.8797
 Red. masses --      1.6283                 2.5709                 1.6945
 Frc consts  --      0.0793                 0.1355                 0.1153
 IR Inten    --      0.0069                 0.2551                 0.0629

                     19                     20                     21
                      A                      A                      A
 Frequencies --    348.6887               359.2321               366.6475
 Red. masses --      1.4469                 1.7803                 1.9255
 Frc consts  --      0.1036                 0.1354                 0.1525
 IR Inten    --      0.1015                 0.0057                 0.0683

                     22                     23                     24
                      A                      A                      A
 Frequencies --    376.9700               390.9077               401.3855
 Red. masses --      1.8822                 2.0673                 2.5445
 Frc consts  --      0.1576                 0.1861                 0.2415
 IR Inten    --      0.3467                 0.2736                 0.6907

                     25                     26                     27
                      A                      A                      A
 Frequencies --    440.7837               446.4952               507.7013
 Red. masses --      2.0696                 2.1470                 2.2446
 Frc consts  --      0.2369                 0.2522                 0.3409
 IR Inten    --      0.5961                 0.1861                 0.0903

                     28                     29                     30
                      A                      A                      A
 Frequencies --    536.5304               565.5467               704.7821
 Red. masses --      2.4732                 3.1987                 2.0598
 Frc consts  --      0.4195                 0.6028                 0.6028
 IR Inten    --      0.0196                 0.6335                 1.8048

                     31                     32                     33
                      A                      A                      A
 Frequencies --    756.8837               773.5609               798.2426
 Red. masses --      1.5309                 1.4218                 1.2772
 Frc consts  --      0.5167                 0.5013                 0.4795
 IR Inten    --      2.8133                 2.5512                 1.6324

                     34                     35                     36
                      A                      A                      A
 Frequencies --    819.7690               856.1629               870.4421
 Red. masses --      1.5436                 1.8769                 1.6394
 Frc consts  --      0.6112                 0.8106                 0.7318
 IR Inten    --      1.7302                 2.8398                 0.5629

                     37                     38                     39
                      A                      A                      A
 Frequencies --    881.9570               900.2995               915.5738
 Red. masses --      2.0086                 1.7304                 1.6814
 Frc consts  --      0.9205                 0.8264                 0.8304
 IR Inten    --      1.4114                 0.6590                 0.5960

                     40                     41                     42
                      A                      A                      A
 Frequencies --    942.4108               953.2265               984.8142
 Red. masses --      1.7448                 1.8140                 1.2767
 Frc consts  --      0.9130                 0.9712                 0.7295
 IR Inten    --      7.4736                 2.0272                 4.3737

                     43                     44                     45
                      A                      A                      A
 Frequencies --   1004.2457              1017.9949              1037.1030
 Red. masses --      2.1026                 1.3954                 2.0642
 Frc consts  --      1.2494                 0.8520                 1.3081
 IR Inten    --      0.0819                 5.2818                 2.3037

                     46                     47                     48
                      A                      A                      A
 Frequencies --   1039.5011              1052.3564              1064.2538
 Red. masses --      1.6859                 1.8302                 1.5137
 Frc consts  --      1.0733                 1.1942                 1.0101
 IR Inten    --      0.5614                 1.3857                 5.2995

                     49                     50                     51
                      A                      A                      A
 Frequencies --   1081.2327              1089.7772              1097.3237
 Red. masses --      2.3510                 2.1121                 1.6570
 Frc consts  --      1.6193                 1.4779                 1.1755
 IR Inten    --      0.7040                 2.8011                 0.7775

                     52                     53                     54
                      A                      A                      A
 Frequencies --   1118.7711              1132.6650              1157.2934
 Red. masses --      1.8771                 1.7712                 2.1045
 Frc consts  --      1.3843                 1.3388                 1.6607
 IR Inten    --      3.4255                 1.4701                 1.1364

                     55                     56                     57
                      A                      A                      A
 Frequencies --   1178.8178              1189.3146              1201.3260
 Red. masses --      2.0493                 2.0536                 2.4380
 Frc consts  --      1.6778                 1.7114                 2.0730
 IR Inten    --      6.2345                 6.3416                 0.3092

                     58                     59                     60
                      A                      A                      A
 Frequencies --   1214.3934              1230.8926              1286.7569
 Red. masses --      2.1421                 2.3944                 1.3466
 Frc consts  --      1.8612                 2.1374                 1.3137
 IR Inten    --      0.1881                 0.1413                 0.1879

                     61                     62                     63
                      A                      A                      A
 Frequencies --   1300.9334              1315.0108              1319.4414
 Red. masses --      1.2269                 1.2325                 1.2475
 Frc consts  --      1.2234                 1.2557                 1.2796
 IR Inten    --      0.6896                 0.4240                 0.3574

                     64                     65                     66
                      A                      A                      A
 Frequencies --   1343.2393              1368.7829              1372.9599
 Red. masses --      1.1787                 1.3230                 1.2379
 Frc consts  --      1.2530                 1.4605                 1.3748
 IR Inten    --      0.0373                 2.5425                 1.9111

                     67                     68                     69
                      A                      A                      A
 Frequencies --   1382.4181              1393.2044              1396.6667
 Red. masses --      1.2619                 1.3338                 1.3347
 Frc consts  --      1.4208                 1.5253                 1.5340
 IR Inten    --      1.0890                 0.5702                 6.8420

                     70                     71                     72
                      A                      A                      A
 Frequencies --   1402.6844              1407.4923              1412.8178
 Red. masses --      1.3069                 1.3395                 1.3346
 Frc consts  --      1.5150                 1.5635                 1.5695
 IR Inten    --      5.5821                 0.5139                 0.3979

                     73                     74                     75
                      A                      A                      A
 Frequencies --   1428.6955              1438.4030              1441.6626
 Red. masses --      1.3029                 1.2552                 1.2520
 Frc consts  --      1.5669                 1.5301                 1.5332
 IR Inten    --      2.0468                 1.4719                 6.3499

                     76                     77                     78
                      A                      A                      A
 Frequencies --   1443.7188              1443.9068              1448.0712
 Red. masses --      1.2251                 1.2364                 1.2445
 Frc consts  --      1.5045                 1.5187                 1.5375
 IR Inten    --      6.3856                 1.7421                18.0351

                     79                     80                     81
                      A                      A                      A
 Frequencies --   1448.9298              1510.9616              1512.6848
 Red. masses --      1.2231                 1.0738                 1.0735
 Frc consts  --      1.5128                 1.4443                 1.4473
 IR Inten    --      0.8735                 0.2952                 1.1653

                     82                     83                     84
                      A                      A                      A
 Frequencies --   1517.7347              1522.0373              1523.8813
 Red. masses --      1.0589                 1.0636                 1.0542
 Frc consts  --      1.4371                 1.4518                 1.4424
 IR Inten    --      0.7143                 0.0694                 2.3271

                     85                     86                     87
                      A                      A                      A
 Frequencies --   1525.2406              1530.6861              1532.1802
 Red. masses --      1.0461                 1.0511                 1.0580
 Frc consts  --      1.4338                 1.4510                 1.4634
 IR Inten    --      6.4702                 2.7841                 1.8560

                     88                     89                     90
                      A                      A                      A
 Frequencies --   1535.4516              1537.8731              1538.2059
 Red. masses --      1.0522                 1.0476                 1.0527
 Frc consts  --      1.4616                 1.4598                 1.4675
 IR Inten    --     11.0199                 5.0642                 0.3422

                     91                     92                     93
                      A                      A                      A
 Frequencies --   1539.8594              1542.9573              1544.6881
 Red. masses --      1.0594                 1.0627                 1.0656
 Frc consts  --      1.4801                 1.4907                 1.4980
 IR Inten    --      5.2062                 2.0311                 3.1766

                     94                     95                     96
                      A                      A                      A
 Frequencies --   1545.8590              1554.4111              1557.9083
 Red. masses --      1.0600                 1.0521                 1.0514
 Frc consts  --      1.4925                 1.4978                 1.5035
 IR Inten    --      3.7286                11.6746                 5.0343

                     97                     98                     99
                      A                      A                      A
 Frequencies --   3009.3428              3012.0097              3016.8725
 Red. masses --      1.0817                 1.0774                 1.0663
 Frc consts  --      5.7716                 5.7591                 5.7181
 IR Inten    --     16.3563                 4.8316                24.8906

                    100                    101                    102
                      A                      A                      A
 Frequencies --   3033.8503              3038.1526              3043.8836
 Red. masses --      1.0748                 1.0632                 1.0382
 Frc consts  --      5.8287                 5.7821                 5.6677
 IR Inten    --     26.9106                31.8729                34.7811

                    103                    104                    105
                      A                      A                      A
 Frequencies --   3044.8379              3048.4631              3049.4702
 Red. masses --      1.0378                 1.0412                 1.0447
 Frc consts  --      5.6687                 5.7008                 5.7239
 IR Inten    --     20.8843                38.1015                41.4932

                    106                    107                    108
                      A                      A                      A
 Frequencies --   3052.4204              3055.1517              3065.6491
 Red. masses --      1.0585                 1.0950                 1.0742
 Frc consts  --      5.8109                 6.0218                 5.9480
 IR Inten    --     13.9957                58.7587                 3.5099

                    109                    110                    111
                      A                      A                      A
 Frequencies --   3069.3913              3074.1383              3076.7242
 Red. masses --      1.0559                 1.0525                 1.0600
 Frc consts  --      5.8613                 5.8603                 5.9122
 IR Inten    --     21.4298                27.1978                10.6988

                    112                    113                    114
                      A                      A                      A
 Frequencies --   3094.9189              3099.7838              3102.2833
 Red. masses --      1.1003                 1.0981                 1.0971
 Frc consts  --      6.2095                 6.2165                 6.2209
 IR Inten    --     44.3285                18.4745                16.3036

                    115                    116                    117
                      A                      A                      A
 Frequencies --   3106.7397              3109.2361              3111.0016
 Red. masses --      1.1010                 1.1012                 1.1017
 Frc consts  --      6.2613                 6.2724                 6.2822
 IR Inten    --     46.2387                32.3426                32.1444

                    118                    119                    120
                      A                      A                      A
 Frequencies --   3116.5915              3118.1612              3122.5113
 Red. masses --      1.1013                 1.0937                 1.1007
 Frc consts  --      6.3024                 6.2655                 6.3229
 IR Inten    --     66.8308                48.1497                88.3934

                    121                    122                    123
                      A                      A                      A
 Frequencies --   3130.0500              3131.0782              3139.1372
 Red. masses --      1.0952                 1.1009                 1.0970
 Frc consts  --      6.3219                 6.3591                 6.3690
 IR Inten    --     17.4194                51.4599                34.8098

                    124                    125                    126
                      A                      A                      A
 Frequencies --   3141.2782              3154.4221              3183.4029
 Red. masses --      1.0979                 1.1012                 1.0930
 Frc consts  --      6.3830                 6.4561                 6.5263
 IR Inten    --     55.2975                22.2444                19.0885

 - Thermochemistry -
 -------------------
 Temperature   298.150 Kelvin.  Pressure   1.00000 Atm.
 Atom     1 has atomic number  6 and mass  12.00000

 Molecular mass:   198.23475 amu.
 Principal axes and moments of inertia in atomic units:
                           1         2         3
     Eigenvalues --  2391.990133901.932194972.84239
           X            0.99997   0.00561  -0.00516
           Y           -0.00559   0.99998   0.00282
           Z            0.00517  -0.00279   0.99998
 This molecule is an asymmetric top.
 Rotational symmetry number  1.
 Warning -- assumption of classical behavior for rotation
           may cause significant error
 Rotational temperatures (Kelvin)      0.03621     0.02220     0.01742
 Rotational constants (GHZ):           0.75449     0.46253     0.36292
 Zero-point vibrational energy    1104311.3 (Joules/Mol)
                                  263.93674 (Kcal/Mol)
 Warning -- explicit consideration of  29 degrees of freedom as
           vibrations may cause significant error
 Vibrational temperatures:     28.82    86.73   103.15   130.22   157.53
          (Kelvin)            191.83   209.28   263.08   286.30   314.62
                              317.08   349.09   366.00   371.57   384.80
                              413.57   430.28   489.01   501.69   516.85
                              527.52   542.38   562.43   577.50   634.19
                              642.41   730.47   771.95   813.70  1014.02
                             1088.99  1112.98  1148.49  1179.46  1231.83
                             1252.37  1268.94  1295.33  1317.31  1355.92
                             1371.48  1416.93  1444.89  1464.67  1492.16
                             1495.61  1514.11  1531.22  1555.65  1567.95
                             1578.80  1609.66  1629.65  1665.09  1696.06
                             1711.16  1728.44  1747.24  1770.98  1851.36
                             1871.75  1892.01  1898.38  1932.62  1969.37
                             1975.38  1988.99  2004.51  2009.49  2018.15
                             2025.07  2032.73  2055.57  2069.54  2074.23
                             2077.19  2077.46  2083.45  2084.69  2173.94
                             2176.42  2183.68  2189.87  2192.53  2194.48
                             2202.32  2204.47  2209.17  2212.66  2213.14
                             2215.51  2219.97  2222.46  2224.15  2236.45
                             2241.48  4329.77  4333.61  4340.61  4365.03
                             4371.22  4379.47  4380.84  4386.06  4387.51
                             4391.75  4395.68  4410.79  4416.17  4423.00
                             4426.72  4452.90  4459.90  4463.49  4469.91
                             4473.50  4476.04  4484.08  4486.34  4492.60
                             4503.44  4504.92  4516.52  4519.60  4538.51
                             4580.21

 Zero-point correction=                           0.420610 (Hartree/Particle)
 Thermal correction to Energy=                    0.438754
 Thermal correction to Enthalpy=                  0.439698
 Thermal correction to Gibbs Free Energy=         0.375757
 Sum of electronic and zero-point Energies=           -551.213199
 Sum of electronic and thermal Energies=              -551.195055
 Sum of electronic and thermal Enthalpies=            -551.194111
 Sum of electronic and thermal Free Energies=         -551.258052

                     E (Thermal)             CV                S
                      KCal/Mol        Cal/Mol-Kelvin    Cal/Mol-Kelvin
 Total                  275.322             69.755            134.575
 Electronic               0.000              0.000              0.000
 Translational            0.889              2.981             41.758
 Rotational               0.889              2.981             32.207
 Vibrational            273.545             63.793             60.611
 Vibration     1          0.593              1.986              6.631
 Vibration     2          0.597              1.973              4.448
 Vibration     3          0.598              1.967              4.106
 Vibration     4          0.602              1.956              3.649
 Vibration     5          0.606              1.942              3.278
 Vibration     6          0.613              1.920              2.897
 Vibration     7          0.617              1.908              2.731
 Vibration     8          0.630              1.863              2.299
 Vibration     9          0.637              1.841              2.142
 Vibration    10          0.646              1.813              1.970
 Vibration    11          0.647              1.810              1.956
 Vibration    12          0.659              1.775              1.784
 Vibration    13          0.665              1.755              1.700
 Vibration    14          0.667              1.749              1.674
 Vibration    15          0.673              1.733              1.613
 Vibration    16          0.685              1.697              1.489
 Vibration    17          0.692              1.675              1.422
 Vibration    18          0.720              1.596              1.213
 Vibration    19          0.726              1.578              1.172
 Vibration    20          0.734              1.556              1.125
 Vibration    21          0.740              1.541              1.094
 Vibration    22          0.748              1.519              1.051
 Vibration    23          0.759              1.490              0.997
 Vibration    24          0.767              1.467              0.958
 Vibration    25          0.801              1.381              0.824
 Vibration    26          0.806              1.369              0.806
 Vibration    27          0.863              1.233              0.639
 Vibration    28          0.892              1.169              0.573
 Vibration    29          0.921              1.106              0.513

 Optimization completed.
    -- Stationary point found.
 Normal termination of Gaussian 16 at Thu Dec 10 10:35:14 2020.

 ----------------------------------------------------------------------
 # B3LYP/6-311++G(d,p) empiricaldispersion=gd3bj scf=xqc pop=npa geom=c
 heck
 ----------------------------------------------------------------------

 --------------------------------------
 CID_57492632_JID_4395_Energie_neutraal
 --------------------------------------
 Structure from the checkpoint file:  "JID_4395.chk"
 Charge =  0 Multiplicity = 1

 SCF Done:  E(RB3LYP) =  -551.786992228     A.U. after   14 cycles
 Normal termination of Gaussian 16 at Thu Dec 10 10:45:33 2020.

 ----------------------------------------------------------------------
 # B3LYP/6-311++G(d,p) empiricaldispersion=gd3bj scf=xqc pop=npa geom=c
 heck
 ----------------------------------------------------------------------

 ------------------------------------
 CID_57492632_JID_4395_Energie_kation
 ------------------------------------
 Structure from the checkpoint file:  "JID_4395.chk"
 Charge =  1 Multiplicity = 2

 SCF Done:  E(UB3LYP) =  -551.444177787     A.U. after   29 cycles
 Normal termination of Gaussian 16 at Thu Dec 10 11:16:27 2020.
 Gaussian 16:  ES64L-G16RevA.03 25-Dec-2016

 ----------------------------------------------------------------------
 # B3LYP/6-311++G(d,p) empiricaldispersion=gd3bj scf=xqc pop=npa geom=c
 heck
 ----------------------------------------------------------------------

 -----------------------------------
 CID_57492632_JID_4395_Energie_anion
 -----------------------------------
 Structure from the checkpoint file:  "JID_4395.chk"
 Charge = -1 Multiplicity = 2

                         Standard orientation:
 ---------------------------------------------------------------------
 Center     Atomic      Atomic             Coordinates (Angstroms)
 Number     Number       Type             X           Y           Z
 ---------------------------------------------------------------------
      1          6           0       -4.211004   -0.387564    0.490038
      2          6           0       -3.469746    0.230624   -0.699279
      3          6           0       -1.991864    0.558143   -0.421087
      4          6           0       -1.102138   -0.648119   -0.048592
      5          6           0       -1.004196   -1.617397   -1.239109
      6          6           0        0.251132   -0.260038    0.662705
      7          6           0       -0.133791    0.200739    2.092315
      8          6           0        1.099675   -1.552074    0.934881
      9          6           0        2.049181   -2.201423   -0.099442
     10          6           0        3.469656   -1.624466   -0.141418
     11          6           0        1.128357    0.856538   -0.019123
     12          6           0        1.338267    0.687105   -1.534454
     13          6           0        0.707901    2.320172    0.266829
     14          6           0        1.781483    3.347202   -0.115773
     15          1           0       -3.825864   -1.382011    0.740279
     16          1           0       -5.280056   -0.494693    0.274981
     17          1           0       -4.110553    0.239792    1.384631
     18          1           0       -3.559175   -0.430423   -1.570235
     19          1           0       -3.971191    1.165194   -0.983570
     20          1           0       -1.578075    1.054930   -1.306895
     21          1           0       -1.967603    1.300278    0.383997
     22          1           0       -1.640905   -1.205535    0.731011
     23          1           0       -0.498823   -1.175270   -2.101659
     24          1           0       -0.482286   -2.539131   -0.972944
     25          1           0       -2.008130   -1.908498   -1.565084
     26          1           0       -0.526377   -0.648621    2.663210
     27          1           0        0.740235    0.584058    2.631339
     28          1           0       -0.899517    0.979997    2.102367
     29          1           0        1.714539   -1.347121    1.822619
     30          1           0        0.381403   -2.317429    1.258419
     31          1           0        2.135359   -3.260883    0.177968
     32          1           0        1.620005   -2.201671   -1.104272
     33          1           0        3.917757   -1.626016    0.859830
     34          1           0        4.112597   -2.227410   -0.793273
     35          1           0        3.497469   -0.597145   -0.513653
     36          1           0        2.112617    0.750260    0.459980
     37          1           0        0.439785    0.972824   -2.091312
     38          1           0        2.152061    1.330777   -1.882469
     39          1           0        1.592321   -0.332602   -1.819634
     40          1           0       -0.219088    2.560860   -0.264170
     41          1           0        0.494310    2.444970    1.331725
     42          1           0        1.944419    3.398852   -1.196951
     43          1           0        1.492192    4.350006    0.218293
     44          1           0        2.743102    3.105012    0.354523
 ---------------------------------------------------------------------

 SCF Done:  E(UB3LYP) =  -551.770751447     A.U. after   28 cycles

 The electronic state is 2-A.
 Alpha  occ. eigenvalues --  -10.08726 -10.07526 -10.07367 -10.06917 -10.06812
 Alpha  occ. eigenvalues --  -10.06629 -10.06339 -10.06321 -10.06167 -10.06135
 Alpha  occ. eigenvalues --  -10.06116 -10.05804 -10.05799 -10.05708  -0.74402
 Alpha  occ. eigenvalues --   -0.70068  -0.68681  -0.66344  -0.63700  -0.62287
 Alpha  occ. eigenvalues --   -0.58911  -0.57396  -0.54465  -0.53060  -0.50848
 Alpha  occ. eigenvalues --   -0.47866  -0.46429  -0.43141  -0.38041  -0.37794
 Alpha  occ. eigenvalues --   -0.35711  -0.35588  -0.34815  -0.33632  -0.33173
 Alpha  occ. eigenvalues --   -0.32060  -0.31668  -0.31356  -0.30708  -0.29833
 Alpha  occ. eigenvalues --   -0.28484  -0.28323  -0.28146  -0.26972  -0.26517
 Alpha  occ. eigenvalues --   -0.26201  -0.25531  -0.24936  -0.24577  -0.24375
 Alpha  occ. eigenvalues --   -0.24032  -0.23169  -0.22621  -0.21680  -0.20171
 Alpha  occ. eigenvalues --   -0.19273  -0.18990   0.04331
 Alpha virt. eigenvalues --    0.06101   0.06346   0.07089   0.07856   0.08135
 Alpha virt. eigenvalues --    0.08702   0.08878   0.09075   0.10285   0.10391
 Alpha virt. eigenvalues --    0.10823   0.11214   0.11443   0.11625   0.11970

  Beta  occ. eigenvalues --  -10.08725 -10.07519 -10.07359 -10.06903 -10.06796
  Beta  occ. eigenvalues --  -10.06618 -10.06332 -10.06311 -10.06144 -10.06108
  Beta  occ. eigenvalues --  -10.06085 -10.05790 -10.05783 -10.05693  -0.74386
  Beta  occ. eigenvalues --   -0.70045  -0.68656  -0.66315  -0.63672  -0.62256
  Beta  occ. eigenvalues --   -0.58874  -0.57356  -0.54421  -0.53013  -0.50794
  Beta  occ. eigenvalues --   -0.47816  -0.46382  -0.43116  -0.38020  -0.37772
  Beta  occ. eigenvalues --   -0.35680  -0.35564  -0.34788  -0.33607  -0.33143
  Beta  occ. eigenvalues --   -0.32029  -0.31649  -0.31329  -0.30684  -0.29809
  Beta  occ. eigenvalues --   -0.28459  -0.28295  -0.28118  -0.26945  -0.26484
  Beta  occ. eigenvalues --   -0.26178  -0.25500  -0.24905  -0.24547  -0.24351
  Beta  occ. eigenvalues --   -0.24007  -0.23139  -0.22597  -0.21653  -0.20140
  Beta  occ. eigenvalues --   -0.19257  -0.18973
  Beta virt. eigenvalues --    0.06213   0.06895   0.07024   0.07420   0.08346
  Beta virt. eigenvalues --    0.08581   0.09001   0.09190   0.09408   0.10657
  Beta virt. eigenvalues --    0.10826   0.11076   0.11514   0.11738   0.11867

 Mulliken charges and spin densities:
               1          2
     1  C    0.443011  -1.074330
     2  C   -0.393459  -0.052072
     3  C   -0.187021   0.057592
     4  C   -1.013542   0.977388
     5  C    0.028689  -0.841188
     6  C    1.506898  -0.251492
     7  C    0.101456  -0.694637
     8  C   -0.197438  -0.241342
     9  C   -0.620847   0.502415
    10  C    0.688398  -1.313937
    11  C   -0.310434   0.049394
    12  C    0.359965  -1.006536
    13  C   -1.108531   0.859199
    14  C    0.595295  -1.237627
    15  H   -0.348154   0.494480
    16  H   -0.421270   0.571066
    17  H    0.063054   0.076507
    18  H    0.060713   0.060035
    19  H   -0.282298   0.440198
    20  H    0.136892  -0.000990
    21  H    0.020872   0.099416
    22  H    0.597268  -0.423986
    23  H   -0.018974   0.185074
    24  H   -0.104448   0.261579
    25  H    0.006932   0.130908
    26  H    0.004335   0.144791
    27  H   -0.154548   0.315948
    28  H   -0.025766   0.140859
    29  H    0.132697   0.024321
    30  H   -0.105397   0.279542
    31  H   -0.246928   0.405601
    32  H    0.162846  -0.050594
    33  H   -0.149795   0.283346
    34  H   -0.245415   0.384801
    35  H   -0.100633   0.260589
    36  H    0.420357  -0.251273
    37  H    0.018060   0.147941
    38  H    0.017946   0.123761
    39  H    0.240683  -0.131740
    40  H   -0.038155   0.181774
    41  H    0.020920   0.130713
    42  H   -0.095179   0.233193
    43  H   -0.275326   0.427296
    44  H   -0.183728   0.322021
 Sum of Mulliken charges =  -1.00000   1.00000

 Dipole moment (field-independent basis, Debye):
    X=              0.6751    Y=             -0.3752    Z=             -0.7102  Tot=              1.0493
 Quadrupole moment (field-independent basis, Debye-Ang):
   XX=           -181.3996   YY=           -156.0545   ZZ=           -130.9690
   XY=             -0.9605   XZ=              0.3162   YZ=              0.1189

 Summary of Natural Population Analysis:

                                       Natural Population
                Natural  -----------------------------------------------
    Atom  No    Charge         Core      Valence    Rydberg      Total
 -----------------------------------------------------------------------
      C    1   -0.28715      0.99967     2.28267    0.00481     3.28715
      C    2   -0.18777      0.99964     2.18012    0.00801     3.18777
      C    3   -0.19028      0.99960     2.18156    0.00912     3.19028
      C    4   -0.10996      0.99956     2.09853    0.01188     3.10996
      C    5   -0.28724      0.99964     2.28150    0.00611     3.28724
      C    6   -0.02691      0.99954     2.01323    0.01414     3.02691
      C    7   -0.28521      0.99963     2.27817    0.00741     3.28521
      C    8   -0.18858      0.99958     2.17790    0.01109     3.18858
      C    9   -0.19497      0.99963     2.18754    0.00780     3.19497
      C   10   -0.28447      0.99966     2.27985    0.00496     3.28447
      C   11   -0.11110      0.99956     2.09972    0.01181     3.11110
      C   12   -0.29047      0.99964     2.28477    0.00606     3.29047
      C   13   -0.19007      0.99961     2.18213    0.00833     3.19007
      C   14   -0.28381      0.99967     2.27940    0.00475     3.28381
      H   15    0.09633      0.00000     0.40255    0.00113     0.40367
      H   16    0.09916      0.00000     0.39979    0.00105     0.40084
      H   17    0.09591      0.00000     0.40300    0.00109     0.40409
      H   18    0.09232      0.00000     0.40655    0.00112     0.40768
      H   19    0.09547      0.00000     0.40353    0.00100     0.40453
      H   20    0.09579      0.00000     0.40269    0.00152     0.40421
      H   21    0.09746      0.00000     0.40094    0.00160     0.40254
      H   22    0.09524      0.00000     0.40232    0.00245     0.40476
      H   23    0.09738      0.00000     0.40162    0.00100     0.40262
      H   24    0.10009      0.00000     0.39894    0.00097     0.39991
      H   25    0.09907      0.00000     0.40002    0.00090     0.40093
      H   26    0.09989      0.00000     0.39911    0.00101     0.40011
      H   27    0.09944      0.00000     0.39961    0.00095     0.40056
      H   28    0.10048      0.00000     0.39837    0.00114     0.39952
      H   29    0.09639      0.00000     0.40226    0.00136     0.40361
      H   30    0.09887      0.00000     0.39994    0.00118     0.40113
      H   31    0.09614      0.00000     0.40281    0.00105     0.40386
      H   32    0.09608      0.00000     0.40250    0.00142     0.40392
      H   33    0.09515      0.00000     0.40377    0.00107     0.40485
      H   34    0.09740      0.00000     0.40169    0.00091     0.40260
      H   35    0.09717      0.00000     0.40161    0.00122     0.40283
      H   36    0.09500      0.00000     0.40278    0.00222     0.40500
      H   37    0.09697      0.00000     0.40202    0.00101     0.40303
      H   38    0.10003      0.00000     0.39914    0.00083     0.39997
      H   39    0.10113      0.00000     0.39779    0.00108     0.39887
      H   40    0.09554      0.00000     0.40295    0.00151     0.40446
      H   41    0.09834      0.00000     0.40033    0.00133     0.40166
      H   42    0.09527      0.00000     0.40384    0.00090     0.40473
      H   43    0.09903      0.00000     0.40012    0.00086     0.40097
      H   44    0.09545      0.00000     0.40349    0.00106     0.40455
 =======================================================================
   * Total *   -0.00000     13.99462    42.85315    0.15223    57.00000

 Normal termination of Gaussian 16 at Thu Dec 10 11:43:21 2020.
