 Gaussian 16, Revision A.03,

 -----------------------------------------------------------
 # opt freq B3LYP/6-31G(d) empiricaldispersion=gd3bj scf=xqc
 -----------------------------------------------------------

 -------------------------------
 CID_142702479_JID_2351_neutraal
 -------------------------------
 Symbolic Z-matrix:
 Charge =  0 Multiplicity = 1

 SCF Done:  E(RB3LYP) =  -534.892255984     A.U. after   14 cycles
 SCF Done:  E(RB3LYP) =  -534.898492144     A.U. after   12 cycles
 SCF Done:  E(RB3LYP) =  -534.899772443     A.U. after   11 cycles
 SCF Done:  E(RB3LYP) =  -534.900216990     A.U. after   11 cycles
 SCF Done:  E(RB3LYP) =  -534.900468533     A.U. after   11 cycles
 SCF Done:  E(RB3LYP) =  -534.900654321     A.U. after   12 cycles
 SCF Done:  E(RB3LYP) =  -534.901024838     A.U. after   11 cycles
 SCF Done:  E(RB3LYP) =  -534.901385691     A.U. after   12 cycles
 SCF Done:  E(RB3LYP) =  -534.901466063     A.U. after   11 cycles
 SCF Done:  E(RB3LYP) =  -534.901505223     A.U. after   12 cycles
 SCF Done:  E(RB3LYP) =  -534.901599276     A.U. after   10 cycles
 SCF Done:  E(RB3LYP) =  -534.901603727     A.U. after   10 cycles
 SCF Done:  E(RB3LYP) =  -534.901606512     A.U. after    9 cycles
 SCF Done:  E(RB3LYP) =  -534.901606633     A.U. after    8 cycles
 SCF Done:  E(RB3LYP) =  -534.901606693     A.U. after    7 cycles
 Optimization completed.
    -- Stationary point found.
 Normal termination of Gaussian 16 at Wed Dec  9 17:12:19 2020.

 --------------------------------------------------------------------
 #N Geom=AllCheck Guess=TCheck SCRF=Check GenChk RB3LYP/6-31G(d) Freq
 --------------------------------------------------------------------

 Structure from the checkpoint file:  "JID_2351.chk"
 -------------------------------
 CID_142702479_JID_2351_neutraal
 -------------------------------
 Charge =  0 Multiplicity = 1

 SCF Done:  E(RB3LYP) =  -534.901606693     A.U. after    1 cycles

  Exact polarizability: 157.185  -9.716 117.905  -0.054   3.366  62.527
 Approx polarizability: 214.697 -37.374 194.845  -4.972   8.839  94.246

                      1                      2                      3
                      A                      A                      A
 Frequencies --     52.9977                92.1482               115.2063
 Red. masses --      2.9971                 2.8114                 2.1812
 Frc consts  --      0.0050                 0.0141                 0.0171
 IR Inten    --      1.4032                 2.4819                 0.3817

                      4                      5                      6
                      A                      A                      A
 Frequencies --    123.7497               134.9194               176.9737
 Red. masses --      1.8848                 1.3862                 1.6741
 Frc consts  --      0.0170                 0.0149                 0.0309
 IR Inten    --      0.6323                 1.1399                 1.4509

                      7                      8                      9
                      A                      A                      A
 Frequencies --    196.0819               248.2434               263.3429
 Red. masses --      2.1677                 2.9802                 2.6322
 Frc consts  --      0.0491                 0.1082                 0.1075
 IR Inten    --      1.8590                 6.4336                 1.3099

                     10                     11                     12
                      A                      A                      A
 Frequencies --    315.9144               362.6305               376.6351
 Red. masses --      3.6972                 4.8614                 4.5450
 Frc consts  --      0.2174                 0.3767                 0.3799
 IR Inten    --      1.3218                 2.4815                12.1265

                     13                     14                     15
                      A                      A                      A
 Frequencies --    499.2996               558.5988               622.4604
 Red. masses --      3.3954                 2.6556                 2.8362
 Frc consts  --      0.4987                 0.4882                 0.6475
 IR Inten    --      1.0529                31.1361                72.8114

                     16                     17                     18
                      A                      A                      A
 Frequencies --    628.6676               634.1298               675.9207
 Red. masses --      5.1534                 3.5540                 3.4061
 Frc consts  --      1.2000                 0.8420                 0.9168
 IR Inten    --      1.7531                30.4303                13.9312

                     19                     20                     21
                      A                      A                      A
 Frequencies --    732.8620               748.8078               768.7348
 Red. masses --      3.1056                 2.6573                 1.4209
 Frc consts  --      0.9828                 0.8779                 0.4947
 IR Inten    --     62.4050               239.7715                28.4065

                     22                     23                     24
                      A                      A                      A
 Frequencies --    806.8514               906.3558               916.4510
 Red. masses --      1.3230                 2.7401                 2.5428
 Frc consts  --      0.5075                 1.3262                 1.2583
 IR Inten    --     19.4220                36.5699                41.3177

                     25                     26                     27
                      A                      A                      A
 Frequencies --    953.1783               976.8072              1024.0410
 Red. masses --      2.1735                 3.2611                 2.9549
 Frc consts  --      1.1635                 1.8333                 1.8257
 IR Inten    --      8.4119                 6.1752                 4.4626

                     28                     29                     30
                      A                      A                      A
 Frequencies --   1039.4872              1045.1100              1072.2124
 Red. masses --      1.8409                 1.6236                 2.8319
 Frc consts  --      1.1719                 1.0449                 1.9182
 IR Inten    --      4.3499                16.3249                45.0153

                     31                     32                     33
                      A                      A                      A
 Frequencies --   1077.8403              1084.6817              1117.1309
 Red. masses --      1.4245                 1.4536                 2.7998
 Frc consts  --      0.9750                 1.0077                 2.0587
 IR Inten    --      1.0752                 2.8513                11.5080

                     34                     35                     36
                      A                      A                      A
 Frequencies --   1140.7101              1164.1775              1220.2411
 Red. masses --      1.8752                 1.8491                 1.0894
 Frc consts  --      1.4377                 1.4766                 0.9557
 IR Inten    --     63.0547                 2.3122                 3.6658

                     37                     38                     39
                      A                      A                      A
 Frequencies --   1230.9065              1253.9880              1272.6818
 Red. masses --      3.2847                 4.2513                 1.5331
 Frc consts  --      2.9322                 3.9387                 1.4631
 IR Inten    --      1.5147                44.6478                 1.4706

                     40                     41                     42
                      A                      A                      A
 Frequencies --   1327.0600              1376.0637              1431.7226
 Red. masses --      3.0065                 1.3380                 1.4805
 Frc consts  --      3.1196                 1.4928                 1.7880
 IR Inten    --     29.3186                 0.7117                 1.3820

                     43                     44                     45
                      A                      A                      A
 Frequencies --   1437.6758              1445.4368              1454.6686
 Red. masses --      1.4806                 1.2997                 1.8767
 Frc consts  --      1.8031                 1.5999                 2.3397
 IR Inten    --     95.6672                 3.6972                11.7078

                     46                     47                     48
                      A                      A                      A
 Frequencies --   1485.0156              1502.6419              1517.3651
 Red. masses --      2.3103                 1.0431                 1.0933
 Frc consts  --      3.0018                 1.3877                 1.4832
 IR Inten    --      7.6115                 5.9543                 2.2148

                     49                     50                     51
                      A                      A                      A
 Frequencies --   1519.6215              1522.7929              1573.9763
 Red. masses --      1.0505                 1.1314                 1.1000
 Frc consts  --      1.4293                 1.5458                 1.6056
 IR Inten    --      5.2338                 7.1857                15.0122

                     52                     53                     54
                      A                      A                      A
 Frequencies --   1627.7060              1672.3655              1738.4485
 Red. masses --      5.9172                 6.5744                 7.3424
 Frc consts  --      9.2367                10.8334                13.0741
 IR Inten    --     26.4046                 5.0948                15.5271

                     55                     56                     57
                      A                      A                      A
 Frequencies --   2904.7570              3032.7095              3043.4782
 Red. masses --      1.0778                 1.0433                 1.0381
 Frc consts  --      5.3579                 5.6534                 5.6655
 IR Inten    --    162.7103                53.2801                45.3449

                     58                     59                     60
                      A                      A                      A
 Frequencies --   3063.7105              3082.4437              3092.3341
 Red. masses --      1.0885                 1.0973                 1.1015
 Frc consts  --      6.0196                 6.1428                 6.2058
 IR Inten    --     78.4121                19.5908                19.3365

                     61                     62                     63
                      A                      A                      A
 Frequencies --   3140.3900              3157.6799              3263.2958
 Red. masses --      1.0993                 1.0975                 1.0968
 Frc consts  --      6.3876                 6.4474                 6.8813
 IR Inten    --     12.1420                 1.4796                 1.7219

                     64                     65                     66
                      A                      A                      A
 Frequencies --   3267.0175              3506.4743              3516.6142
 Red. masses --      1.0962                 1.0761                 1.0760
 Frc consts  --      6.8936                 7.7956                 7.8403
 IR Inten    --      8.6732                 1.5207                 1.3968

 - Thermochemistry -
 -------------------
 Temperature   298.150 Kelvin.  Pressure   1.00000 Atm.
 Atom     1 has atomic number  6 and mass  12.00000

 Molecular mass:   164.09496 amu.
 Principal axes and moments of inertia in atomic units:
                           1         2         3
     Eigenvalues --   868.953793245.281324006.91805
           X            0.99990   0.01335   0.00455
           Y           -0.01334   0.99991  -0.00220
           Z           -0.00458   0.00213   0.99999
 This molecule is an asymmetric top.
 Rotational symmetry number  1.
 Warning -- assumption of classical behavior for rotation
           may cause significant error
 Rotational temperatures (Kelvin)      0.09968     0.02669     0.02162
 Rotational constants (GHZ):           2.07691     0.55611     0.45041
 Zero-point vibrational energy     528358.5 (Joules/Mol)
                                  126.28071 (Kcal/Mol)
 Warning -- explicit consideration of  14 degrees of freedom as
           vibrations may cause significant error
 Vibrational temperatures:     76.25   132.58   165.76   178.05   194.12
          (Kelvin)            254.63   282.12   357.17   378.89   454.53
                              521.74   541.89   718.38   803.70   895.58
                              904.51   912.37   972.50  1054.42  1077.37
                             1106.04  1160.88  1304.04  1318.57  1371.41
                             1405.41  1473.37  1495.59  1503.68  1542.67
                             1550.77  1560.62  1607.30  1641.23  1674.99
                             1755.65  1771.00  1804.21  1831.11  1909.34
                             1979.85  2059.93  2068.49  2079.66  2092.94
                             2136.61  2161.97  2183.15  2186.40  2190.96
                             2264.60  2341.91  2406.16  2501.24  4179.30
                             4363.39  4378.89  4408.00  4434.95  4449.18
                             4518.32  4543.20  4695.15  4700.51  5045.03
                             5059.62

 Zero-point correction=                           0.201241 (Hartree/Particle)
 Thermal correction to Energy=                    0.212809
 Thermal correction to Enthalpy=                  0.213753
 Thermal correction to Gibbs Free Energy=         0.163428
 Sum of electronic and zero-point Energies=           -534.700366
 Sum of electronic and thermal Energies=              -534.688797
 Sum of electronic and thermal Enthalpies=            -534.687853
 Sum of electronic and thermal Free Energies=         -534.738179

                     E (Thermal)             CV                S
                      KCal/Mol        Cal/Mol-Kelvin    Cal/Mol-Kelvin
 Total                  133.540             42.957            105.919
 Electronic               0.000              0.000              0.000
 Translational            0.889              2.981             41.194
 Rotational               0.889              2.981             30.803
 Vibrational            131.762             36.996             33.922
 Vibration     1          0.596              1.976              4.702
 Vibration     2          0.602              1.955              3.614
 Vibration     3          0.608              1.937              3.179
 Vibration     4          0.610              1.929              3.041
 Vibration     5          0.613              1.918              2.875
 Vibration     6          0.628              1.871              2.360
 Vibration     7          0.636              1.845              2.170
 Vibration     8          0.662              1.766              1.743
 Vibration     9          0.670              1.740              1.640
 Vibration    10          0.703              1.643              1.331
 Vibration    11          0.736              1.549              1.111
 Vibration    12          0.747              1.520              1.053
 Vibration    13          0.855              1.252              0.660
 Vibration    14          0.914              1.121              0.527

 Optimization completed.
    -- Stationary point found.
 Normal termination of Gaussian 16 at Wed Dec  9 17:17:18 2020.

 ----------------------------------------------------------------------
 # B3LYP/6-311++G(d,p) empiricaldispersion=gd3bj scf=xqc pop=npa geom=c
 heck
 ----------------------------------------------------------------------

 ---------------------------------------
 CID_142702479_JID_2351_Energie_neutraal
 ---------------------------------------
 Structure from the checkpoint file:  "JID_2351.chk"
 Charge =  0 Multiplicity = 1

 SCF Done:  E(RB3LYP) =  -535.053215026     A.U. after   15 cycles
 Normal termination of Gaussian 16 at Wed Dec  9 17:19:16 2020.

 ----------------------------------------------------------------------
 # B3LYP/6-311++G(d,p) empiricaldispersion=gd3bj scf=xqc pop=npa geom=c
 heck
 ----------------------------------------------------------------------

 -------------------------------------
 CID_142702479_JID_2351_Energie_kation
 -------------------------------------
 Structure from the checkpoint file:  "JID_2351.chk"
 Charge =  1 Multiplicity = 2

 SCF Done:  E(UB3LYP) =  -534.815317621     A.U. after   20 cycles
 Normal termination of Gaussian 16 at Wed Dec  9 17:22:37 2020.
 Gaussian 16:  ES64L-G16RevA.03 25-Dec-2016

 ----------------------------------------------------------------------
 # B3LYP/6-311++G(d,p) empiricaldispersion=gd3bj scf=xqc pop=npa geom=c
 heck
 ----------------------------------------------------------------------

 ------------------------------------
 CID_142702479_JID_2351_Energie_anion
 ------------------------------------
 Structure from the checkpoint file:  "JID_2351.chk"
 Charge = -1 Multiplicity = 2

                         Standard orientation:
 ---------------------------------------------------------------------
 Center     Atomic      Atomic             Coordinates (Angstroms)
 Number     Number       Type             X           Y           Z
 ---------------------------------------------------------------------
      1          6           0       -3.852464   -1.157196    0.163545
      2          6           0       -2.470105   -0.616873    0.074287
      3          6           0       -1.236342   -1.184678    0.088690
      4          6           0       -0.272718   -0.113697   -0.023562
      5          6           0       -1.006311    1.044964   -0.102181
      6          8           0       -2.346759    0.744808   -0.038965
      7          6           0       -0.664032    2.481799   -0.277440
      8          6           0        1.168188   -0.268555   -0.031813
      9          6           0        1.909181   -1.340780   -0.362419
     10          7           0        3.293417   -1.020582   -0.351099
     11          6           0        3.392032    0.255271    0.385540
     12          7           0        2.040062    0.835921    0.253133
     13          1           0       -4.385201   -0.758618    1.035880
     14          1           0       -4.442254   -0.901206   -0.725379
     15          1           0       -3.819720   -2.246637    0.250436
     16          1           0       -1.015406   -2.238336    0.187866
     17          1           0       -1.194665    2.904784   -1.139306
     18          1           0       -0.942603    3.081225    0.600093
     19          1           0        0.409503    2.583008   -0.449330
     20          1           0        1.574900   -2.285242   -0.768570
     21          1           0        3.883043   -1.747939    0.043433
     22          1           0        3.663560    0.095624    1.448013
     23          1           0        4.146331    0.909810   -0.065751
     24          1           0        1.757650    1.336166    1.092214
 ---------------------------------------------------------------------

 SCF Done:  E(UB3LYP) =  -535.039195787     A.U. after   33 cycles
 SCF Done:  E(UB3LYP) =  -535.039195787     a.u. after    1 cycles

 The electronic state is 2-A.
 Alpha  occ. eigenvalues --  -19.07748 -14.20928 -14.20842 -10.12393 -10.12035
 Alpha  occ. eigenvalues --  -10.12004 -10.09003 -10.07981 -10.07945 -10.07459
 Alpha  occ. eigenvalues --  -10.07383 -10.06305  -1.00250  -0.86584  -0.75930
 Alpha  occ. eigenvalues --   -0.70697  -0.69471  -0.64042  -0.62999  -0.55873
 Alpha  occ. eigenvalues --   -0.52825  -0.51081  -0.46752  -0.45510  -0.40895
 Alpha  occ. eigenvalues --   -0.38496  -0.36790  -0.35938  -0.33583  -0.33221
 Alpha  occ. eigenvalues --   -0.32406  -0.32253  -0.31174  -0.29901  -0.29454
 Alpha  occ. eigenvalues --   -0.29091  -0.28483  -0.27869  -0.25949  -0.23624
 Alpha  occ. eigenvalues --   -0.18910  -0.16649  -0.11761  -0.06425   0.04406
 Alpha virt. eigenvalues --    0.06089   0.07251   0.08463   0.08824   0.09066
 Alpha virt. eigenvalues --    0.09555   0.10077   0.10551   0.11079   0.11894
 Alpha virt. eigenvalues --    0.12353   0.13020   0.13518   0.14454   0.15048

  Beta  occ. eigenvalues --  -19.07741 -14.20901 -14.20822 -10.12392 -10.12003
  Beta  occ. eigenvalues --  -10.11996 -10.09003 -10.07945 -10.07933 -10.07458
  Beta  occ. eigenvalues --  -10.07367 -10.06294  -1.00241  -0.86549  -0.75882
  Beta  occ. eigenvalues --   -0.70682  -0.69451  -0.64007  -0.62959  -0.55833
  Beta  occ. eigenvalues --   -0.52735  -0.51057  -0.46720  -0.45453  -0.40850
  Beta  occ. eigenvalues --   -0.38453  -0.36770  -0.35904  -0.33546  -0.33165
  Beta  occ. eigenvalues --   -0.32377  -0.32206  -0.31131  -0.29867  -0.29417
  Beta  occ. eigenvalues --   -0.29068  -0.28459  -0.27848  -0.25926  -0.23601
  Beta  occ. eigenvalues --   -0.18877  -0.16632  -0.11745  -0.06393
  Beta virt. eigenvalues --    0.06572   0.07351   0.07907   0.08974   0.09221
  Beta virt. eigenvalues --    0.09743   0.09891   0.10410   0.11131   0.11502
  Beta virt. eigenvalues --    0.12120   0.12571   0.13375   0.13673   0.14584

 Mulliken charges and spin densities:
               1          2
     1  C    2.434264  -3.069560
     2  C   -1.500270   1.254331
     3  C   -1.087061   1.175890
     4  C    0.195037   0.644722
     5  C   -0.246068  -0.208849
     6  O   -0.051758   0.053624
     7  C    0.542521  -1.164374
     8  C   -0.729787   0.294000
     9  C    0.768886  -0.890195
    10  N   -0.319486   0.198009
    11  C    1.810415  -2.132542
    12  N   -0.283039   0.206193
    13  H   -0.148732   0.301347
    14  H   -0.133408   0.284889
    15  H   -0.430932   0.599731
    16  H   -0.327744   0.488821
    17  H    0.065749   0.077246
    18  H   -0.145622   0.302747
    19  H    0.118689   0.067478
    20  H   -0.273008   0.422737
    21  H   -0.199048   0.446353
    22  H   -0.973204   1.141946
    23  H   -0.015177   0.194056
    24  H   -0.071215   0.311400
 Sum of Mulliken charges =  -1.00000   1.00000

 Dipole moment (field-independent basis, Debye):
    X=             -2.8355    Y=              2.5308    Z=             -2.5801  Tot=              4.5937
 Quadrupole moment (field-independent basis, Debye-Ang):
   XX=           -151.5275   YY=           -108.4977   ZZ=           -103.6014
   XY=             -2.5600   XZ=             -6.5001   YZ=             -0.6664

 Summary of Natural Population Analysis:

                                       Natural Population
                Natural  -----------------------------------------------
    Atom  No    Charge         Core      Valence    Rydberg      Total
 -----------------------------------------------------------------------
      C    1   -0.30341      0.99963     2.29860    0.00518     3.30341
      C    2    0.15270      0.99947     1.83442    0.01341     2.84730
      C    3   -0.13691      0.99946     2.12889    0.00856     3.13691
      C    4   -0.07748      0.99945     2.06718    0.01085     3.07748
      C    5    0.15555      0.99944     1.83193    0.01308     2.84445
      O    6   -0.24848      0.99985     3.23992    0.00872     4.24848
      C    7   -0.30944      0.99963     2.30476    0.00505     3.30944
      C    8    0.04753      0.99946     1.93978    0.01323     2.95247
      C    9   -0.01992      0.99947     2.00837    0.01207     3.01992
      N   10   -0.32971      0.99974     2.81719    0.01278     3.82971
      C   11    0.02020      0.99966     1.96698    0.01316     2.97980
      N   12   -0.33212      0.99972     2.82061    0.01179     3.83212
      H   13    0.10533      0.00000     0.39285    0.00182     0.39467
      H   14    0.10452      0.00000     0.39366    0.00182     0.39548
      H   15    0.10931      0.00000     0.38915    0.00154     0.39069
      H   16    0.10934      0.00000     0.38964    0.00102     0.39066
      H   17    0.10249      0.00000     0.39594    0.00157     0.39751
      H   18    0.10239      0.00000     0.39579    0.00182     0.39761
      H   19    0.11823      0.00000     0.38031    0.00146     0.38177
      H   20    0.10055      0.00000     0.39832    0.00114     0.39945
      H   21    0.18554      0.00000     0.30982    0.00464     0.31446
      H   22    0.07605      0.00000     0.41806    0.00588     0.42395
      H   23    0.08376      0.00000     0.41450    0.00174     0.41624
      H   24    0.18396      0.00000     0.31207    0.00397     0.31604
 =======================================================================
   * Total *    0.00000     11.99498    31.84874    0.15627    44.00000

 Normal termination of Gaussian 16 at Wed Dec  9 17:28:21 2020.
