 Gaussian 16, Revision A.03,

 -----------------------------------------------------------
 # opt freq B3LYP/6-31G(d) empiricaldispersion=gd3bj scf=xqc
 -----------------------------------------------------------

 -------------------------------
 CID_118319517_JID_2429_neutraal
 -------------------------------
 Symbolic Z-matrix:
 Charge =  0 Multiplicity = 1

 SCF Done:  E(RB3LYP) =  -545.951208648     A.U. after   14 cycles
 SCF Done:  E(RB3LYP) =  -545.955398295     A.U. after   12 cycles
 SCF Done:  E(RB3LYP) =  -545.955721445     A.U. after   11 cycles
 SCF Done:  E(RB3LYP) =  -545.955916084     A.U. after   11 cycles
 SCF Done:  E(RB3LYP) =  -545.956147272     A.U. after   12 cycles
 SCF Done:  E(RB3LYP) =  -545.956295637     A.U. after   11 cycles
 SCF Done:  E(RB3LYP) =  -545.956521953     A.U. after   11 cycles
 SCF Done:  E(RB3LYP) =  -545.956712564     A.U. after   12 cycles
 SCF Done:  E(RB3LYP) =  -545.956727581     A.U. after   10 cycles
 SCF Done:  E(RB3LYP) =  -545.956737114     A.U. after    9 cycles
 SCF Done:  E(RB3LYP) =  -545.956738966     A.U. after    8 cycles
 SCF Done:  E(RB3LYP) =  -545.956739435     A.U. after    8 cycles
 SCF Done:  E(RB3LYP) =  -545.956739653     A.U. after    7 cycles
 SCF Done:  E(RB3LYP) =  -545.956739717     A.U. after    7 cycles
 Optimization completed.
    -- Stationary point found.
 Normal termination of Gaussian 16 at Wed Dec  9 17:19:06 2020.

 --------------------------------------------------------------------
 #N Geom=AllCheck Guess=TCheck SCRF=Check GenChk RB3LYP/6-31G(d) Freq
 --------------------------------------------------------------------

 Structure from the checkpoint file:  "JID_2429.chk"
 -------------------------------
 CID_118319517_JID_2429_neutraal
 -------------------------------
 Charge =  0 Multiplicity = 1

 SCF Done:  E(RB3LYP) =  -545.956739717     A.U. after    1 cycles

  Exact polarizability: 143.494  -1.787 115.273  -3.134  -1.394  48.039
 Approx polarizability: 214.947  -2.647 208.752  -5.754  -1.503  73.709

                      1                      2                      3
                      A                      A                      A
 Frequencies --     55.6577               105.9582               154.7019
 Red. masses --      3.4242                 3.1415                 3.9386
 Frc consts  --      0.0062                 0.0208                 0.0555
 IR Inten    --      1.2920                 4.4356                 2.6636

                      4                      5                      6
                      A                      A                      A
 Frequencies --    197.4630               233.8842               282.4476
 Red. masses --      4.3127                 2.0833                 2.7879
 Frc consts  --      0.0991                 0.0671                 0.1310
 IR Inten    --      5.5746                20.1750                 5.4195

                      7                      8                      9
                      A                      A                      A
 Frequencies --    292.6737               323.4418               344.6897
 Red. masses --      3.3453                 1.9168                 3.0831
 Frc consts  --      0.1688                 0.1181                 0.2158
 IR Inten    --     13.2361                71.2375                10.9887

                     10                     11                     12
                      A                      A                      A
 Frequencies --    361.9476               382.8108               529.6173
 Red. masses --      1.3135                 1.3057                 7.3369
 Frc consts  --      0.1014                 0.1127                 1.2125
 IR Inten    --     58.0191                85.7851                 0.7528

                     13                     14                     15
                      A                      A                      A
 Frequencies --    564.4386               570.1677               608.4279
 Red. masses --      3.8291                 3.2749                 3.2688
 Frc consts  --      0.7188                 0.6273                 0.7129
 IR Inten    --     35.0176                16.8859                17.3611

                     16                     17                     18
                      A                      A                      A
 Frequencies --    623.6687               648.9407               702.9785
 Red. masses --      3.1741                 2.5326                 6.3072
 Frc consts  --      0.7274                 0.6284                 1.8364
 IR Inten    --     69.1789                82.4875                 0.8466

                     19                     20                     21
                      A                      A                      A
 Frequencies --    719.5725               758.4479               809.0879
 Red. masses --      2.6816                 4.4655                 7.0436
 Frc consts  --      0.8181                 1.5135                 2.7167
 IR Inten    --    171.3107                 2.8743                20.9502

                     22                     23                     24
                      A                      A                      A
 Frequencies --    833.9932               893.4097               905.3683
 Red. masses --      1.3794                 1.3001                 6.9960
 Frc consts  --      0.5653                 0.6114                 3.3787
 IR Inten    --     25.9423                97.7281                14.0380

                     25                     26                     27
                      A                      A                      A
 Frequencies --    962.6803              1002.2307              1029.5561
 Red. masses --      1.4213                 4.5253                 1.8718
 Frc consts  --      0.7761                 2.6781                 1.1690
 IR Inten    --      2.7589                39.7151                25.4363

                     28                     29                     30
                      A                      A                      A
 Frequencies --   1060.0386              1089.3227              1109.3970
 Red. masses --      1.8787                 2.0337                 1.6965
 Frc consts  --      1.2438                 1.4219                 1.2302
 IR Inten    --      5.4925                11.3952                21.2665

                     31                     32                     33
                      A                      A                      A
 Frequencies --   1192.7927              1207.0474              1249.4348
 Red. masses --      1.2152                 3.3588                 2.1778
 Frc consts  --      1.0187                 2.8833                 2.0031
 IR Inten    --      6.4790                13.6408                 3.7332

                     34                     35                     36
                      A                      A                      A
 Frequencies --   1290.5637              1324.3560              1351.5373
 Red. masses --      3.0222                 1.5047                 3.0062
 Frc consts  --      2.9658                 1.5549                 3.2354
 IR Inten    --      2.4763                 3.8631                 4.8893

                     37                     38                     39
                      A                      A                      A
 Frequencies --   1369.2948              1400.4138              1425.1953
 Red. masses --      2.7627                 2.1456                 3.7029
 Frc consts  --      3.0520                 2.4792                 4.4313
 IR Inten    --      4.9317                40.2834                73.3894

                     40                     41                     42
                      A                      A                      A
 Frequencies --   1443.2361              1477.0258              1524.8831
 Red. masses --      1.8656                 2.5647                 2.7979
 Frc consts  --      2.2896                 3.2966                 3.8332
 IR Inten    --     34.2952               131.3748                18.5056

                     43                     44                     45
                      A                      A                      A
 Frequencies --   1539.7930              1588.1835              1614.3455
 Red. masses --      1.0994                 6.1581                 5.4939
 Frc consts  --      1.5358                 9.1516                 8.4357
 IR Inten    --      0.5173               109.9429                14.6427

                     46                     47                     48
                      A                      A                      A
 Frequencies --   1667.3809              1683.0696              1692.9972
 Red. masses --      2.0198                 2.0783                 1.1616
 Frc consts  --      3.3084                 3.4686                 1.9617
 IR Inten    --     37.0665               335.5549                23.7005

                     49                     50                     51
                      A                      A                      A
 Frequencies --   2990.1656              3044.3962              3184.3274
 Red. masses --      1.0712                 1.0903                 1.0901
 Frc consts  --      5.6432                 5.9541                 6.5128
 IR Inten    --     44.7818                35.4174                41.4652

                     52                     53                     54
                      A                      A                      A
 Frequencies --   3290.4483              3462.0909              3538.9781
 Red. masses --      1.0967                 1.0500                 1.0473
 Frc consts  --      6.9960                 7.4154                 7.7285
 IR Inten    --      0.0557                 3.0094                23.1005

                     55                     56                     57
                      A                      A                      A
 Frequencies --   3549.5777              3645.0784              3664.2346
 Red. masses --      1.0922                 1.0984                 1.0798
 Frc consts  --      8.1078                 8.5985                 8.5421
 IR Inten    --      1.2898                17.9631                57.7352

 - Thermochemistry -
 -------------------
 Temperature   298.150 Kelvin.  Pressure   1.00000 Atm.
 Atom     1 has atomic number  6 and mass  12.00000

 Molecular mass:   163.08580 amu.
 Principal axes and moments of inertia in atomic units:
                           1         2         3
     Eigenvalues --   872.697102702.205393529.81498
           X            0.99988   0.01579  -0.00007
           Y           -0.01579   0.99986  -0.00465
           Z           -0.00000   0.00465   0.99999
 This molecule is an asymmetric top.
 Rotational symmetry number  1.
 Warning -- assumption of classical behavior for rotation
           may cause significant error
 Rotational temperatures (Kelvin)      0.09925     0.03205     0.02454
 Rotational constants (GHZ):           2.06800     0.66788     0.51128
 Zero-point vibrational energy     446014.9 (Joules/Mol)
                                  106.60012 (Kcal/Mol)
 Warning -- explicit consideration of  15 degrees of freedom as
           vibrations may cause significant error
 Vibrational temperatures:     80.08   152.45   222.58   284.11   336.51
          (Kelvin)            406.38   421.09   465.36   495.93   520.76
                              550.78   762.00   812.10   820.34   875.39
                              897.32   933.68  1011.43  1035.30  1091.24
                             1164.10  1199.93  1285.42  1302.62  1385.08
                             1441.99  1481.30  1525.16  1567.29  1596.17
                             1716.16  1736.67  1797.66  1856.83  1905.45
                             1944.56  1970.11  2014.88  2050.54  2076.49
                             2125.11  2193.97  2215.42  2285.04  2322.68
                             2398.99  2421.56  2435.85  4302.18  4380.21
                             4581.54  4734.22  4981.18  5091.80  5107.05
                             5244.45  5272.02

 Zero-point correction=                           0.169878 (Hartree/Particle)
 Thermal correction to Energy=                    0.180157
 Thermal correction to Enthalpy=                  0.181101
 Thermal correction to Gibbs Free Energy=         0.134077
 Sum of electronic and zero-point Energies=           -545.786862
 Sum of electronic and thermal Energies=              -545.776583
 Sum of electronic and thermal Enthalpies=            -545.775639
 Sum of electronic and thermal Free Energies=         -545.822662

                     E (Thermal)             CV                S
                      KCal/Mol        Cal/Mol-Kelvin    Cal/Mol-Kelvin
 Total                  113.050             39.829             98.970
 Electronic               0.000              0.000              0.000
 Translational            0.889              2.981             41.176
 Rotational               0.889              2.981             30.499
 Vibrational            111.273             33.867             27.295
 Vibration     1          0.596              1.975              4.606
 Vibration     2          0.605              1.944              3.342
 Vibration     3          0.620              1.897              2.614
 Vibration     4          0.637              1.843              2.157
 Vibration     5          0.654              1.789              1.849
 Vibration     6          0.681              1.706              1.519
 Vibration     7          0.688              1.687              1.458
 Vibration     8          0.708              1.629              1.293
 Vibration     9          0.723              1.586              1.190
 Vibration    10          0.736              1.551              1.114
 Vibration    11          0.752              1.507              1.028
 Vibration    12          0.885              1.184              0.588
 Vibration    13          0.920              1.108              0.515
 Vibration    14          0.926              1.096              0.504
 Vibration    15          0.967              1.014              0.435

                           ! Non-Optimized Parameters !
 Normal termination of Gaussian 16 at Wed Dec  9 17:23:34 2020.

 ----------------------------------------------------------------------
 # B3LYP/6-311++G(d,p) empiricaldispersion=gd3bj scf=xqc pop=npa geom=c
 heck
 ----------------------------------------------------------------------

 ---------------------------------------
 CID_118319517_JID_2429_Energie_neutraal
 ---------------------------------------
 Structure from the checkpoint file:  "JID_2429.chk"
 Charge =  0 Multiplicity = 1

 SCF Done:  E(RB3LYP) =  -546.119362764     A.U. after   15 cycles
 Normal termination of Gaussian 16 at Wed Dec  9 17:24:55 2020.

 ----------------------------------------------------------------------
 # B3LYP/6-311++G(d,p) empiricaldispersion=gd3bj scf=xqc pop=npa geom=c
 heck
 ----------------------------------------------------------------------

 -------------------------------------
 CID_118319517_JID_2429_Energie_kation
 -------------------------------------
 Structure from the checkpoint file:  "JID_2429.chk"
 Charge =  1 Multiplicity = 2

 SCF Done:  E(UB3LYP) =  -545.827734486     A.U. after   27 cycles
 Normal termination of Gaussian 16 at Wed Dec  9 17:28:21 2020.
 Gaussian 16:  ES64L-G16RevA.03 25-Dec-2016

 ----------------------------------------------------------------------
 # B3LYP/6-311++G(d,p) empiricaldispersion=gd3bj scf=xqc pop=npa geom=c
 heck
 ----------------------------------------------------------------------

 ------------------------------------
 CID_118319517_JID_2429_Energie_anion
 ------------------------------------
 Structure from the checkpoint file:  "JID_2429.chk"
 Charge = -1 Multiplicity = 2

                         Standard orientation:
 ---------------------------------------------------------------------
 Center     Atomic      Atomic             Coordinates (Angstroms)
 Number     Number       Type             X           Y           Z
 ---------------------------------------------------------------------
      1          6           0        1.309578   -1.423481   -0.163020
      2          6           0        1.470989   -0.058021   -0.135518
      3          6           0        0.150076    0.500460   -0.065259
      4          6           0       -0.764670   -0.576572   -0.046578
      5          7           0       -0.034529   -1.749678   -0.081135
      6          6           0       -2.132886   -0.285157    0.039658
      7          7           0       -2.520322    0.992949    0.058784
      8          6           0       -1.565423    1.946804    0.016481
      9          7           0       -0.247893    1.793972   -0.028513
     10          7           0       -3.112621   -1.265433    0.052735
     11          6           0        2.763032    0.699933   -0.173881
     12          7           0        3.869745   -0.146842    0.296935
     13          1           0        2.067174   -2.190601   -0.222390
     14          1           0       -0.407851   -2.666391   -0.271896
     15          1           0       -1.935825    2.969739    0.033926
     16          1           0       -2.891042   -2.100576    0.581634
     17          1           0       -4.023403   -0.885623    0.287001
     18          1           0        2.992085    0.993282   -1.207478
     19          1           0        2.632762    1.640982    0.385447
     20          1           0        4.748555    0.358037    0.195567
     21          1           0        3.752714   -0.317423    1.295251
 ---------------------------------------------------------------------

 SCF Done:  E(UB3LYP) =  -546.113263819     A.U. after   33 cycles
 SCF Done:  E(UB3LYP) =  -546.113263819     a.u. after    1 cycles

 The electronic state is 2-A.
 Alpha  occ. eigenvalues --  -14.25239 -14.21466 -14.20099 -14.19417 -14.19369
 Alpha  occ. eigenvalues --  -10.14571 -10.11937 -10.09948 -10.09911 -10.09898
 Alpha  occ. eigenvalues --  -10.09499 -10.06224  -0.89088  -0.85780  -0.81717
 Alpha  occ. eigenvalues --   -0.78975  -0.75052  -0.67620  -0.64900  -0.57354
 Alpha  occ. eigenvalues --   -0.54739  -0.52525  -0.46365  -0.45879  -0.41701
 Alpha  occ. eigenvalues --   -0.39885  -0.38956  -0.38275  -0.35451  -0.34157
 Alpha  occ. eigenvalues --   -0.33287  -0.32552  -0.30748  -0.28803  -0.27388
 Alpha  occ. eigenvalues --   -0.26713  -0.24299  -0.19181  -0.17021  -0.15704
 Alpha  occ. eigenvalues --   -0.14557  -0.12693  -0.11376   0.04324
 Alpha virt. eigenvalues --    0.06039   0.07547   0.08226   0.09161   0.09514
 Alpha virt. eigenvalues --    0.10219   0.10412   0.11053   0.12084   0.12773
 Alpha virt. eigenvalues --    0.14123   0.14732   0.15361   0.16158   0.17031

  Beta  occ. eigenvalues --  -14.25170 -14.21374 -14.20074 -14.19405 -14.19349
  Beta  occ. eigenvalues --  -10.14532 -10.11935 -10.09940 -10.09918 -10.09847
  Beta  occ. eigenvalues --  -10.09493 -10.06230  -0.89030  -0.85712  -0.81635
  Beta  occ. eigenvalues --   -0.78932  -0.74982  -0.67549  -0.64842  -0.57282
  Beta  occ. eigenvalues --   -0.54667  -0.52444  -0.46265  -0.45806  -0.41634
  Beta  occ. eigenvalues --   -0.39806  -0.38902  -0.38192  -0.35392  -0.34092
  Beta  occ. eigenvalues --   -0.33222  -0.32503  -0.30717  -0.28751  -0.27309
  Beta  occ. eigenvalues --   -0.26691  -0.24182  -0.19137  -0.16941  -0.15668
  Beta  occ. eigenvalues --   -0.14531  -0.12583  -0.11281
  Beta virt. eigenvalues --    0.06428   0.07727   0.08211   0.08873   0.09582
  Beta virt. eigenvalues --    0.09738   0.10230   0.10745   0.11728   0.12586
  Beta virt. eigenvalues --    0.13565   0.14140   0.14893   0.15359   0.16220

 Mulliken charges and spin densities:
               1          2
     1  C   -0.314153   0.236557
     2  C    0.895986  -0.389384
     3  C   -0.155981  -0.376797
     4  C    1.154945  -0.928750
     5  N   -0.055338  -0.082735
     6  C   -0.909125   0.526337
     7  N   -0.119403  -0.087562
     8  C    0.066522   0.007148
     9  N   -0.130831   0.041182
    10  N   -0.273329  -0.034666
    11  C    0.550617  -1.285064
    12  N   -0.376652   0.020444
    13  H   -0.540638   0.744004
    14  H   -0.517526   0.839669
    15  H    0.153777   0.023282
    16  H   -0.590187   0.854081
    17  H   -0.096343   0.380518
    18  H    0.043168   0.118689
    19  H    0.107970   0.064974
    20  H    0.036969   0.188080
    21  H    0.069551   0.139994
 Sum of Mulliken charges =  -1.00000   1.00000

 Dipole moment (field-independent basis, Debye):
    X=              2.8266    Y=              6.4709    Z=             -0.2580  Tot=              7.0660
 Quadrupole moment (field-independent basis, Debye-Ang):
   XX=           -125.4146   YY=           -121.5771   ZZ=            -89.1369
   XY=             -8.2660   XZ=              4.0618   YZ=              1.2247

 Summary of Natural Population Analysis:

                                       Natural Population
                Natural  -----------------------------------------------
    Atom  No    Charge         Core      Valence    Rydberg      Total
 -----------------------------------------------------------------------
      C    1    0.02431      0.99951     1.96357    0.01261     2.97569
      C    2   -0.07467      0.99948     2.06349    0.01171     3.07467
      C    3    0.08208      0.99944     1.90358    0.01490     2.91792
      C    4    0.02364      0.99940     1.96379    0.01317     2.97636
      N    5   -0.26449      0.99967     2.75360    0.01122     3.76449
      C    6    0.20808      0.99950     1.77702    0.01540     2.79192
      N    7   -0.28234      0.99968     2.77291    0.00975     3.78234
      C    8    0.13222      0.99967     1.84938    0.01873     2.86778
      N    9   -0.25942      0.99968     2.75024    0.00949     3.75942
      N   10   -0.38919      0.99971     2.87879    0.01068     3.88919
      C   11   -0.09315      0.99960     2.08214    0.01141     3.09315
      N   12   -0.41989      0.99978     2.91028    0.00983     3.91989
      H   13    0.10838      0.00000     0.39009    0.00153     0.39162
      H   14    0.21316      0.00000     0.26824    0.01859     0.28684
      H   15    0.07770      0.00000     0.42125    0.00105     0.42230
      H   16    0.19718      0.00000     0.28386    0.01896     0.30282
      H   17    0.18997      0.00000     0.30723    0.00280     0.31003
      H   18    0.09348      0.00000     0.40540    0.00112     0.40652
      H   19    0.08811      0.00000     0.40993    0.00196     0.41189
      H   20    0.17235      0.00000     0.32591    0.00174     0.32765
      H   21    0.17247      0.00000     0.32570    0.00183     0.32753
 =======================================================================
   * Total *    0.00000     11.99511    30.80641    0.19847    43.00000

 Normal termination of Gaussian 16 at Wed Dec  9 17:32:37 2020.
