 Gaussian 16, Revision A.03,

 -----------------------------------------------------------
 # opt freq B3LYP/6-31G(d) empiricaldispersion=gd3bj scf=xqc
 -----------------------------------------------------------

 -------------------------------
 CID_133631081_JID_2543_neutraal
 -------------------------------
 Symbolic Z-matrix:
 Charge =  0 Multiplicity = 1

 SCF Done:  E(RB3LYP) =  -630.222169735     A.U. after   14 cycles
 SCF Done:  E(RB3LYP) =  -630.228883037     A.U. after   12 cycles
 SCF Done:  E(RB3LYP) =  -630.229875019     A.U. after   11 cycles
 SCF Done:  E(RB3LYP) =  -630.230205808     A.U. after   12 cycles
 SCF Done:  E(RB3LYP) =  -630.230248927     A.U. after   12 cycles
 SCF Done:  E(RB3LYP) =  -630.230473651     A.U. after   10 cycles
 SCF Done:  E(RB3LYP) =  -630.230493139     A.U. after   11 cycles
 SCF Done:  E(RB3LYP) =  -630.230560863     A.U. after   10 cycles
 SCF Done:  E(RB3LYP) =  -630.230589704     A.U. after   10 cycles
 SCF Done:  E(RB3LYP) =  -630.230777523     A.U. after   12 cycles
 SCF Done:  E(RB3LYP) =  -630.237422008     A.U. after   10 cycles
 SCF Done:  E(RB3LYP) =  -630.237431564     A.U. after    9 cycles
 SCF Done:  E(RB3LYP) =  -630.237437433     A.U. after    9 cycles
 SCF Done:  E(RB3LYP) =  -630.237441352     A.U. after    9 cycles
 SCF Done:  E(RB3LYP) =  -630.237443541     A.U. after    8 cycles
 SCF Done:  E(RB3LYP) =  -630.237444392     A.U. after    8 cycles
 Optimization completed.
    -- Stationary point found.
 Normal termination of Gaussian 16 at Wed Dec  9 17:51:05 2020.

 --------------------------------------------------------------------
 #N Geom=AllCheck Guess=TCheck SCRF=Check GenChk RB3LYP/6-31G(d) Freq
 --------------------------------------------------------------------

 Structure from the checkpoint file:  "JID_2543.chk"
 -------------------------------
 CID_133631081_JID_2543_neutraal
 -------------------------------
 Charge =  0 Multiplicity = 1

 SCF Done:  E(RB3LYP) =  -630.237444392     A.U. after    1 cycles

  Exact polarizability:  99.987   2.393  88.708  -1.275   1.044  77.088
 Approx polarizability: 131.017   9.169 130.876  -0.460   7.272 116.185

                      1                      2                      3
                      A                      A                      A
 Frequencies --     51.9485                70.1061               103.8390
 Red. masses --      5.1281                 5.9963                 3.3591
 Frc consts  --      0.0082                 0.0174                 0.0213
 IR Inten    --      1.8970                 2.3310                 1.6484

                      4                      5                      6
                      A                      A                      A
 Frequencies --    143.5081               154.9888               182.8352
 Red. masses --      1.9178                 1.2183                 1.5698
 Frc consts  --      0.0233                 0.0172                 0.0309
 IR Inten    --     23.0469                 4.1853                 2.6415

                      7                      8                      9
                      A                      A                      A
 Frequencies --    195.6679               217.2555               273.9739
 Red. masses --      2.9476                 2.1837                 5.5296
 Frc consts  --      0.0665                 0.0607                 0.2445
 IR Inten    --      8.3311                 4.2904                 7.1405

                     10                     11                     12
                      A                      A                      A
 Frequencies --    316.5634               322.8119               349.7150
 Red. masses --      4.4556                 4.5010                 3.4900
 Frc consts  --      0.2631                 0.2764                 0.2515
 IR Inten    --      4.2501                28.7411                 6.8426

                     13                     14                     15
                      A                      A                      A
 Frequencies --    409.6527               421.1908               463.2935
 Red. masses --      3.9670                 3.4454                 1.1952
 Frc consts  --      0.3922                 0.3601                 0.1512
 IR Inten    --      5.3109                 8.4940               133.7955

                     16                     17                     18
                      A                      A                      A
 Frequencies --    497.3130               525.6277               576.0501
 Red. masses --      1.6836                 2.1956                 4.0842
 Frc consts  --      0.2453                 0.3574                 0.7985
 IR Inten    --     66.2911                51.6798                12.4370

                     19                     20                     21
                      A                      A                      A
 Frequencies --    592.7739               638.0049               655.6868
 Red. masses --      3.2242                 3.8072                 2.5406
 Frc consts  --      0.6675                 0.9131                 0.6435
 IR Inten    --     10.2175                22.1033                15.2708

                     22                     23                     24
                      A                      A                      A
 Frequencies --    740.7765               845.0257               874.9083
 Red. masses --      3.6548                 3.7802                 3.7988
 Frc consts  --      1.1816                 1.5904                 1.7133
 IR Inten    --      9.6028                10.0255                 8.3849

                     25                     26                     27
                      A                      A                      A
 Frequencies --    896.6538               963.2082               988.7953
 Red. masses --      4.6075                 2.8164                 2.4330
 Frc consts  --      2.1826                 1.5395                 1.4015
 IR Inten    --     40.5726                14.8088                18.3987

                     28                     29                     30
                      A                      A                      A
 Frequencies --   1004.3799              1068.7431              1080.3383
 Red. masses --      1.8170                 1.7366                 2.1419
 Frc consts  --      1.0799                 1.1687                 1.4729
 IR Inten    --     34.4280                 1.6811                22.1189

                     31                     32                     33
                      A                      A                      A
 Frequencies --   1089.9213              1115.8572              1136.0611
 Red. masses --      2.7523                 4.4306                 2.7117
 Frc consts  --      1.9264                 3.2503                 2.0621
 IR Inten    --      6.4211               114.7771               108.7247

                     34                     35                     36
                      A                      A                      A
 Frequencies --   1165.3234              1187.9701              1205.0101
 Red. masses --      5.1606                 1.2892                 1.5616
 Frc consts  --      4.1290                 1.0720                 1.3360
 IR Inten    --     95.9484                 3.2846                34.0661

                     37                     38                     39
                      A                      A                      A
 Frequencies --   1221.1181              1227.3107              1255.9019
 Red. masses --      1.4076                 1.4586                 1.9355
 Frc consts  --      1.2366                 1.2945                 1.7987
 IR Inten    --      8.7825                40.8069                 7.4013

                     40                     41                     42
                      A                      A                      A
 Frequencies --   1320.5329              1325.0317              1348.8572
 Red. masses --      1.4474                 1.4315                 1.6112
 Frc consts  --      1.4870                 1.4808                 1.7272
 IR Inten    --     32.7544                17.2979                85.2405

                     43                     44                     45
                      A                      A                      A
 Frequencies --   1372.9553              1387.8723              1402.5366
 Red. masses --      1.3526                 1.2884                 1.2172
 Frc consts  --      1.5022                 1.4621                 1.4107
 IR Inten    --     12.6875                10.7862                17.5070

                     46                     47                     48
                      A                      A                      A
 Frequencies --   1409.1139              1419.4971              1443.3477
 Red. masses --      1.6831                 1.3830                 2.3776
 Frc consts  --      1.9690                 1.6419                 2.9182
 IR Inten    --    105.4179                43.0805               203.6442

                     49                     50                     51
                      A                      A                      A
 Frequencies --   1466.0835              1495.4660              1509.2890
 Red. masses --      1.2781                 1.1395                 1.0760
 Frc consts  --      1.6186                 1.5015                 1.4441
 IR Inten    --     79.4730                 0.3285                 8.2970

                     52                     53                     54
                      A                      A                      A
 Frequencies --   1515.1311              1521.8381              1542.0917
 Red. masses --      1.0535                 1.0504                 1.0708
 Frc consts  --      1.4248                 1.4333                 1.5004
 IR Inten    --      7.0642                 9.7200                 7.1577

                     55                     56                     57
                      A                      A                      A
 Frequencies --   1547.1788              1784.6800              3043.4156
 Red. masses --      1.0657                10.4480                 1.0784
 Frc consts  --      1.5030                19.6067                 5.8850
 IR Inten    --      6.3243               282.7054                40.2015

                     58                     59                     60
                      A                      A                      A
 Frequencies --   3046.0083              3053.9884              3059.3845
 Red. masses --      1.0795                 1.0315                 1.0428
 Frc consts  --      5.9013                 5.6682                 5.7508
 IR Inten    --     18.0790                41.2304                 3.3237

                     61                     62                     63
                      A                      A                      A
 Frequencies --   3085.6083              3106.1412              3120.8927
 Red. masses --      1.0864                 1.0874                 1.1066
 Frc consts  --      6.0941                 6.1812                 6.3504
 IR Inten    --     35.4212                41.7314                27.7177

                     64                     65                     66
                      A                      A                      A
 Frequencies --   3128.5199              3153.5813              3167.9135
 Red. masses --      1.0945                 1.1042                 1.0942
 Frc consts  --      6.3118                 6.4698                 6.4698
 IR Inten    --      6.5646                23.8120                 5.6742

                     67                     68                     69
                      A                      A                      A
 Frequencies --   3181.5545              3684.5056              3694.6236
 Red. masses --      1.1026                 1.0649                 1.0648
 Frc consts  --      6.5755                 8.5174                 8.5638
 IR Inten    --      5.8156                71.6241                34.4254

 - Thermochemistry -
 -------------------
 Temperature   298.150 Kelvin.  Pressure   1.00000 Atm.
 Atom     1 has atomic number  6 and mass  12.00000

 Molecular mass:   175.08446 amu.
 Principal axes and moments of inertia in atomic units:
                           1         2         3
     Eigenvalues --  1318.303122296.357763050.02354
           X            0.99958  -0.02673  -0.01085
           Y            0.02644   0.99932  -0.02578
           Z            0.01153   0.02549   0.99961
 This molecule is an asymmetric top.
 Rotational symmetry number  1.
 Warning -- assumption of classical behavior for rotation
           may cause significant error
 Rotational temperatures (Kelvin)      0.06570     0.03772     0.02840
 Rotational constants (GHZ):           1.36899     0.78591     0.59171
 Zero-point vibrational energy     553678.1 (Joules/Mol)
                                  132.33224 (Kcal/Mol)
 Warning -- explicit consideration of  19 degrees of freedom as
           vibrations may cause significant error
 Vibrational temperatures:     74.74   100.87   149.40   206.48   222.99
          (Kelvin)            263.06   281.52   312.58   394.19   455.46
                              464.45   503.16   589.40   606.00   666.58
                              715.52   756.26   828.81   852.87   917.95
                              943.39  1065.81  1215.80  1258.80  1290.08
                             1385.84  1422.66  1445.08  1537.68  1554.37
                             1568.15  1605.47  1634.54  1676.64  1709.22
                             1733.74  1756.92  1765.83  1806.96  1899.95
                             1906.43  1940.70  1975.38  1996.84  2017.94
                             2027.40  2042.34  2076.66  2109.37  2151.64
                             2171.53  2179.94  2189.59  2218.73  2226.05
                             2567.76  4378.80  4382.53  4394.01  4401.77
                             4439.50  4469.04  4490.27  4501.24  4537.30
                             4557.92  4577.55  5301.18  5315.74

 Zero-point correction=                           0.210885 (Hartree/Particle)
 Thermal correction to Energy=                    0.223265
 Thermal correction to Enthalpy=                  0.224209
 Thermal correction to Gibbs Free Energy=         0.172500
 Sum of electronic and zero-point Energies=           -630.026560
 Sum of electronic and thermal Energies=              -630.014180
 Sum of electronic and thermal Enthalpies=            -630.013235
 Sum of electronic and thermal Free Energies=         -630.064944

                     E (Thermal)             CV                S
                      KCal/Mol        Cal/Mol-Kelvin    Cal/Mol-Kelvin
 Total                  140.101             46.118            108.830
 Electronic               0.000              0.000              0.000
 Translational            0.889              2.981             41.388
 Rotational               0.889              2.981             30.602
 Vibrational            138.323             40.156             36.841
 Vibration     1          0.596              1.977              4.742
 Vibration     2          0.598              1.968              4.150
 Vibration     3          0.605              1.946              3.381
 Vibration     4          0.616              1.910              2.757
 Vibration     5          0.620              1.897              2.610
 Vibration     6          0.630              1.863              2.299
 Vibration     7          0.636              1.846              2.173
 Vibration     8          0.646              1.815              1.982
 Vibration     9          0.676              1.721              1.571
 Vibration    10          0.703              1.642              1.328
 Vibration    11          0.708              1.630              1.296
 Vibration    12          0.727              1.576              1.167
 Vibration    13          0.774              1.449              0.928
 Vibration    14          0.784              1.424              0.888
 Vibration    15          0.821              1.331              0.757
 Vibration    16          0.853              1.256              0.665
 Vibration    17          0.881              1.193              0.597
 Vibration    18          0.932              1.083              0.493
 Vibration    19          0.950              1.047              0.462

                           ! Non-Optimized Parameters !
 Normal termination of Gaussian 16 at Wed Dec  9 17:58:15 2020.

 ----------------------------------------------------------------------
 # B3LYP/6-311++G(d,p) empiricaldispersion=gd3bj scf=xqc pop=npa geom=c
 heck
 ----------------------------------------------------------------------

 ---------------------------------------
 CID_133631081_JID_2543_Energie_neutraal
 ---------------------------------------
 Structure from the checkpoint file:  "JID_2543.chk"
 Charge =  0 Multiplicity = 1

 SCF Done:  E(RB3LYP) =  -630.441125731     A.U. after   14 cycles
 Normal termination of Gaussian 16 at Wed Dec  9 18:01:12 2020.

 ----------------------------------------------------------------------
 # B3LYP/6-311++G(d,p) empiricaldispersion=gd3bj scf=xqc pop=npa geom=c
 heck
 ----------------------------------------------------------------------

 -------------------------------------
 CID_133631081_JID_2543_Energie_kation
 -------------------------------------
 Structure from the checkpoint file:  "JID_2543.chk"
 Charge =  1 Multiplicity = 2

 SCF Done:  E(UB3LYP) =  -630.099462829     A.U. after   30 cycles
 Normal termination of Gaussian 16 at Wed Dec  9 18:09:39 2020.
 Gaussian 16:  ES64L-G16RevA.03 25-Dec-2016

 ----------------------------------------------------------------------
 # B3LYP/6-311++G(d,p) empiricaldispersion=gd3bj scf=xqc pop=npa geom=c
 heck
 ----------------------------------------------------------------------

 ------------------------------------
 CID_133631081_JID_2543_Energie_anion
 ------------------------------------
 Structure from the checkpoint file:  "JID_2543.chk"
 Charge = -1 Multiplicity = 2

                         Standard orientation:
 ---------------------------------------------------------------------
 Center     Atomic      Atomic             Coordinates (Angstroms)
 Number     Number       Type             X           Y           Z
 ---------------------------------------------------------------------
      1          6           0       -2.903152    0.153332    0.795335
      2          6           0       -1.981463   -0.751739   -0.005570
      3          8           0       -2.392145   -1.708309   -0.646198
      4          7           0       -0.636518   -0.445966    0.043044
      5          6           0        0.371355   -1.300075   -0.583508
      6          6           0        1.570234   -1.148416    0.369386
      7          6           0        1.464040    0.316354    0.847360
      8          6           0       -0.053110    0.662003    0.761848
      9          8           0       -0.249988    1.951464    0.160995
     10          6           0       -0.466298    1.971171   -1.252700
     11          8           0        2.217240    1.107354   -0.057645
     12          8           0        2.817541   -1.457181   -0.196792
     13          1           0       -3.929153   -0.055130    0.491041
     14          1           0       -2.675436    1.213352    0.651942
     15          1           0       -2.806882   -0.064689    1.866347
     16          1           0       -0.007994   -2.318425   -0.662907
     17          1           0        0.634138   -0.948262   -1.590040
     18          1           0        1.428064   -1.816802    1.225297
     19          1           0        1.842185    0.451497    1.868778
     20          1           0       -0.492041    0.762572    1.757135
     21          1           0        0.350130    1.488335   -1.800501
     22          1           0       -1.412346    1.492558   -1.525406
     23          1           0       -0.510834    3.028559   -1.522720
     24          1           0        1.795133    1.984982   -0.052252
     25          1           0        3.089831   -0.659193   -0.683802
 ---------------------------------------------------------------------

 SCF Done:  E(UB3LYP) =  -630.431099903     A.U. after   31 cycles

 The electronic state is 2-A.
 Alpha  occ. eigenvalues --  -19.04285 -19.03717 -19.03143 -18.99526 -14.24953
 Alpha  occ. eigenvalues --  -10.18066 -10.16697 -10.13313 -10.13225 -10.11726
 Alpha  occ. eigenvalues --  -10.10769 -10.07244  -0.97174  -0.94758  -0.94188
 Alpha  occ. eigenvalues --   -0.92238  -0.84788  -0.68808  -0.65758  -0.63003
 Alpha  occ. eigenvalues --   -0.58769  -0.54303  -0.51168  -0.47143  -0.44428
 Alpha  occ. eigenvalues --   -0.41881  -0.41422  -0.39167  -0.37801  -0.36747
 Alpha  occ. eigenvalues --   -0.36039  -0.34591  -0.33256  -0.32663  -0.30888
 Alpha  occ. eigenvalues --   -0.30593  -0.30143  -0.29171  -0.27047  -0.26644
 Alpha  occ. eigenvalues --   -0.24777  -0.23930  -0.21270  -0.18325  -0.17877
 Alpha  occ. eigenvalues --   -0.16230  -0.16162   0.04388
 Alpha virt. eigenvalues --    0.06850   0.07822   0.08693   0.09156   0.09750
 Alpha virt. eigenvalues --    0.10349   0.10773   0.11650   0.11685   0.12970
 Alpha virt. eigenvalues --    0.13208   0.13730   0.14448   0.15272   0.15990

  Beta  occ. eigenvalues --  -19.04275 -19.03690 -19.03135 -18.99518 -14.24953
  Beta  occ. eigenvalues --  -10.18063 -10.16674 -10.13303 -10.13200 -10.11681
  Beta  occ. eigenvalues --  -10.10759 -10.07197  -0.97140  -0.94736  -0.94171
  Beta  occ. eigenvalues --   -0.92200  -0.84772  -0.68765  -0.65706  -0.62943
  Beta  occ. eigenvalues --   -0.58697  -0.54258  -0.51127  -0.47083  -0.44382
  Beta  occ. eigenvalues --   -0.41827  -0.41381  -0.39131  -0.37740  -0.36715
  Beta  occ. eigenvalues --   -0.36004  -0.34548  -0.33211  -0.32624  -0.30854
  Beta  occ. eigenvalues --   -0.30558  -0.30097  -0.29136  -0.27003  -0.26610
  Beta  occ. eigenvalues --   -0.24741  -0.23893  -0.21234  -0.18294  -0.17853
  Beta  occ. eigenvalues --   -0.16214  -0.16144
  Beta virt. eigenvalues --    0.07012   0.08087   0.08376   0.09066   0.09624
  Beta virt. eigenvalues --    0.10208   0.11022   0.11246   0.11873   0.12184
  Beta virt. eigenvalues --    0.13388   0.13576   0.14299   0.14629   0.15480

 Mulliken charges and spin densities:
               1          2
     1  C    0.585810  -1.063684
     2  C    0.129111   0.036926
     3  O   -0.342409   0.008170
     4  N    0.153731   0.026698
     5  C    1.286034  -1.337508
     6  C   -1.312687   0.799885
     7  C    2.357213  -2.511351
     8  C   -1.939529   1.303472
     9  O   -0.148224  -0.010517
    10  C    1.247641  -1.474025
    11  O   -0.231826   0.002752
    12  O   -0.202193   0.011550
    13  H   -0.020114   0.205099
    14  H   -0.286615   0.480256
    15  H   -0.379619   0.556169
    16  H    0.201407  -0.031617
    17  H    0.108604   0.096517
    18  H   -0.205836   0.423904
    19  H   -0.518975   0.736474
    20  H   -0.856493   1.087176
    21  H   -0.103167   0.257551
    22  H    0.053288   0.091953
    23  H   -0.800156   0.989520
    24  H   -0.042273   0.314744
    25  H    0.267275  -0.000115
 Sum of Mulliken charges =  -1.00000   1.00000

 Dipole moment (field-independent basis, Debye):
    X=              1.4140    Y=             -2.5884    Z=             -2.9824  Tot=              4.1945
 Quadrupole moment (field-independent basis, Debye-Ang):
   XX=           -120.5647   YY=           -121.3292   ZZ=           -112.2716
   XY=             -0.2005   XZ=             -1.9981   YZ=              0.6010

 Summary of Natural Population Analysis:

                                       Natural Population
                Natural  -----------------------------------------------
    Atom  No    Charge         Core      Valence    Rydberg      Total
 -----------------------------------------------------------------------
      C    1   -0.33595      0.99962     2.33114    0.00518     3.33595
      C    2    0.35449      0.99966     1.62323    0.02262     2.64551
      O    3   -0.31897      0.99988     3.31345    0.00565     4.31897
      N    4   -0.27381      0.99963     2.76222    0.01196     3.77381
      C    5   -0.09114      0.99960     2.08134    0.01021     3.09114
      C    6    0.05516      0.99954     1.92924    0.01606     2.94484
      C    7    0.04731      0.99955     1.93780    0.01534     2.95269
      C    8    0.14823      0.99954     1.83321    0.01901     2.85177
      O    9   -0.31062      0.99989     3.29922    0.01152     4.31062
      C   10   -0.10596      0.99958     2.09707    0.00931     3.10596
      O   11   -0.38567      0.99989     3.37878    0.00701     4.38567
      O   12   -0.36858      0.99989     3.36221    0.00648     4.36858
      H   13    0.11176      0.00000     0.38741    0.00083     0.38824
      H   14    0.11446      0.00000     0.38399    0.00156     0.38554
      H   15    0.11592      0.00000     0.38236    0.00173     0.38408
      H   16    0.11219      0.00000     0.38667    0.00114     0.38781
      H   17    0.09353      0.00000     0.40519    0.00128     0.40647
      H   18    0.09224      0.00000     0.40625    0.00151     0.40776
      H   19    0.09047      0.00000     0.40680    0.00273     0.40953
      H   20    0.10616      0.00000     0.38760    0.00623     0.39384
      H   21    0.08468      0.00000     0.41366    0.00166     0.41532
      H   22    0.08455      0.00000     0.41385    0.00160     0.41545
      H   23    0.09730      0.00000     0.40046    0.00224     0.40270
      H   24    0.24418      0.00000     0.25140    0.00442     0.25582
      H   25    0.23809      0.00000     0.25883    0.00308     0.26191
 =======================================================================
   * Total *   -0.00000     11.99626    34.83339    0.17035    47.00000

 Normal termination of Gaussian 16 at Wed Dec  9 18:18:14 2020.
