 Gaussian 16, Revision A.03,

 -----------------------------------------------------------
 # opt freq B3LYP/6-31G(d) empiricaldispersion=gd3bj scf=xqc
 -----------------------------------------------------------

 -----------------------------
 CID_23581215_JID_801_neutraal
 -----------------------------
 Symbolic Z-matrix:
 Charge =  0 Multiplicity = 1

 SCF Done:  E(RB3LYP) =  -816.364562631     A.U. after   14 cycles
 SCF Done:  E(RB3LYP) =  -816.368473601     A.U. after   12 cycles
 SCF Done:  E(RB3LYP) =  -816.369315407     A.U. after   12 cycles
 SCF Done:  E(RB3LYP) =  -816.369481296     A.U. after   11 cycles
 SCF Done:  E(RB3LYP) =  -816.369537688     A.U. after   11 cycles
 SCF Done:  E(RB3LYP) =  -816.369598593     A.U. after   12 cycles
 SCF Done:  E(RB3LYP) =  -816.369698956     A.U. after   13 cycles
 SCF Done:  E(RB3LYP) =  -816.369859914     A.U. after   11 cycles
 SCF Done:  E(RB3LYP) =  -816.369963598     A.U. after   12 cycles
 SCF Done:  E(RB3LYP) =  -816.369496237     A.U. after   13 cycles
 SCF Done:  E(RB3LYP) =  -816.370344943     A.U. after   11 cycles
 SCF Done:  E(RB3LYP) =  -816.370346483     A.U. after   11 cycles
 SCF Done:  E(RB3LYP) =  -816.370353547     A.U. after   11 cycles
 SCF Done:  E(RB3LYP) =  -816.370353858     A.U. after    8 cycles
 SCF Done:  E(RB3LYP) =  -816.370353935     A.U. after    7 cycles
 Optimization completed.
    -- Stationary point found.
 Normal termination of Gaussian 16 at Tue Dec  8 13:29:49 2020.

 --------------------------------------------------------------------
 #N Geom=AllCheck Guess=TCheck SCRF=Check GenChk RB3LYP/6-31G(d) Freq
 --------------------------------------------------------------------

 Structure from the checkpoint file:  "JID_801.chk"
 -----------------------------
 CID_23581215_JID_801_neutraal
 -----------------------------
 Charge =  0 Multiplicity = 1

 SCF Done:  E(RB3LYP) =  -816.370353935     A.U. after    1 cycles

  Exact polarizability: 119.574   2.873  86.307 -13.476   1.463  63.560
 Approx polarizability: 163.519   2.732 154.512 -28.566   3.670  99.930

                      1                      2                      3
                      A                      A                      A
 Frequencies --     33.1213                47.4833               106.8183
 Red. masses --      5.8509                 6.4628                 2.9826
 Frc consts  --      0.0038                 0.0086                 0.0201
 IR Inten    --      0.0308                 0.4681                 2.2161

                      4                      5                      6
                      A                      A                      A
 Frequencies --    185.4263               203.1517               274.8082
 Red. masses --      6.0145                 2.6211                 1.1838
 Frc consts  --      0.1218                 0.0637                 0.0527
 IR Inten    --      1.7389                 3.0303                28.7510

                      7                      8                      9
                      A                      A                      A
 Frequencies --    312.1387               413.3369               434.8949
 Red. masses --      3.0744                 3.1397                 6.0522
 Frc consts  --      0.1765                 0.3160                 0.6744
 IR Inten    --      3.9938                14.1608                 9.1248

                     10                     11                     12
                      A                      A                      A
 Frequencies --    468.2105               485.5371               616.1264
 Red. masses --      4.0801                 3.6037                 7.1905
 Frc consts  --      0.5270                 0.5006                 1.6082
 IR Inten    --      3.3542                 1.5774                 4.2546

                     13                     14                     15
                      A                      A                      A
 Frequencies --    665.0163               666.7289               772.8980
 Red. masses --      5.4023                 4.1701                 3.7718
 Frc consts  --      1.4077                 1.0922                 1.3275
 IR Inten    --     45.7691                23.3696                 1.8283

                     16                     17                     18
                      A                      A                      A
 Frequencies --    812.8660               843.1587               858.9858
 Red. masses --      1.2593                 2.4603                 1.7261
 Frc consts  --      0.4902                 1.0305                 0.7504
 IR Inten    --     13.1204                 7.7048                12.0505

                     19                     20                     21
                      A                      A                      A
 Frequencies --    952.8400               971.5211               984.3693
 Red. masses --      3.6321                 1.3490                 1.4471
 Frc consts  --      1.9429                 0.7502                 0.8261
 IR Inten    --     44.4712                 4.6275                 0.2832

                     22                     23                     24
                      A                      A                      A
 Frequencies --   1035.0788              1038.6693              1085.2626
 Red. masses --      1.7974                 5.2635                 2.0578
 Frc consts  --      1.1346                 3.3456                 1.4280
 IR Inten    --      3.0196                27.0897                 8.9346

                     25                     26                     27
                      A                      A                      A
 Frequencies --   1091.2459              1123.5064              1206.7501
 Red. masses --      1.9049                 4.8040                 1.7833
 Frc consts  --      1.3365                 3.5728                 1.5301
 IR Inten    --      2.5771               268.3387                 7.5986

                     28                     29                     30
                      A                      A                      A
 Frequencies --   1244.8253              1270.0664              1287.3684
 Red. masses --      6.7646                 2.1603                 1.3977
 Frc consts  --      6.1761                 2.0531                 1.3648
 IR Inten    --      2.7605                 2.1465                20.9952

                     31                     32                     33
                      A                      A                      A
 Frequencies --   1320.6289              1336.9540              1367.9713
 Red. masses --      1.2931                 1.2486                 1.1651
 Frc consts  --      1.3287                 1.3150                 1.2846
 IR Inten    --      5.8610                 2.6872                46.4359

                     34                     35                     36
                      A                      A                      A
 Frequencies --   1404.8549              1448.6801              1504.8829
 Red. masses --      1.3807                 1.9430                 1.0851
 Frc consts  --      1.6055                 2.4025                 1.4478
 IR Inten    --      6.5561                39.7738                 3.4862

                     37                     38                     39
                      A                      A                      A
 Frequencies --   1516.6936              1521.5934              1596.1988
 Red. masses --      1.1043                 2.1680                 8.6378
 Frc consts  --      1.4967                 2.9573                12.9666
 IR Inten    --      4.1596                 8.1575                 2.9848

                     40                     41                     42
                      A                      A                      A
 Frequencies --   1633.6726              2683.7113              3056.7053
 Red. masses --      4.9330                 1.0386                 1.0625
 Frc consts  --      7.7570                 4.4071                 5.8490
 IR Inten    --      2.0546                14.2455                35.9464

                     43                     44                     45
                      A                      A                      A
 Frequencies --   3064.2126              3107.9765              3158.9207
 Red. masses --      1.0605                 1.1067                 1.1016
 Frc consts  --      5.8670                 6.2984                 6.4769
 IR Inten    --      4.6203                 9.4833                12.4326

                     46                     47                     48
                      A                      A                      A
 Frequencies --   3178.0306              3196.0164              3203.5754
 Red. masses --      1.0876                 1.0950                 1.0929
 Frc consts  --      6.4720                 6.5901                 6.6086
 IR Inten    --      5.1196                51.8610                 1.3910

 - Thermochemistry -
 -------------------
 Temperature   298.150 Kelvin.  Pressure   1.00000 Atm.
 Atom     1 has atomic number  6 and mass  12.00000

 Molecular mass:   156.03573 amu.
 Principal axes and moments of inertia in atomic units:
                           1         2         3
     Eigenvalues --   661.893013197.400313373.05870
           X            0.99990   0.01225  -0.00644
           Y           -0.01198   0.99908   0.04126
           Z            0.00694  -0.04118   0.99913
 This molecule is an asymmetric top.
 Rotational symmetry number  1.
 Warning -- assumption of classical behavior for rotation
           may cause significant error
 Rotational temperatures (Kelvin)      0.13086     0.02709     0.02568
 Rotational constants (GHZ):           2.72664     0.56444     0.53505
 Zero-point vibrational energy     363625.8 (Joules/Mol)
                                   86.90866 (Kcal/Mol)
 Warning -- explicit consideration of  12 degrees of freedom as
           vibrations may cause significant error
 Vibrational temperatures:     47.65    68.32   153.69   266.79   292.29
          (Kelvin)            395.39   449.10   594.70   625.72   673.65
                              698.58   886.47   956.81   959.27  1112.03
                             1169.53  1213.12  1235.89  1370.92  1397.80
                             1416.29  1489.25  1494.41  1561.45  1570.06
                             1616.48  1736.24  1791.03  1827.34  1852.24
                             1900.09  1923.58  1968.21  2021.27  2084.33
                             2165.19  2182.18  2189.23  2296.57  2350.49
                             3861.26  4397.92  4408.72  4471.68  4544.98
                             4572.48  4598.35  4609.23

 Zero-point correction=                           0.138498 (Hartree/Particle)
 Thermal correction to Energy=                    0.147894
 Thermal correction to Enthalpy=                  0.148838
 Thermal correction to Gibbs Free Energy=         0.101992
 Sum of electronic and zero-point Energies=           -816.231856
 Sum of electronic and thermal Energies=              -816.222460
 Sum of electronic and thermal Enthalpies=            -816.221516
 Sum of electronic and thermal Free Energies=         -816.268362

                     E (Thermal)             CV                S
                      KCal/Mol        Cal/Mol-Kelvin    Cal/Mol-Kelvin
 Total                   92.805             33.973             98.597
 Electronic               0.000              0.000              0.000
 Translational            0.889              2.981             41.044
 Rotational               0.889              2.981             30.347
 Vibrational             91.028             28.011             27.206
 Vibration     1          0.594              1.983              5.633
 Vibration     2          0.595              1.979              4.920
 Vibration     3          0.606              1.944              3.326
 Vibration     4          0.631              1.860              2.273
 Vibration     5          0.639              1.835              2.104
 Vibration     6          0.677              1.720              1.566
 Vibration     7          0.700              1.651              1.351
 Vibration     8          0.777              1.441              0.915
 Vibration     9          0.795              1.394              0.843
 Vibration    10          0.825              1.321              0.743
 Vibration    11          0.842              1.282              0.695
 Vibration    12          0.976              0.998              0.423

 Optimization completed.
    -- Stationary point found.
 Normal termination of Gaussian 16 at Tue Dec  8 13:34:10 2020.

 ----------------------------------------------------------------------
 # B3LYP/6-311++G(d,p) empiricaldispersion=gd3bj scf=xqc pop=npa geom=c
 heck
 ----------------------------------------------------------------------

 -------------------------------------
 CID_23581215_JID_801_Energie_neutraal
 -------------------------------------
 Structure from the checkpoint file:  "JID_801.chk"
 Charge =  0 Multiplicity = 1

 SCF Done:  E(RB3LYP) =  -816.515643401     A.U. after   14 cycles
 Normal termination of Gaussian 16 at Tue Dec  8 13:40:17 2020.

 ----------------------------------------------------------------------
 # B3LYP/6-311++G(d,p) empiricaldispersion=gd3bj scf=xqc pop=npa geom=c
 heck
 ----------------------------------------------------------------------

 -----------------------------------
 CID_23581215_JID_801_Energie_kation
 -----------------------------------
 Structure from the checkpoint file:  "JID_801.chk"
 Charge =  1 Multiplicity = 2

 SCF Done:  E(UB3LYP) =  -816.187894336     A.U. after   27 cycles
 Normal termination of Gaussian 16 at Tue Dec  8 13:46:25 2020.
 Gaussian 16:  ES64L-G16RevA.03 25-Dec-2016

 ----------------------------------------------------------------------
 # B3LYP/6-311++G(d,p) empiricaldispersion=gd3bj scf=xqc pop=npa geom=c
 heck
 ----------------------------------------------------------------------

 ----------------------------------
 CID_23581215_JID_801_Energie_anion
 ----------------------------------
 Structure from the checkpoint file:  "JID_801.chk"
 Charge = -1 Multiplicity = 2

                         Standard orientation:
 ---------------------------------------------------------------------
 Center     Atomic      Atomic             Coordinates (Angstroms)
 Number     Number       Type             X           Y           Z
 ---------------------------------------------------------------------
      1          6           0        3.234380    0.006406   -0.647360
      2          6           0        2.695880    1.207400   -0.183706
      3          7           0        1.495297    1.266895    0.401082
      4          6           0        0.835749    0.108069    0.531467
      5          6           0        1.383798   -1.095289    0.068325
      6          7           0        2.579808   -1.154067   -0.525482
      7          6           0       -0.506532    0.161516    1.229681
      8          8           0       -1.377027   -0.893521    0.837589
      9          6           0       -1.926094   -0.746895   -0.445300
     10         16           0       -3.195518    0.588760   -0.601362
     11          1           0        4.210007   -0.022736   -1.127425
     12          1           0        3.238980    2.143960   -0.291397
     13          1           0        0.835685   -2.026849    0.179842
     14          1           0       -0.369917    0.038594    2.309420
     15          1           0       -0.965083    1.142529    1.058235
     16          1           0       -1.167733   -0.498291   -1.198097
     17          1           0       -2.378953   -1.706643   -0.695302
     18          1           0       -4.087292    0.020403    0.237973
 ---------------------------------------------------------------------

 SCF Done:  E(UB3LYP) =  -816.516299107     A.U. after   33 cycles
 SCF Done:  E(UB3LYP) =  -816.516299107     a.u. after    1 cycles

 The electronic state is 2-A.
 Alpha  occ. eigenvalues --  -88.73904 -19.01889 -14.11371 -14.11094 -10.13799
 Alpha  occ. eigenvalues --  -10.08323 -10.03375 -10.02548 -10.02483 -10.02348
 Alpha  occ. eigenvalues --   -7.82619  -5.78985  -5.78627  -5.78022  -0.93166
 Alpha  occ. eigenvalues --   -0.79056  -0.71820  -0.66618  -0.61447  -0.56702
 Alpha  occ. eigenvalues --   -0.50967  -0.47788  -0.44896  -0.38524  -0.37515
 Alpha  occ. eigenvalues --   -0.34762  -0.32777  -0.31751  -0.29877  -0.28933
 Alpha  occ. eigenvalues --   -0.26291  -0.25628  -0.23718  -0.22358  -0.19701
 Alpha  occ. eigenvalues --   -0.15573  -0.15371  -0.14585  -0.12188  -0.09723
 Alpha  occ. eigenvalues --   -0.06570   0.06601
 Alpha virt. eigenvalues --    0.07639   0.09590   0.10543   0.11378   0.11724
 Alpha virt. eigenvalues --    0.12448   0.12901   0.13782   0.13992   0.15066
 Alpha virt. eigenvalues --    0.16161   0.16784   0.17454   0.18052   0.18715

  Beta  occ. eigenvalues --  -88.73897 -19.01887 -14.10626 -14.10311 -10.13760
  Beta  occ. eigenvalues --  -10.08334 -10.03324 -10.02495 -10.02439 -10.02301
  Beta  occ. eigenvalues --   -7.82612  -5.78977  -5.78619  -5.78016  -0.93156
  Beta  occ. eigenvalues --   -0.78106  -0.70531  -0.66534  -0.61167  -0.56494
  Beta  occ. eigenvalues --   -0.50803  -0.46989  -0.44569  -0.38447  -0.37446
  Beta  occ. eigenvalues --   -0.34515  -0.32521  -0.31457  -0.29712  -0.28799
  Beta  occ. eigenvalues --   -0.26143  -0.25385  -0.22483  -0.21722  -0.19497
  Beta  occ. eigenvalues --   -0.15414  -0.14561  -0.11875  -0.11177  -0.08504
  Beta  occ. eigenvalues --   -0.05753
  Beta virt. eigenvalues --    0.07562   0.09596   0.10490   0.11300   0.11721
  Beta virt. eigenvalues --    0.12355   0.12823   0.13658   0.14029   0.14406
  Beta virt. eigenvalues --    0.15105   0.16181   0.16819   0.17434   0.18058

 Mulliken charges and spin densities:
               1          2
     1  C   -0.284499   0.059060
     2  C   -0.037663   0.122116
     3  N   -0.132129   0.329231
     4  C   -0.176691  -0.019134
     5  C   -0.278745   0.101722
     6  N   -0.124331   0.326444
     7  C   -0.306076   0.005486
     8  O   -0.075105   0.005851
     9  C   -0.369439  -0.089797
    10  S   -0.080602   0.039730
    11  H    0.097701  -0.006606
    12  H    0.111876  -0.008340
    13  H    0.132830  -0.007815
    14  H    0.163998   0.018256
    15  H    0.057290   0.007218
    16  H    0.130482   0.070354
    17  H    0.181588   0.027717
    18  H   -0.010484   0.018505
 Sum of Mulliken charges =  -1.00000   1.00000

 Dipole moment (field-independent basis, Debye):
    X=             -5.8046    Y=             -0.6585    Z=              0.5239  Tot=              5.8652
 Quadrupole moment (field-independent basis, Debye-Ang):
   XX=           -102.7214   YY=            -84.6362   ZZ=            -77.0044
   XY=              7.0265   XZ=             -0.3928   YZ=             -1.2600

 Summary of Natural Population Analysis:

                                       Natural Population
                Natural  -----------------------------------------------
    Atom  No    Charge         Core      Valence    Rydberg      Total
 -----------------------------------------------------------------------
      C    1   -0.01144      0.99960     1.99359    0.01825     3.01144
      C    2    0.00349      0.99960     1.97906    0.01785     2.99651
      N    3   -0.14408      0.99967     2.62921    0.01521     3.64408
      C    4    0.06192      0.99953     1.92474    0.01381     2.93808
      C    5   -0.00211      0.99954     1.98898    0.01358     3.00211
      N    6   -0.13120      0.99971     2.61672    0.01477     3.63120
      C    7   -0.02429      0.99954     2.01236    0.01239     3.02429
      O    8   -0.29714      0.99988     3.28592    0.01134     4.29714
      C    9   -0.06485      0.99960     2.05107    0.01418     3.06485
      S   10   -0.04673      4.99969     3.03132    0.01573     8.04673
      H   11    0.07700      0.00000     0.42177    0.00123     0.42300
      H   12    0.07638      0.00000     0.42229    0.00133     0.42362
      H   13    0.08191      0.00000     0.41603    0.00206     0.41809
      H   14    0.09014      0.00000     0.40875    0.00111     0.40986
      H   15    0.09354      0.00000     0.40474    0.00171     0.40646
      H   16    0.09643      0.00000     0.40073    0.00284     0.40357
      H   17    0.08885      0.00000     0.40944    0.00172     0.41115
      H   18    0.05217      0.00000     0.44467    0.00315     0.44783
 =======================================================================
   * Total *    0.00000     13.99635    26.84138    0.16227    41.00000

 Normal termination of Gaussian 16 at Tue Dec  8 13:54:01 2020.
