 Gaussian 16, Revision A.03,

 -----------------------------------------------------------
 # opt freq B3LYP/6-31G(d) empiricaldispersion=gd3bj scf=xqc
 -----------------------------------------------------------

 -------------------------------
 CID_104118791_JID_9563_neutraal
 -------------------------------
 Symbolic Z-matrix:
 Charge =  0 Multiplicity = 1

 SCF Done:  E(RB3LYP) =  -839.748158798     A.U. after   15 cycles
 SCF Done:  E(RB3LYP) =  -839.757831989     A.U. after   12 cycles
 SCF Done:  E(RB3LYP) =  -839.759395349     A.U. after   12 cycles
 SCF Done:  E(RB3LYP) =  -839.760160700     A.U. after   12 cycles
 SCF Done:  E(RB3LYP) =  -839.760749765     A.U. after   12 cycles
 SCF Done:  E(RB3LYP) =  -839.760898731     A.U. after   11 cycles
 SCF Done:  E(RB3LYP) =  -839.761044838     A.U. after   11 cycles
 SCF Done:  E(RB3LYP) =  -839.761079650     A.U. after   10 cycles
 SCF Done:  E(RB3LYP) =  -839.761117643     A.U. after   10 cycles
 SCF Done:  E(RB3LYP) =  -839.761134795     A.U. after   10 cycles
 SCF Done:  E(RB3LYP) =  -839.761309649     A.U. after   11 cycles
 SCF Done:  E(RB3LYP) =  -839.761312680     A.U. after   10 cycles
 SCF Done:  E(RB3LYP) =  -839.761313135     A.U. after    9 cycles
 SCF Done:  E(RB3LYP) =  -839.761313306     A.U. after    7 cycles
 SCF Done:  E(RB3LYP) =  -839.761313349     A.U. after    7 cycles
 Optimization completed.
    -- Stationary point found.
 Normal termination of Gaussian 16 at Sun Dec 13 13:09:08 2020.

 --------------------------------------------------------------------
 #N Geom=AllCheck Guess=TCheck SCRF=Check GenChk RB3LYP/6-31G(d) Freq
 --------------------------------------------------------------------

 Structure from the checkpoint file:  "JID_9563.chk"
 -------------------------------
 CID_104118791_JID_9563_neutraal
 -------------------------------
 Charge =  0 Multiplicity = 1

 SCF Done:  E(RB3LYP) =  -839.761313349     A.U. after    1 cycles

  Exact polarizability: 257.086  11.160 165.107  11.847  -2.402 117.364
 Approx polarizability: 308.615  13.254 266.979  23.957  -5.250 178.385

                      1                      2                      3
                      A                      A                      A
 Frequencies --     13.3524                26.0063                37.3835
 Red. masses --      3.9979                 4.1673                 2.9894
 Frc consts  --      0.0004                 0.0017                 0.0025
 IR Inten    --      0.2410                 0.4083                 0.6888

                      4                      5                      6
                      A                      A                      A
 Frequencies --     46.0133                58.1224                78.4098
 Red. masses --      2.7787                 4.0761                 4.0357
 Frc consts  --      0.0035                 0.0081                 0.0146
 IR Inten    --      0.1737                 1.0885                 0.2395

                      7                      8                      9
                      A                      A                      A
 Frequencies --     98.6749               119.4021               123.7468
 Red. masses --      3.9473                 1.3542                 2.4092
 Frc consts  --      0.0226                 0.0114                 0.0217
 IR Inten    --      0.0334                 1.3921                 2.1936

                     10                     11                     12
                      A                      A                      A
 Frequencies --    143.7678               169.8356               184.5697
 Red. masses --      2.2749                 2.3262                 1.2163
 Frc consts  --      0.0277                 0.0395                 0.0244
 IR Inten    --      0.5456                 1.0832                 0.2803

                     13                     14                     15
                      A                      A                      A
 Frequencies --    192.1462               206.6442               238.4810
 Red. masses --      2.3580                 1.4461                 4.0957
 Frc consts  --      0.0513                 0.0364                 0.1372
 IR Inten    --      1.1062                 0.0324                 1.0061

                     16                     17                     18
                      A                      A                      A
 Frequencies --    266.6430               289.8045               308.9713
 Red. masses --      2.0706                 3.6380                 2.0507
 Frc consts  --      0.0867                 0.1800                 0.1153
 IR Inten    --      0.9722                 1.1297                 0.4807

                     19                     20                     21
                      A                      A                      A
 Frequencies --    337.3444               367.3867               368.0340
 Red. masses --      4.1339                 4.2378                 4.1801
 Frc consts  --      0.2772                 0.3370                 0.3336
 IR Inten    --      1.8869                 0.0646                 4.6972

                     22                     23                     24
                      A                      A                      A
 Frequencies --    409.5713               430.2137               453.1490
 Red. masses --      3.1202                 3.4299                 3.9319
 Frc consts  --      0.3084                 0.3740                 0.4757
 IR Inten    --      1.8688                 6.2620                 0.1761

                     25                     26                     27
                      A                      A                      A
 Frequencies --    463.4125               571.5755               586.2002
 Red. masses --      3.2072                 3.7196                 3.7050
 Frc consts  --      0.4058                 0.7160                 0.7501
 IR Inten    --      0.4130                 2.1792                 0.5358

                     28                     29                     30
                      A                      A                      A
 Frequencies --    636.9535               650.0811               697.8159
 Red. masses --      7.0975                 2.7870                 3.1361
 Frc consts  --      1.6966                 0.6939                 0.8997
 IR Inten    --      2.4831                 9.0461                16.4219

                     31                     32                     33
                      A                      A                      A
 Frequencies --    701.1517               728.7152               730.8526
 Red. masses --      2.2978                 3.3676                 2.8834
 Frc consts  --      0.6656                 1.0536                 0.9074
 IR Inten    --     44.1199                 8.3592                 9.4370

                     34                     35                     36
                      A                      A                      A
 Frequencies --    740.1440               757.1102               771.5589
 Red. masses --      1.9957                 1.8724                 1.8146
 Frc consts  --      0.6441                 0.6323                 0.6364
 IR Inten    --     43.4845                15.3130                 6.0567

                     37                     38                     39
                      A                      A                      A
 Frequencies --    789.1682               817.9752               822.0337
 Red. masses --      1.5261                 1.6485                 1.9376
 Frc consts  --      0.5600                 0.6499                 0.7714
 IR Inten    --      2.9625                10.7883                15.3901

                     40                     41                     42
                      A                      A                      A
 Frequencies --    864.9270               948.3340               959.0204
 Red. masses --      1.7956                 4.8438                 3.3970
 Frc consts  --      0.7915                 2.5666                 1.8408
 IR Inten    --     11.1700                 7.1597                22.6682

                     43                     44                     45
                      A                      A                      A
 Frequencies --    977.1978               989.6113               994.0592
 Red. masses --      2.2123                 2.2964                 1.7691
 Frc consts  --      1.2447                 1.3250                 1.0300
 IR Inten    --     16.1238                 7.3755                 4.4610

                     46                     47                     48
                      A                      A                      A
 Frequencies --   1003.9406              1025.2821              1027.9543
 Red. masses --      1.8535                 1.9329                 2.4645
 Frc consts  --      1.1007                 1.1972                 1.5344
 IR Inten    --     35.4758                10.7736                15.2596

                     49                     50                     51
                      A                      A                      A
 Frequencies --   1049.5738              1074.2330              1077.6760
 Red. masses --      1.4414                 1.4952                 1.4546
 Frc consts  --      0.9355                 1.0166                 0.9953
 IR Inten    --      5.7083                 2.9966                 0.4715

                     52                     53                     54
                      A                      A                      A
 Frequencies --   1081.0960              1096.6426              1104.6171
 Red. masses --      1.4059                 1.9114                 2.4516
 Frc consts  --      0.9681                 1.3543                 1.7625
 IR Inten    --      2.5458                13.1644                11.6553

                     55                     56                     57
                      A                      A                      A
 Frequencies --   1116.7735              1123.0822              1137.0959
 Red. masses --      4.3188                 4.9077                 1.1653
 Frc consts  --      3.1735                 3.6472                 0.8877
 IR Inten    --     53.1376                32.0269                 7.0047

                     58                     59                     60
                      A                      A                      A
 Frequencies --   1152.0766              1170.7359              1197.8232
 Red. masses --      2.3798                 3.8209                 1.7497
 Frc consts  --      1.8610                 3.0855                 1.4791
 IR Inten    --     26.9383                 1.0834                14.0404

                     61                     62                     63
                      A                      A                      A
 Frequencies --   1205.2829              1223.4834              1247.7576
 Red. masses --      1.4034                 3.0544                 1.8412
 Frc consts  --      1.2012                 2.6938                 1.6889
 IR Inten    --      0.2450                 7.0116                10.2710

                     64                     65                     66
                      A                      A                      A
 Frequencies --   1259.3938              1279.8923              1307.3930
 Red. masses --      1.8942                 1.9625                 1.2741
 Frc consts  --      1.7701                 1.8941                 1.2831
 IR Inten    --      7.3562                25.2656                 1.2491

                     67                     68                     69
                      A                      A                      A
 Frequencies --   1339.2446              1366.7649              1370.8526
 Red. masses --      2.6047                 1.7427                 1.9662
 Frc consts  --      2.7525                 1.9181                 2.1770
 IR Inten    --     25.5733                22.9567                22.5438

                     70                     71                     72
                      A                      A                      A
 Frequencies --   1381.4298              1427.1444              1431.0605
 Red. masses --      2.0609                 1.9397                 2.2662
 Frc consts  --      2.3172                 2.3276                 2.7344
 IR Inten    --     33.7595                49.5233                96.5625

                     73                     74                     75
                      A                      A                      A
 Frequencies --   1435.1617              1436.7207              1448.7084
 Red. masses --      1.2872                 1.4247                 1.3172
 Frc consts  --      1.5621                 1.7327                 1.6288
 IR Inten    --      6.1005                14.1298                16.4943

                     76                     77                     78
                      A                      A                      A
 Frequencies --   1480.2513              1488.5939              1506.9397
 Red. masses --      2.8092                 1.0984                 1.2897
 Frc consts  --      3.6266                 1.4340                 1.7256
 IR Inten    --     26.2293                 3.7085                 6.5940

                     79                     80                     81
                      A                      A                      A
 Frequencies --   1511.0892              1511.4981              1511.7508
 Red. masses --      1.1013                 1.0938                 1.1214
 Frc consts  --      1.4816                 1.4723                 1.5099
 IR Inten    --     11.6996                 7.9134                25.7403

                     82                     83                     84
                      A                      A                      A
 Frequencies --   1515.8472              1521.1686              1526.8613
 Red. masses --      1.3884                 1.1220                 1.0465
 Frc consts  --      1.8797                 1.5297                 1.4375
 IR Inten    --     13.9551                 7.7611                 4.3880

                     85                     86                     87
                      A                      A                      A
 Frequencies --   1530.9950              1535.9147              1536.0358
 Red. masses --      1.0867                 1.4416                 1.1915
 Frc consts  --      1.5008                 2.0037                 1.6564
 IR Inten    --      4.4042                28.4317                 6.2286

                     88                     89                     90
                      A                      A                      A
 Frequencies --   1546.2153              1644.1546              1651.3643
 Red. masses --      2.1396                 6.8966                 6.9334
 Frc consts  --      3.0138                10.9842                11.1399
 IR Inten    --      6.3251                76.1127               119.0163

                     91                     92                     93
                      A                      A                      A
 Frequencies --   1665.5279              2957.2229              3043.1299
 Red. masses --     10.7751                 1.0729                 1.0595
 Frc consts  --     17.6107                 5.5280                 5.7808
 IR Inten    --    369.9585                61.0509                26.1675

                     94                     95                     96
                      A                      A                      A
 Frequencies --   3047.4433              3049.6816              3061.7167
 Red. masses --      1.0393                 1.0349                 1.0365
 Frc consts  --      5.6866                 5.6710                 5.7244
 IR Inten    --     27.0045                44.8602                16.0026

                     97                     98                     99
                      A                      A                      A
 Frequencies --   3074.5885              3074.8834              3096.1522
 Red. masses --      1.0878                 1.1024                 1.1008
 Frc consts  --      6.0583                 6.1410                 6.2171
 IR Inten    --     14.4286                16.1640                18.4579

                    100                    101                    102
                      A                      A                      A
 Frequencies --   3117.8498              3119.0615              3123.3748
 Red. masses --      1.1015                 1.1027                 1.1032
 Frc consts  --      6.3086                 6.3206                 6.3411
 IR Inten    --     10.3893                50.3322                37.9885

                    103                    104                    105
                      A                      A                      A
 Frequencies --   3137.8498              3142.7940              3143.1854
 Red. masses --      1.0512                 1.0603                 1.1014
 Frc consts  --      6.0983                 6.1706                 6.4111
 IR Inten    --     21.6654                13.6386                20.1760

                    106                    107                    108
                      A                      A                      A
 Frequencies --   3146.5858              3151.1295              3213.5216
 Red. masses --      1.0880                 1.0995                 1.1188
 Frc consts  --      6.3469                 6.4325                 6.8069
 IR Inten    --     14.2462                 7.9367                 1.1123

                    109                    110                    111
                      A                      A                      A
 Frequencies --   3228.0951              3314.1788              3496.9879
 Red. masses --      1.1153                 1.0998                 1.0742
 Frc consts  --      6.8475                 7.1175                 7.7396
 IR Inten    --     33.9659                 0.5755                 0.2814

 - Thermochemistry -
 -------------------
 Temperature   298.150 Kelvin.  Pressure   1.00000 Atm.
 Atom     1 has atomic number  6 and mass  12.00000

 Molecular mass:   260.16371 amu.
 Principal axes and moments of inertia in atomic units:
                           1         2         3
     Eigenvalues --  1702.44942********************
           X            1.00000  -0.00065   0.00011
           Y            0.00065   0.99983  -0.01838
           Z           -0.00009   0.01838   0.99983
 This molecule is an asymmetric top.
 Rotational symmetry number  1.
 Warning -- assumption of classical behavior for rotation
           may cause significant error
 Rotational temperatures (Kelvin)      0.05088     0.00651     0.00609
 Rotational constants (GHZ):           1.06009     0.13565     0.12700
 Zero-point vibrational energy     868417.7 (Joules/Mol)
                                  207.55682 (Kcal/Mol)
 Warning -- explicit consideration of  27 degrees of freedom as
           vibrations may cause significant error
 Vibrational temperatures:     19.21    37.42    53.79    66.20    83.63
          (Kelvin)            112.81   141.97   171.79   178.04   206.85
                              244.36   265.55   276.46   297.31   343.12
                              383.64   416.96   444.54   485.36   528.59
                              529.52   589.28   618.98   651.98   666.75
                              822.37   843.41   916.43   935.32  1004.00
                             1008.80  1048.46  1051.53  1064.90  1089.31
                             1110.10  1135.44  1176.88  1182.72  1244.44
                             1364.44  1379.82  1405.97  1423.83  1430.23
                             1444.45  1475.15  1479.00  1510.10  1545.58
                             1550.54  1555.46  1577.82  1589.30  1606.79
                             1615.86  1636.03  1657.58  1684.43  1723.40
                             1734.13  1760.32  1795.24  1811.99  1841.48
                             1881.05  1926.87  1966.47  1972.35  1987.57
                             2053.34  2058.98  2064.88  2067.12  2084.37
                             2129.75  2141.75  2168.15  2174.12  2174.71
                             2175.07  2180.97  2188.62  2196.81  2202.76
                             2209.84  2210.01  2224.66  2365.57  2375.94
                             2396.32  4254.78  4378.39  4384.59  4387.81
                             4405.13  4423.65  4424.07  4454.67  4485.89
                             4487.63  4493.84  4514.67  4521.78  4522.34
                             4527.24  4533.77  4623.54  4644.51  4768.36
                             5031.39

 Zero-point correction=                           0.330763 (Hartree/Particle)
 Thermal correction to Energy=                    0.350177
 Thermal correction to Enthalpy=                  0.351122
 Thermal correction to Gibbs Free Energy=         0.279911
 Sum of electronic and zero-point Energies=           -839.430551
 Sum of electronic and thermal Energies=              -839.411136
 Sum of electronic and thermal Enthalpies=            -839.410192
 Sum of electronic and thermal Free Energies=         -839.481402

                     E (Thermal)             CV                S
                      KCal/Mol        Cal/Mol-Kelvin    Cal/Mol-Kelvin
 Total                  219.740             71.307            149.875
 Electronic               0.000              0.000              0.000
 Translational            0.889              2.981             42.568
 Rotational               0.889              2.981             34.131
 Vibrational            217.962             65.345             73.176
 Vibration     1          0.593              1.987              7.437
 Vibration     2          0.593              1.985              6.113
 Vibration     3          0.594              1.982              5.393
 Vibration     4          0.595              1.979              4.982
 Vibration     5          0.596              1.974              4.520
 Vibration     6          0.600              1.964              3.930
 Vibration     7          0.604              1.950              3.480
 Vibration     8          0.609              1.933              3.110
 Vibration     9          0.610              1.929              3.041
 Vibration    10          0.616              1.909              2.753
 Vibration    11          0.625              1.880              2.437
 Vibration    12          0.631              1.861              2.282
 Vibration    13          0.634              1.851              2.207
 Vibration    14          0.641              1.830              2.073
 Vibration    15          0.656              1.782              1.814
 Vibration    16          0.672              1.734              1.618
 Vibration    17          0.686              1.693              1.475
 Vibration    18          0.698              1.657              1.368
 Vibration    19          0.718              1.601              1.225
 Vibration    20          0.740              1.539              1.091
 Vibration    21          0.741              1.538              1.088
 Vibration    22          0.774              1.449              0.928
 Vibration    23          0.791              1.404              0.858
 Vibration    24          0.812              1.354              0.786
 Vibration    25          0.821              1.331              0.756
 Vibration    26          0.928              1.093              0.501
 Vibration    27          0.943              1.061              0.474

                           ! Non-Optimized Parameters !
 Normal termination of Gaussian 16 at Sun Dec 13 13:26:21 2020.

 ----------------------------------------------------------------------
 # B3LYP/6-311++G(d,p) empiricaldispersion=gd3bj scf=xqc pop=npa geom=c
 heck
 ----------------------------------------------------------------------

 ---------------------------------------
 CID_104118791_JID_9563_Energie_neutraal
 ---------------------------------------
 Structure from the checkpoint file:  "JID_9563.chk"
 Charge =  0 Multiplicity = 1

 SCF Done:  E(RB3LYP) =  -839.986966582     A.U. after   15 cycles
 Normal termination of Gaussian 16 at Sun Dec 13 13:34:31 2020.

 ----------------------------------------------------------------------
 # B3LYP/6-311++G(d,p) empiricaldispersion=gd3bj scf=xqc pop=npa geom=c
 heck
 ----------------------------------------------------------------------

 -------------------------------------
 CID_104118791_JID_9563_Energie_kation
 -------------------------------------
 Structure from the checkpoint file:  "JID_9563.chk"
 Charge =  1 Multiplicity = 2

 SCF Done:  E(UB3LYP) =  -839.710980755     A.U. after   25 cycles
 Normal termination of Gaussian 16 at Sun Dec 13 13:53:56 2020.
 Gaussian 16:  ES64L-G16RevA.03 25-Dec-2016

 ----------------------------------------------------------------------
 # B3LYP/6-311++G(d,p) empiricaldispersion=gd3bj scf=xqc pop=npa geom=c
 heck
 ----------------------------------------------------------------------

 ------------------------------------
 CID_104118791_JID_9563_Energie_anion
 ------------------------------------
 Structure from the checkpoint file:  "JID_9563.chk"
 Charge = -1 Multiplicity = 2

                         Standard orientation:
 ---------------------------------------------------------------------
 Center     Atomic      Atomic             Coordinates (Angstroms)
 Number     Number       Type             X           Y           Z
 ---------------------------------------------------------------------
      1          6           0        5.892754   -0.558757   -0.239410
      2          6           0        4.956492   -0.165146    0.915778
      3          6           0        3.564283    0.151318    0.456104
      4          6           0        2.478405   -0.696208    0.390043
      5          7           0        1.443824    0.061482   -0.137324
      6          7           0        1.823069    1.351074   -0.404925
      7          6           0        3.097506    1.403706   -0.052803
      8          6           0        3.873727    2.672925   -0.206363
      9          6           0        0.129362   -0.305122   -0.372714
     10          7           0       -0.914497    0.456251   -0.452012
     11          6           0       -1.958123   -0.426512   -0.741278
     12          6           0       -1.467668   -1.690316   -0.799317
     13          8           0       -0.105992   -1.631307   -0.571373
     14          6           0       -3.370622    0.032538   -0.902576
     15          7           0       -3.942144    0.450186    0.379177
     16          6           0       -5.308509    0.888135    0.269152
     17          6           0       -6.455323   -0.072757    0.005631
     18          6           0       -6.282012    0.577720    1.363868
     19          6           0        2.348789   -2.125947    0.801401
     20          1           0        5.522530   -1.454527   -0.749858
     21          1           0        6.905642   -0.764395    0.125063
     22          1           0        5.955085    0.242925   -0.983400
     23          1           0        4.933630   -0.975350    1.654908
     24          1           0        5.372279    0.706938    1.436359
     25          1           0        4.706756    2.551234   -0.909375
     26          1           0        3.218903    3.464541   -0.578031
     27          1           0        4.301566    2.995075    0.750892
     28          1           0       -1.880054   -2.670051   -0.976875
     29          1           0       -3.388268    0.900611   -1.572217
     30          1           0       -3.955993   -0.764518   -1.396413
     31          1           0       -3.865842   -0.312765    1.048763
     32          1           0       -5.390082    1.871106   -0.192690
     33          1           0       -7.281539    0.247623   -0.623557
     34          1           0       -6.215726   -1.130504   -0.074573
     35          1           0       -5.937350   -0.049125    2.183546
     36          1           0       -6.982725    1.349362    1.669250
     37          1           0        1.496285   -2.281888    1.470765
     38          1           0        2.209919   -2.789745   -0.058164
     39          1           0        3.256794   -2.432489    1.327075
 ---------------------------------------------------------------------

 SCF Done:  E(UB3LYP) =  -839.976709047     A.U. after   33 cycles
 SCF Done:  E(UB3LYP) =  -839.976709046     a.u. after    1 cycles

 The electronic state is 2-A.
 Alpha  occ. eigenvalues --  -19.11525 -14.31050 -14.23733 -14.22055 -14.21965
 Alpha  occ. eigenvalues --  -10.21015 -10.13856 -10.12736 -10.12471 -10.11991
 Alpha  occ. eigenvalues --  -10.11771 -10.11085 -10.09722 -10.09070 -10.08871
 Alpha  occ. eigenvalues --  -10.08850 -10.08616 -10.08035 -10.07341  -1.05523
 Alpha  occ. eigenvalues --   -0.96241  -0.84909  -0.83484  -0.77676  -0.75412
 Alpha  occ. eigenvalues --   -0.73134  -0.68880  -0.66549  -0.63939  -0.61860
 Alpha  occ. eigenvalues --   -0.60127  -0.56013  -0.53144  -0.52396  -0.51488
 Alpha  occ. eigenvalues --   -0.51074  -0.47460  -0.46629  -0.43991  -0.42334
 Alpha  occ. eigenvalues --   -0.41766  -0.40587  -0.40108  -0.37474  -0.36983
 Alpha  occ. eigenvalues --   -0.36214  -0.34977  -0.34322  -0.34105  -0.33430
 Alpha  occ. eigenvalues --   -0.33289  -0.32471  -0.31508  -0.31390  -0.30716
 Alpha  occ. eigenvalues --   -0.29521  -0.29187  -0.28748  -0.28371  -0.26971
 Alpha  occ. eigenvalues --   -0.25719  -0.24122  -0.23447  -0.22251  -0.21209
 Alpha  occ. eigenvalues --   -0.19682  -0.19211  -0.15333  -0.14300  -0.13387
 Alpha  occ. eigenvalues --    0.03718
 Alpha virt. eigenvalues --    0.04945   0.05795   0.06032   0.06815   0.07035
 Alpha virt. eigenvalues --    0.07421   0.07723   0.08434   0.09026   0.09603
 Alpha virt. eigenvalues --    0.10008   0.10199   0.10561   0.10834   0.11106

  Beta  occ. eigenvalues --  -19.11500 -14.31051 -14.23720 -14.22049 -14.21952
  Beta  occ. eigenvalues --  -10.20992 -10.13815 -10.12694 -10.12468 -10.11998
  Beta  occ. eigenvalues --  -10.11761 -10.11084 -10.09713 -10.09047 -10.08852
  Beta  occ. eigenvalues --  -10.08824 -10.08602 -10.08036 -10.07307  -1.05482
  Beta  occ. eigenvalues --   -0.96221  -0.84890  -0.83463  -0.77650  -0.75398
  Beta  occ. eigenvalues --   -0.73085  -0.68839  -0.66508  -0.63915  -0.61814
  Beta  occ. eigenvalues --   -0.60088  -0.55950  -0.53109  -0.52367  -0.51457
  Beta  occ. eigenvalues --   -0.51023  -0.47430  -0.46590  -0.43955  -0.42310
  Beta  occ. eigenvalues --   -0.41727  -0.40515  -0.40046  -0.37423  -0.36937
  Beta  occ. eigenvalues --   -0.36159  -0.34937  -0.34295  -0.34073  -0.33385
  Beta  occ. eigenvalues --   -0.33264  -0.32445  -0.31471  -0.31366  -0.30683
  Beta  occ. eigenvalues --   -0.29472  -0.29165  -0.28726  -0.28347  -0.26929
  Beta  occ. eigenvalues --   -0.25688  -0.24090  -0.23386  -0.22223  -0.21187
  Beta  occ. eigenvalues --   -0.19655  -0.19147  -0.15192  -0.14280  -0.13327
  Beta virt. eigenvalues --    0.05611   0.05765   0.06032   0.06715   0.07129
  Beta virt. eigenvalues --    0.07265   0.07725   0.08072   0.08725   0.09343
  Beta virt. eigenvalues --    0.09759   0.10249   0.10378   0.10785   0.10972

 Mulliken charges and spin densities:
               1          2
     1  C    0.866308  -1.500234
     2  C   -2.072100   1.473054
     3  C    0.961358  -0.171993
     4  C   -0.494296   0.592645
     5  N   -0.018451  -0.030626
     6  N   -0.024145   0.111956
     7  C    0.066682  -0.055118
     8  C   -0.022060  -0.830453
     9  C   -0.287674   0.049093
    10  N   -0.068107   0.036037
    11  C    1.042097  -0.086036
    12  C   -0.796040   0.642064
    13  O   -0.052076   0.020374
    14  C    0.796731  -2.066573
    15  N    0.072733  -0.015825
    16  C   -0.812937   0.647547
    17  C    0.312636  -0.641773
    18  C    0.064860  -0.431541
    19  C    1.048542  -1.479405
    20  H   -0.050494   0.196810
    21  H   -0.465313   0.600870
    22  H   -0.008659   0.140716
    23  H   -0.266326   0.427688
    24  H   -0.067596   0.201487
    25  H   -0.019278   0.167823
    26  H    0.183542  -0.019020
    27  H    0.024305   0.126375
    28  H   -1.128515   1.336758
    29  H    0.171919  -0.011657
    30  H   -0.029913   0.170388
    31  H    0.245524  -0.064047
    32  H    0.117753   0.090889
    33  H   -0.071187   0.200878
    34  H   -0.148208   0.309899
    35  H   -0.058666   0.194189
    36  H    0.107115   0.018401
    37  H   -0.028634   0.217332
    38  H   -0.154118   0.366768
    39  H    0.062688   0.064261
 Sum of Mulliken charges =  -1.00000   1.00000

 Dipole moment (field-independent basis, Debye):
    X=             -2.3466    Y=              3.9306    Z=              0.3462  Tot=              4.5909
 Quadrupole moment (field-independent basis, Debye-Ang):
   XX=           -246.5659   YY=           -163.0447   ZZ=           -141.1538
   XY=             -4.0483   XZ=             -5.2201   YZ=             -3.7584

 Summary of Natural Population Analysis:

                                       Natural Population
                Natural  -----------------------------------------------
    Atom  No    Charge         Core      Valence    Rydberg      Total
 -----------------------------------------------------------------------
      C    1   -0.27969      0.99966     2.27482    0.00521     3.27969
      C    2   -0.19935      0.99962     2.19079    0.00894     3.19935
      C    3   -0.06509      0.99941     2.05497    0.01071     3.06509
      C    4    0.10655      0.99947     1.88350    0.01048     2.89345
      N    5   -0.12786      0.99957     2.61758    0.01071     3.62786
      N    6   -0.14318      0.99969     2.63361    0.00988     3.64318
      C    7    0.08873      0.99955     1.89787    0.01385     2.91127
      C    8   -0.29927      0.99963     2.29519    0.00445     3.29927
      C    9    0.35686      0.99958     1.62400    0.01957     2.64314
      N   10   -0.23966      0.99966     2.73200    0.00800     3.73966
      C   11    0.03831      0.99953     1.94752    0.01464     2.96169
      C   12    0.04440      0.99941     1.94236    0.01383     2.95560
      O   13   -0.23677      0.99986     3.22929    0.00762     4.23677
      C   14   -0.10049      0.99958     2.08913    0.01178     3.10049
      N   15   -0.32682      0.99973     2.81572    0.01138     3.82682
      C   16   -0.01391      0.99958     2.00154    0.01278     3.01391
      C   17   -0.21402      0.99963     2.20587    0.00852     3.21402
      C   18   -0.20265      0.99963     2.19451    0.00852     3.20265
      C   19   -0.30382      0.99963     2.29886    0.00533     3.30382
      H   20    0.09829      0.00000     0.40061    0.00110     0.40171
      H   21    0.09884      0.00000     0.39956    0.00160     0.40116
      H   22    0.09549      0.00000     0.40349    0.00102     0.40451
      H   23    0.10219      0.00000     0.39649    0.00132     0.39781
      H   24    0.10083      0.00000     0.39794    0.00123     0.39917
      H   25    0.10377      0.00000     0.39491    0.00131     0.39623
      H   26    0.11011      0.00000     0.38885    0.00104     0.38989
      H   27    0.10355      0.00000     0.39516    0.00129     0.39645
      H   28    0.10472      0.00000     0.39248    0.00280     0.39528
      H   29    0.09997      0.00000     0.39868    0.00134     0.40003
      H   30    0.08988      0.00000     0.40845    0.00167     0.41012
      H   31    0.17241      0.00000     0.32440    0.00319     0.32759
      H   32    0.09595      0.00000     0.40296    0.00108     0.40405
      H   33    0.10061      0.00000     0.39845    0.00093     0.39939
      H   34    0.10522      0.00000     0.39329    0.00150     0.39478
      H   35    0.10221      0.00000     0.39689    0.00090     0.39779
      H   36    0.10142      0.00000     0.39789    0.00069     0.39858
      H   37    0.10925      0.00000     0.38966    0.00110     0.39075
      H   38    0.11449      0.00000     0.38373    0.00179     0.38551
      H   39    0.10851      0.00000     0.39045    0.00105     0.39149
 =======================================================================
   * Total *    0.00000     18.99242    50.78343    0.22415    70.00000

 Normal termination of Gaussian 16 at Sun Dec 13 14:19:49 2020.
