 Gaussian 16, Revision A.03,

 -----------------------------------------------------------
 # opt freq B3LYP/6-31G(d) empiricaldispersion=gd3bj scf=xqc
 -----------------------------------------------------------

 -------------------------------
 CID_151944068_JID_8755_neutraal
 -------------------------------
 Symbolic Z-matrix:
 Charge =  0 Multiplicity = 1

 SCF Done:  E(RB3LYP) =  -816.477955520     A.U. after   17 cycles
 SCF Done:  E(RB3LYP) =  -816.482288595     A.U. after   14 cycles
 SCF Done:  E(RB3LYP) =  -816.479816924     A.U. after   14 cycles
 SCF Done:  E(RB3LYP) =  -816.483990919     A.U. after   14 cycles
 SCF Done:  E(RB3LYP) =  -816.483342236     A.U. after   14 cycles
 SCF Done:  E(RB3LYP) =  -816.484949299     A.U. after   14 cycles
 SCF Done:  E(RB3LYP) =  -816.485469116     A.U. after   14 cycles
 SCF Done:  E(RB3LYP) =  -816.485795279     A.U. after   13 cycles
 SCF Done:  E(RB3LYP) =  -816.486265778     A.U. after   13 cycles
 SCF Done:  E(RB3LYP) =  -816.486384736     A.U. after   12 cycles
 SCF Done:  E(RB3LYP) =  -816.486531740     A.U. after    9 cycles
 SCF Done:  E(RB3LYP) =  -816.486534370     A.U. after    9 cycles
 SCF Done:  E(RB3LYP) =  -816.486535760     A.U. after    9 cycles
 SCF Done:  E(RB3LYP) =  -816.486536239     A.U. after    8 cycles
 SCF Done:  E(RB3LYP) =  -816.486536310     A.U. after    8 cycles
 Optimization completed.
    -- Stationary point found.
 Normal termination of Gaussian 16 at Fri Dec 11 20:49:06 2020.

 --------------------------------------------------------------------
 #N Geom=AllCheck Guess=TCheck SCRF=Check GenChk RB3LYP/6-31G(d) Freq
 --------------------------------------------------------------------

 Structure from the checkpoint file:  "JID_8755.chk"
 -------------------------------
 CID_151944068_JID_8755_neutraal
 -------------------------------
 Charge =  0 Multiplicity = 1

 SCF Done:  E(RB3LYP) =  -816.486536310     A.U. after    1 cycles

  Exact polarizability: 171.831 -19.179 146.506   9.450   6.059 149.845
 Approx polarizability: 274.860 -33.297 206.328  21.009  15.100 261.979

                      1                      2                      3
                      A                      A                      A
 Frequencies --     30.2404                38.5478                50.0668
 Red. masses --      7.4193                 5.6700                 4.6535
 Frc consts  --      0.0040                 0.0050                 0.0069
 IR Inten    --      0.0269                 0.9379                 0.1470

                      4                      5                      6
                      A                      A                      A
 Frequencies --     71.0260                78.3381                92.9236
 Red. masses --      3.5166                 5.6144                 3.6377
 Frc consts  --      0.0105                 0.0203                 0.0185
 IR Inten    --      0.4790                 4.1799                 0.0482

                      7                      8                      9
                      A                      A                      A
 Frequencies --    121.8362               138.0396               147.9725
 Red. masses --      4.2425                 4.3901                 2.5456
 Frc consts  --      0.0371                 0.0493                 0.0328
 IR Inten    --      0.3075                 0.3307                 2.3831

                     10                     11                     12
                      A                      A                      A
 Frequencies --    179.0544               187.2962               227.1956
 Red. masses --      2.4321                 1.5557                 4.4343
 Frc consts  --      0.0459                 0.0322                 0.1349
 IR Inten    --      0.4361                 1.4188                 0.6108

                     13                     14                     15
                      A                      A                      A
 Frequencies --    246.1610               251.3882               265.8295
 Red. masses --      1.8544                 2.4155                 2.8924
 Frc consts  --      0.0662                 0.0899                 0.1204
 IR Inten    --      0.4732                 1.2115                 1.8717

                     16                     17                     18
                      A                      A                      A
 Frequencies --    290.6467               301.3052               320.4872
 Red. masses --      4.3936                 1.1047                 3.2089
 Frc consts  --      0.2187                 0.0591                 0.1942
 IR Inten    --      7.2428                 0.6562                 1.1659

                     19                     20                     21
                      A                      A                      A
 Frequencies --    372.0115               392.3142               425.2956
 Red. masses --      3.2865                 3.6549                 2.9610
 Frc consts  --      0.2680                 0.3314                 0.3156
 IR Inten    --      1.2487                 8.8448                 0.1258

                     22                     23                     24
                      A                      A                      A
 Frequencies --    433.4142               464.4368               514.1084
 Red. masses --      5.4232                 3.1216                 4.2027
 Frc consts  --      0.6002                 0.3967                 0.6545
 IR Inten    --     11.9312                 0.2865                 2.2486

                     25                     26                     27
                      A                      A                      A
 Frequencies --    570.3721               579.4794               595.4413
 Red. masses --      9.7307                 3.2214                 3.8384
 Frc consts  --      1.8651                 0.6373                 0.8018
 IR Inten    --      4.5804                 4.9462                47.6165

                     28                     29                     30
                      A                      A                      A
 Frequencies --    635.4377               654.2704               686.7589
 Red. masses --      6.2638                 3.8127                 7.9123
 Frc consts  --      1.4902                 0.9616                 2.1987
 IR Inten    --      1.1221                44.7919                17.5608

                     31                     32                     33
                      A                      A                      A
 Frequencies --    720.0518               728.3007               763.9436
 Red. masses --      1.9740                 1.8950                 2.3694
 Frc consts  --      0.6030                 0.5922                 0.8147
 IR Inten    --     15.7239               113.0783                 8.2152

                     34                     35                     36
                      A                      A                      A
 Frequencies --    796.8564               813.3614               816.9682
 Red. masses --      3.3963                 3.5632                 4.3998
 Frc consts  --      1.2706                 1.3889                 1.7302
 IR Inten    --      6.2295                 0.8241                13.4558

                     37                     38                     39
                      A                      A                      A
 Frequencies --    865.8512               908.7770               939.9760
 Red. masses --      1.2465                 2.7256                 1.6562
 Frc consts  --      0.5506                 1.3263                 0.8622
 IR Inten    --      0.6803                 6.7611                 8.8446

                     40                     41                     42
                      A                      A                      A
 Frequencies --    973.9567               978.1372               997.9992
 Red. masses --      1.4000                 3.8951                 1.2498
 Frc consts  --      0.7825                 2.1957                 0.7334
 IR Inten    --      1.1019                 4.4052                 0.9543

                     43                     44                     45
                      A                      A                      A
 Frequencies --   1023.4511              1048.3245              1067.4898
 Red. masses --      6.0773                 3.5028                 2.1764
 Frc consts  --      3.7506                 2.2680                 1.4613
 IR Inten    --      0.9150                36.3464                17.1710

                     46                     47                     48
                      A                      A                      A
 Frequencies --   1075.6878              1078.0905              1096.3406
 Red. masses --      1.9859                 1.7377                 2.5103
 Frc consts  --      1.3538                 1.1900                 1.7778
 IR Inten    --     13.9693                13.3215                43.9463

                     49                     50                     51
                      A                      A                      A
 Frequencies --   1120.3560              1135.8610              1159.6533
 Red. masses --      1.6317                 1.2530                 1.2970
 Frc consts  --      1.2067                 0.9525                 1.0276
 IR Inten    --      8.1386                 5.9524                16.7169

                     52                     53                     54
                      A                      A                      A
 Frequencies --   1192.1599              1195.1691              1198.5596
 Red. masses --      2.1369                 1.1040                 1.4732
 Frc consts  --      1.7894                 0.9291                 1.2469
 IR Inten    --     12.8162                 0.4844                 5.0886

                     55                     56                     57
                      A                      A                      A
 Frequencies --   1216.9928              1224.4556              1226.5051
 Red. masses --      2.5963                 1.1707                 2.1414
 Frc consts  --      2.2656                 1.0342                 1.8980
 IR Inten    --      3.8708                 1.6936                 8.1444

                     58                     59                     60
                      A                      A                      A
 Frequencies --   1282.8305              1314.1694              1322.4867
 Red. masses --      1.6327                 1.7406                 2.3739
 Frc consts  --      1.5830                 1.7711                 2.4462
 IR Inten    --     12.3440                12.8878                17.1281

                     61                     62                     63
                      A                      A                      A
 Frequencies --   1331.0579              1360.3945              1373.3348
 Red. masses --     12.6135                 2.1346                 1.5417
 Frc consts  --     13.1668                 2.3275                 1.7132
 IR Inten    --    146.2470                18.1658                12.9104

                     64                     65                     66
                      A                      A                      A
 Frequencies --   1394.2976              1408.7555              1445.4223
 Red. masses --      1.9629                 1.6020                 1.2765
 Frc consts  --      2.2484                 1.8731                 1.5713
 IR Inten    --     88.8083                33.6808                 5.7244

                     67                     68                     69
                      A                      A                      A
 Frequencies --   1469.1147              1492.5711              1494.6854
 Red. masses --      1.1491                 1.5991                 1.1943
 Frc consts  --      1.4612                 2.0989                 1.5720
 IR Inten    --      2.0767                18.4287                 2.2597

                     70                     71                     72
                      A                      A                      A
 Frequencies --   1497.4407              1506.9621              1511.6189
 Red. masses --      1.3546                 1.6376                 1.0530
 Frc consts  --      1.7896                 2.1911                 1.4177
 IR Inten    --      3.5688                 4.2652                10.8994

                     73                     74                     75
                      A                      A                      A
 Frequencies --   1529.4220              1529.6066              1536.8535
 Red. masses --      1.0527                 1.0647                 1.0578
 Frc consts  --      1.4508                 1.4678                 1.4721
 IR Inten    --     13.6028                12.3130                 1.2274

                     76                     77                     78
                      A                      A                      A
 Frequencies --   1546.6862              1551.6765              1554.4446
 Red. masses --      1.9992                 1.1861                 1.0583
 Frc consts  --      2.8178                 1.6825                 1.5067
 IR Inten    --     10.3889                32.5856                 2.7117

                     79                     80                     81
                      A                      A                      A
 Frequencies --   1643.2972              1665.1235              1773.8611
 Red. masses --      5.2969                 5.4938                 7.3238
 Frc consts  --      8.4276                 8.9747                13.5778
 IR Inten    --      1.3717                 0.9565               276.7528

                     82                     83                     84
                      A                      A                      A
 Frequencies --   2265.8063              2965.8274              2974.6229
 Red. masses --     13.7013                 1.0571                 1.0596
 Frc consts  --     41.4436                 5.4785                 5.5238
 IR Inten    --    649.3970                34.2602                93.5694

                     85                     86                     87
                      A                      A                      A
 Frequencies --   3057.0781              3072.7929              3078.2911
 Red. masses --      1.0424                 1.0836                 1.0770
 Frc consts  --      5.7400                 6.0282                 6.0129
 IR Inten    --     38.7804                 5.5285                20.0577

                     88                     89                     90
                      A                      A                      A
 Frequencies --   3080.5303              3089.3765              3117.1715
 Red. masses --      1.0783                 1.0847                 1.1030
 Frc consts  --      6.0288                 6.0999                 6.3149
 IR Inten    --     67.1914                 9.2791                27.8543

                     91                     92                     93
                      A                      A                      A
 Frequencies --   3121.5652              3161.4996              3177.6984
 Red. masses --      1.1038                 1.0965                 1.0864
 Frc consts  --      6.3373                 6.4574                 6.4634
 IR Inten    --     29.4984                11.2765                 4.4283

                     94                     95                     96
                      A                      A                      A
 Frequencies --   3186.6927              3196.8698              3209.5471
 Red. masses --      1.0876                 1.0924                 1.0972
 Frc consts  --      6.5074                 6.5776                 6.6590
 IR Inten    --      1.0329                26.8919                28.4941

                     97                     98                     99
                      A                      A                      A
 Frequencies --   3215.8729              3248.0287              3568.8242
 Red. masses --      1.0954                 1.0913                 1.0748
 Frc consts  --      6.6745                 6.7833                 8.0657
 IR Inten    --      1.1826                 4.0689                18.9726

 - Thermochemistry -
 -------------------
 Temperature   298.150 Kelvin.  Pressure   1.00000 Atm.
 Atom     1 has atomic number  6 and mass  12.00000

 Molecular mass:   247.14331 amu.
 Principal axes and moments of inertia in atomic units:
                           1         2         3
     Eigenvalues --  3548.815834792.525445753.12269
           X            0.99992   0.01173  -0.00380
           Y           -0.01168   0.99984   0.01374
           Z            0.00396  -0.01369   0.99990
 This molecule is an asymmetric top.
 Rotational symmetry number  1.
 Warning -- assumption of classical behavior for rotation
           may cause significant error
 Rotational temperatures (Kelvin)      0.02441     0.01807     0.01506
 Rotational constants (GHZ):           0.50855     0.37657     0.31370
 Zero-point vibrational energy     765904.2 (Joules/Mol)
                                  183.05549 (Kcal/Mol)
 Warning -- explicit consideration of  27 degrees of freedom as
           vibrations may cause significant error
 Vibrational temperatures:     43.51    55.46    72.04   102.19   112.71
          (Kelvin)            133.70   175.30   198.61   212.90   257.62
                              269.48   326.88   354.17   361.69   382.47
                              418.18   433.51   461.11   535.24   564.45
                              611.91   623.59   668.22   739.69   820.64
                              833.74   856.71   914.25   941.35   988.09
                             1035.99  1047.86  1099.14  1146.50  1170.25
                             1175.43  1245.77  1307.53  1352.42  1401.31
                             1407.32  1435.90  1472.52  1508.31  1535.88
                             1547.67  1551.13  1577.39  1611.94  1634.25
                             1668.48  1715.25  1719.58  1724.46  1750.98
                             1761.72  1764.67  1845.71  1890.80  1902.76
                             1915.10  1957.30  1975.92  2006.08  2026.88
                             2079.64  2113.73  2147.48  2150.52  2154.48
                             2168.18  2174.88  2200.50  2200.76  2211.19
                             2225.34  2232.52  2236.50  2364.34  2395.74
                             2552.19  3259.99  4267.16  4279.82  4398.45
                             4421.06  4428.97  4432.20  4444.92  4484.91
                             4491.24  4548.69  4572.00  4584.94  4599.58
                             4617.82  4626.92  4673.19  5134.74

 Zero-point correction=                           0.291717 (Hartree/Particle)
 Thermal correction to Energy=                    0.309689
 Thermal correction to Enthalpy=                  0.310633
 Thermal correction to Gibbs Free Energy=         0.244905
 Sum of electronic and zero-point Energies=           -816.194819
 Sum of electronic and thermal Energies=              -816.176847
 Sum of electronic and thermal Enthalpies=            -816.175903
 Sum of electronic and thermal Free Energies=         -816.241632

                     E (Thermal)             CV                S
                      KCal/Mol        Cal/Mol-Kelvin    Cal/Mol-Kelvin
 Total                  194.333             66.396            138.337
 Electronic               0.000              0.000              0.000
 Translational            0.889              2.981             42.415
 Rotational               0.889              2.981             32.948
 Vibrational            192.555             60.435             62.974
 Vibration     1          0.594              1.984              5.814
 Vibration     2          0.594              1.981              5.332
 Vibration     3          0.595              1.978              4.815
 Vibration     4          0.598              1.968              4.125
 Vibration     5          0.600              1.964              3.932
 Vibration     6          0.602              1.954              3.598
 Vibration     7          0.609              1.931              3.071
 Vibration     8          0.614              1.915              2.831
 Vibration     9          0.617              1.905              2.698
 Vibration    10          0.629              1.868              2.338
 Vibration    11          0.632              1.857              2.254
 Vibration    12          0.651              1.800              1.901
 Vibration    13          0.661              1.769              1.758
 Vibration    14          0.663              1.760              1.721
 Vibration    15          0.672              1.736              1.623
 Vibration    16          0.687              1.691              1.470
 Vibration    17          0.693              1.671              1.410
 Vibration    18          0.706              1.634              1.308
 Vibration    19          0.744              1.530              1.071
 Vibration    20          0.760              1.487              0.991
 Vibration    21          0.787              1.415              0.874
 Vibration    22          0.794              1.397              0.848
 Vibration    23          0.822              1.329              0.753
 Vibration    24          0.869              1.219              0.624
 Vibration    25          0.926              1.095              0.504
 Vibration    26          0.936              1.076              0.486
 Vibration    27          0.953              1.041              0.458

 Optimization completed.
    -- Stationary point found.
 Normal termination of Gaussian 16 at Fri Dec 11 21:06:51 2020.

 ----------------------------------------------------------------------
 # B3LYP/6-311++G(d,p) empiricaldispersion=gd3bj scf=xqc pop=npa geom=c
 heck
 ----------------------------------------------------------------------

 ---------------------------------------
 CID_151944068_JID_8755_Energie_neutraal
 ---------------------------------------
 Structure from the checkpoint file:  "JID_8755.chk"
 Charge =  0 Multiplicity = 1

 SCF Done:  E(RB3LYP) =  -816.713949691     A.U. after   16 cycles
 Normal termination of Gaussian 16 at Fri Dec 11 21:14:40 2020.

 ----------------------------------------------------------------------
 # B3LYP/6-311++G(d,p) empiricaldispersion=gd3bj scf=xqc pop=npa geom=c
 heck
 ----------------------------------------------------------------------

 -------------------------------------
 CID_151944068_JID_8755_Energie_kation
 -------------------------------------
 Structure from the checkpoint file:  "JID_8755.chk"
 Charge =  1 Multiplicity = 2

 SCF Done:  E(UB3LYP) =  -816.422213232     A.U. after   28 cycles
 Normal termination of Gaussian 16 at Fri Dec 11 21:34:36 2020.
 Gaussian 16:  ES64L-G16RevA.03 25-Dec-2016

 ----------------------------------------------------------------------
 # B3LYP/6-311++G(d,p) empiricaldispersion=gd3bj scf=xqc pop=npa geom=c
 heck
 ----------------------------------------------------------------------

 ------------------------------------
 CID_151944068_JID_8755_Energie_anion
 ------------------------------------
 Structure from the checkpoint file:  "JID_8755.chk"
 Charge = -1 Multiplicity = 2

                         Standard orientation:
 ---------------------------------------------------------------------
 Center     Atomic      Atomic             Coordinates (Angstroms)
 Number     Number       Type             X           Y           Z
 ---------------------------------------------------------------------
      1          6           0       -0.737359   -2.581402   -0.301223
      2          7           0       -1.457889   -2.057016    0.855371
      3          6           0       -1.541351   -0.782823    1.336860
      4          8           0       -1.824726   -0.561492    2.509751
      5          6           0       -1.323798    0.443724    0.422497
      6          6           0        0.102312    0.994648    0.653805
      7          6           0        1.204155    0.095284    0.104101
      8          6           0        1.412609   -0.112447   -1.268194
      9          6           0        2.428683   -0.957625   -1.712697
     10          6           0        3.253210   -1.614756   -0.797897
     11          6           0        3.057708   -1.416020    0.568853
     12          6           0        2.044925   -0.563720    1.010013
     13          7           0        0.196568    2.428252    0.347824
     14          6           0        1.321186    3.047941    1.037220
     15          6           0        0.174432    2.824819   -1.055470
     16          7           0       -1.616715    0.227925   -1.014106
     17          7           0       -2.810545    0.056361   -1.284857
     18          7           0       -3.875064   -0.113211   -1.659973
     19          1           0       -0.745654   -1.854985   -1.108910
     20          1           0       -1.236759   -3.494002   -0.640266
     21          1           0        0.306458   -2.810716   -0.056372
     22          1           0       -1.617342   -2.720234    1.606322
     23          1           0       -2.003911    1.203035    0.820461
     24          1           0        0.184290    0.951714    1.744862
     25          1           0        0.759234    0.358813   -1.990594
     26          1           0        2.571314   -1.109172   -2.779137
     27          1           0        4.041435   -2.275280   -1.147987
     28          1           0        3.693106   -1.920334    1.291640
     29          1           0        1.894911   -0.414059    2.076524
     30          1           0        2.305419    2.713538    0.661894
     31          1           0        1.261957    4.134185    0.910196
     32          1           0        1.269100    2.827037    2.108598
     33          1           0        1.115444    2.605399   -1.590043
     34          1           0       -0.645039    2.327978   -1.576591
     35          1           0        0.009092    3.907106   -1.105621
 ---------------------------------------------------------------------

 SCF Done:  E(UB3LYP) =  -816.708520234     A.U. after   33 cycles
 SCF Done:  E(UB3LYP) =  -816.708520234     a.u. after    1 cycles

 The electronic state is 2-A.
 Alpha  occ. eigenvalues --  -18.99580 -14.34369 -14.25065 -14.24607 -14.24016
 Alpha  occ. eigenvalues --  -14.21813 -10.18066 -10.12644 -10.11921 -10.10104
 Alpha  occ. eigenvalues --  -10.09889 -10.08995 -10.08713 -10.08131 -10.08074
 Alpha  occ. eigenvalues --  -10.08014 -10.07930 -10.07656  -1.01651  -0.94808
 Alpha  occ. eigenvalues --   -0.86364  -0.83581  -0.82591  -0.76355  -0.70065
 Alpha  occ. eigenvalues --   -0.65419  -0.65086  -0.61630  -0.61175  -0.58569
 Alpha  occ. eigenvalues --   -0.52208  -0.51452  -0.50064  -0.48397  -0.45610
 Alpha  occ. eigenvalues --   -0.41934  -0.40579  -0.40067  -0.39109  -0.38433
 Alpha  occ. eigenvalues --   -0.38058  -0.37068  -0.35669  -0.35281  -0.34839
 Alpha  occ. eigenvalues --   -0.34305  -0.33314  -0.32778  -0.31800  -0.31205
 Alpha  occ. eigenvalues --   -0.30267  -0.29861  -0.28971  -0.28185  -0.27661
 Alpha  occ. eigenvalues --   -0.27094  -0.26037  -0.25222  -0.24595  -0.20515
 Alpha  occ. eigenvalues --   -0.17448  -0.16418  -0.16107  -0.15784  -0.13873
 Alpha  occ. eigenvalues --   -0.12584   0.04140
 Alpha virt. eigenvalues --    0.05979   0.06619   0.07117   0.07327   0.07613
 Alpha virt. eigenvalues --    0.07813   0.08746   0.08888   0.09794   0.09950
 Alpha virt. eigenvalues --    0.10072   0.10868   0.11526   0.11735   0.12083

  Beta  occ. eigenvalues --  -18.99578 -14.34052 -14.24695 -14.24601 -14.24067
  Beta  occ. eigenvalues --  -14.21810 -10.18067 -10.12579 -10.11918 -10.10080
  Beta  occ. eigenvalues --  -10.09881 -10.08980 -10.08714 -10.08116 -10.08058
  Beta  occ. eigenvalues --  -10.07996 -10.07909 -10.07642  -1.01071  -0.94800
  Beta  occ. eigenvalues --   -0.86118  -0.83550  -0.82570  -0.76324  -0.69989
  Beta  occ. eigenvalues --   -0.65365  -0.65020  -0.61608  -0.61140  -0.58492
  Beta  occ. eigenvalues --   -0.52165  -0.51399  -0.49993  -0.48298  -0.45535
  Beta  occ. eigenvalues --   -0.41864  -0.40200  -0.39800  -0.38961  -0.38203
  Beta  occ. eigenvalues --   -0.37904  -0.36745  -0.35518  -0.35253  -0.34803
  Beta  occ. eigenvalues --   -0.34148  -0.32860  -0.32393  -0.31756  -0.31125
  Beta  occ. eigenvalues --   -0.30196  -0.29827  -0.28937  -0.28152  -0.27621
  Beta  occ. eigenvalues --   -0.27065  -0.25991  -0.25123  -0.24537  -0.20056
  Beta  occ. eigenvalues --   -0.17273  -0.16363  -0.16032  -0.15740  -0.13811
  Beta  occ. eigenvalues --   -0.12557
  Beta virt. eigenvalues --    0.06273   0.06945   0.07596   0.07656   0.07683
  Beta virt. eigenvalues --    0.07889   0.08902   0.09144   0.09449   0.09918
  Beta virt. eigenvalues --    0.10073   0.10285   0.11065   0.11644   0.11937

 Mulliken charges and spin densities:
               1          2
     1  C    0.113688  -0.543742
     2  N   -0.342279   0.109359
     3  C   -0.485020   0.093274
     4  O   -0.322401   0.011518
     5  C    1.141550  -1.117858
     6  C   -0.659208   0.206090
     7  C    0.421291   0.263016
     8  C   -0.992731   0.831005
     9  C    0.095019  -0.637657
    10  C    1.573410  -1.905985
    11  C   -0.024874  -0.438763
    12  C   -0.790518   0.639259
    13  N    0.164208  -0.035080
    14  C   -0.059408  -0.233052
    15  C   -0.051111  -0.320524
    16  N   -0.175215   0.117454
    17  N    0.261383   0.102310
    18  N   -0.218875   0.159077
    19  H   -0.062844   0.233965
    20  H   -0.190972   0.360091
    21  H    0.106760   0.068692
    22  H    0.157802   0.129159
    23  H    0.277629  -0.013813
    24  H    0.288141  -0.014471
    25  H    0.159420   0.037722
    26  H   -0.454616   0.642606
    27  H   -0.595009   0.762268
    28  H   -0.623565   0.814396
    29  H    0.080989   0.081760
    30  H    0.112214   0.018176
    31  H    0.048795   0.086903
    32  H    0.007541   0.105940
    33  H    0.037628   0.077051
    34  H   -0.025955   0.208099
    35  H    0.027135   0.101758
 Sum of Mulliken charges =  -1.00000   1.00000

 Dipole moment (field-independent basis, Debye):
    X=             -0.6561    Y=              3.4854    Z=              1.5419  Tot=              3.8673
 Quadrupole moment (field-independent basis, Debye-Ang):
   XX=           -182.0458   YY=           -145.3501   ZZ=           -149.1713
   XY=             12.7881   XZ=              1.3687   YZ=             -2.6354

 Summary of Natural Population Analysis:

                                       Natural Population
                Natural  -----------------------------------------------
    Atom  No    Charge         Core      Valence    Rydberg      Total
 -----------------------------------------------------------------------
      C    1   -0.18549      0.99963     2.17786    0.00800     3.18549
      N    2   -0.31019      0.99966     2.80134    0.00919     3.81019
      C    3    0.33943      0.99963     1.63748    0.02345     2.66057
      O    4   -0.32833      0.99988     3.32272    0.00574     4.32833
      C    5   -0.04454      0.99948     2.03027    0.01479     3.04454
      C    6   -0.00862      0.99949     1.99363    0.01550     3.00862
      C    7   -0.03346      0.99947     2.02046    0.01353     3.03346
      C    8   -0.10059      0.99950     2.09011    0.01098     3.10059
      C    9   -0.09780      0.99955     2.08761    0.01064     3.09780
      C   10   -0.10075      0.99955     2.09043    0.01076     3.10075
      C   11   -0.10148      0.99956     2.09096    0.01097     3.10148
      C   12   -0.09770      0.99951     2.08847    0.00972     3.09770
      N   13   -0.27464      0.99972     2.76299    0.01193     3.77464
      C   14   -0.17498      0.99965     2.16871    0.00662     3.17498
      C   15   -0.18273      0.99964     2.17596    0.00714     3.18273
      N   16   -0.22642      0.99969     2.71174    0.01500     3.72642
      N   17    0.14537      0.99970     2.33973    0.01521     3.35463
      N   18   -0.00483      0.99982     2.49213    0.01288     3.50483
      H   19    0.11476      0.00000     0.38332    0.00191     0.38524
      H   20    0.09395      0.00000     0.40501    0.00104     0.40605
      H   21    0.09704      0.00000     0.40132    0.00165     0.40296
      H   22    0.18941      0.00000     0.30790    0.00269     0.31059
      H   23    0.11259      0.00000     0.38547    0.00194     0.38741
      H   24    0.10871      0.00000     0.38917    0.00213     0.39129
      H   25    0.11129      0.00000     0.38632    0.00239     0.38871
      H   26    0.10177      0.00000     0.39704    0.00118     0.39823
      H   27    0.10360      0.00000     0.39433    0.00207     0.39640
      H   28    0.10284      0.00000     0.39579    0.00137     0.39716
      H   29    0.09985      0.00000     0.39861    0.00155     0.40015
      H   30    0.08441      0.00000     0.41396    0.00163     0.41559
      H   31    0.09243      0.00000     0.40654    0.00103     0.40757
      H   32    0.09404      0.00000     0.40496    0.00100     0.40596
      H   33    0.08229      0.00000     0.41616    0.00155     0.41771
      H   34    0.10791      0.00000     0.39075    0.00134     0.39209
      H   35    0.09085      0.00000     0.40814    0.00101     0.40915
 =======================================================================
   * Total *   -0.00000     17.99312    47.76737    0.23951    66.00000

 Normal termination of Gaussian 16 at Fri Dec 11 21:57:13 2020.
