 Gaussian 16, Revision A.03,

 -----------------------------------------------------------
 # opt freq B3LYP/6-31G(d) empiricaldispersion=gd3bj scf=xqc
 -----------------------------------------------------------

 -------------------------------
 CID_123190959_JID_3441_neutraal
 -------------------------------
 Symbolic Z-matrix:
 Charge =  0 Multiplicity = 1

 SCF Done:  E(RB3LYP) =  -684.419654945     A.U. after   15 cycles
 SCF Done:  E(RB3LYP) =  -684.424745770     A.U. after   12 cycles
 SCF Done:  E(RB3LYP) =  -684.423907586     A.U. after   12 cycles
 SCF Done:  E(RB3LYP) =  -684.425345375     A.U. after   12 cycles
 SCF Done:  E(RB3LYP) =  -684.425444579     A.U. after   11 cycles
 SCF Done:  E(RB3LYP) =  -684.425463323     A.U. after   11 cycles
 SCF Done:  E(RB3LYP) =  -684.425489289     A.U. after   10 cycles
 SCF Done:  E(RB3LYP) =  -684.425489144     A.U. after   10 cycles
 SCF Done:  E(RB3LYP) =  -684.425494991     A.U. after    8 cycles
 SCF Done:  E(RB3LYP) =  -684.425498672     A.U. after    9 cycles
 SCF Done:  E(RB3LYP) =  -684.425669765     A.U. after   10 cycles
 SCF Done:  E(RB3LYP) =  -684.425672932     A.U. after   10 cycles
 SCF Done:  E(RB3LYP) =  -684.425673324     A.U. after    8 cycles
 SCF Done:  E(RB3LYP) =  -684.425673382     A.U. after    7 cycles
 SCF Done:  E(RB3LYP) =  -684.425673410     A.U. after    7 cycles
 SCF Done:  E(RB3LYP) =  -684.425673408     A.U. after    7 cycles
 Optimization completed.
    -- Stationary point found.
 Normal termination of Gaussian 16 at Wed Dec  9 23:23:58 2020.

 --------------------------------------------------------------------
 #N Geom=AllCheck Guess=TCheck SCRF=Check GenChk RB3LYP/6-31G(d) Freq
 --------------------------------------------------------------------

 Structure from the checkpoint file:  "JID_3441.chk"
 -------------------------------
 CID_123190959_JID_3441_neutraal
 -------------------------------
 Charge =  0 Multiplicity = 1

 SCF Done:  E(RB3LYP) =  -684.425673408     A.U. after    1 cycles

  Exact polarizability: 112.497  -1.198  87.101   0.933  -5.318  80.645
 Approx polarizability: 135.554  -3.034 126.472  -3.919 -17.829 131.323

                      1                      2                      3
                      A                      A                      A
 Frequencies --     27.1058                46.5792                68.9044
 Red. masses --      5.2475                 6.1351                 5.9093
 Frc consts  --      0.0023                 0.0078                 0.0165
 IR Inten    --      1.0497                 0.6026                 8.4420

                      4                      5                      6
                      A                      A                      A
 Frequencies --    107.6031               130.1916               142.6272
 Red. masses --      3.6088                 1.4894                 2.1555
 Frc consts  --      0.0246                 0.0149                 0.0258
 IR Inten    --      0.7928                 0.8376                 0.8964

                      7                      8                      9
                      A                      A                      A
 Frequencies --    153.7927               211.1945               222.6439
 Red. masses --      3.3464                 4.1494                 4.3379
 Frc consts  --      0.0466                 0.1090                 0.1267
 IR Inten    --      1.5051                14.1868                 6.8769

                     10                     11                     12
                      A                      A                      A
 Frequencies --    288.2552               320.0302               349.7979
 Red. masses --      3.2869                 5.1986                 1.3132
 Frc consts  --      0.1609                 0.3137                 0.0947
 IR Inten    --      3.9271                14.7633               251.7143

                     13                     14                     15
                      A                      A                      A
 Frequencies --    368.2310               394.2065               413.2909
 Red. masses --      2.9356                 4.0379                 3.9088
 Frc consts  --      0.2345                 0.3697                 0.3934
 IR Inten    --     36.8568                 3.6206                 4.0091

                     16                     17                     18
                      A                      A                      A
 Frequencies --    489.1706               531.8883               577.8017
 Red. masses --      2.0020                 1.2875                 2.7745
 Frc consts  --      0.2823                 0.2146                 0.5457
 IR Inten    --      4.5815                15.0887                 0.3105

                     19                     20                     21
                      A                      A                      A
 Frequencies --    682.5860               699.0999               742.4113
 Red. masses --      4.7849                 3.6082                 4.0154
 Frc consts  --      1.3135                 1.0390                 1.3040
 IR Inten    --      8.3118                 8.0015                 3.1025

                     22                     23                     24
                      A                      A                      A
 Frequencies --    764.6534               770.8227               802.6779
 Red. masses --      5.0206                10.6179                 3.7840
 Frc consts  --      1.7296                 3.7170                 1.4364
 IR Inten    --     13.2376                26.7520                 2.7254

                     25                     26                     27
                      A                      A                      A
 Frequencies --    865.0541               892.5450               938.1351
 Red. masses --      3.2114                 1.6548                 2.8871
 Frc consts  --      1.4159                 0.7767                 1.4971
 IR Inten    --      5.0695                93.5731                 9.0849

                     28                     29                     30
                      A                      A                      A
 Frequencies --    957.4291               986.0834              1011.1824
 Red. masses --      4.4886                 2.5560                 2.2602
 Frc consts  --      2.4242                 1.4644                 1.3616
 IR Inten    --     28.9691                35.0657                 7.2687

                     31                     32                     33
                      A                      A                      A
 Frequencies --   1045.8142              1060.2190              1089.0418
 Red. masses --      3.1804                 3.1725                 2.3858
 Frc consts  --      2.0495                 2.1011                 1.6672
 IR Inten    --     11.3238                22.8195                65.1732

                     34                     35                     36
                      A                      A                      A
 Frequencies --   1125.3360              1131.0631              1149.2566
 Red. masses --      2.1008                 2.3391                 3.1609
 Frc consts  --      1.5675                 1.7631                 2.4598
 IR Inten    --     17.2501               101.1543                32.5219

                     37                     38                     39
                      A                      A                      A
 Frequencies --   1186.5650              1211.9435              1228.6131
 Red. masses --      1.2774                 1.7574                 1.6300
 Frc consts  --      1.0597                 1.5209                 1.4497
 IR Inten    --      1.5389               124.1781               149.2315

                     40                     41                     42
                      A                      A                      A
 Frequencies --   1232.7805              1287.6686              1309.2359
 Red. masses --      1.7092                 1.4720                 1.4334
 Frc consts  --      1.5304                 1.4380                 1.4476
 IR Inten    --     55.5522               100.9204                11.4041

                     43                     44                     45
                      A                      A                      A
 Frequencies --   1320.4091              1350.9659              1366.1560
 Red. masses --      1.4714                 1.2280                 1.6586
 Frc consts  --      1.5115                 1.3205                 1.8238
 IR Inten    --     22.3480                 5.3061               162.2084

                     46                     47                     48
                      A                      A                      A
 Frequencies --   1384.6877              1404.7196              1441.5388
 Red. masses --      1.7664                 1.5862                 1.5063
 Frc consts  --      1.9954                 1.8441                 1.8442
 IR Inten    --    227.0899                43.8583                83.6293

                     49                     50                     51
                      A                      A                      A
 Frequencies --   1492.7755              1506.4626              1512.7039
 Red. masses --      1.1963                 1.1162                 1.0478
 Frc consts  --      1.5707                 1.4925                 1.4127
 IR Inten    --     17.1224                10.7022                 6.0239

                     52                     53                     54
                      A                      A                      A
 Frequencies --   1515.2100              1522.5042              1525.4270
 Red. masses --      1.0944                 1.2024                 1.0478
 Frc consts  --      1.4803                 1.6422                 1.4366
 IR Inten    --      2.7087                 6.9862                 8.6285

                     55                     56                     57
                      A                      A                      A
 Frequencies --   1638.9043              1824.3702              1836.3156
 Red. masses --      1.2440                 9.3372                11.0724
 Frc consts  --      1.9686                18.3102                21.9983
 IR Inten    --    133.3587               272.2652               259.6603

                     58                     59                     60
                      A                      A                      A
 Frequencies --   3041.4767              3054.0006              3076.0148
 Red. masses --      1.0724                 1.0846                 1.0295
 Frc consts  --      5.8448                 5.9601                 5.7395
 IR Inten    --     42.9947                31.6808                31.9318

                     61                     62                     63
                      A                      A                      A
 Frequencies --   3095.4689              3116.3117              3146.5182
 Red. masses --      1.0600                 1.0881                 1.0967
 Frc consts  --      5.9841                 6.2261                 6.3974
 IR Inten    --     13.8601                27.9686                 6.7541

                     64                     65                     66
                      A                      A                      A
 Frequencies --   3148.1416              3150.5493              3182.8129
 Red. masses --      1.1041                 1.1075                 1.1072
 Frc consts  --      6.4471                 6.4767                 6.6086
 IR Inten    --     35.6541                21.1615                18.4290

                     67                     68                     69
                      A                      A                      A
 Frequencies --   3495.4027              3606.7355              3730.5448
 Red. masses --      1.0728                 1.0455                 1.1044
 Frc consts  --      7.7224                 8.0132                 9.0560
 IR Inten    --     19.6625                54.9325                46.1306

 - Thermochemistry -
 -------------------
 Temperature   298.150 Kelvin.  Pressure   1.00000 Atm.
 Atom     1 has atomic number  6 and mass  12.00000

 Molecular mass:   188.07971 amu.
 Principal axes and moments of inertia in atomic units:
                           1         2         3
     Eigenvalues --  1156.357904067.406644368.59670
           X            0.99994   0.00839   0.00752
           Y           -0.00858   0.99962   0.02634
           Z           -0.00729  -0.02640   0.99962
 This molecule is an asymmetric top.
 Rotational symmetry number  1.
 Warning -- assumption of classical behavior for rotation
           may cause significant error
 Rotational temperatures (Kelvin)      0.07490     0.02129     0.01983
 Rotational constants (GHZ):           1.56071     0.44371     0.41312
 Zero-point vibrational energy     541314.2 (Joules/Mol)
                                  129.37719 (Kcal/Mol)
 Warning -- explicit consideration of  18 degrees of freedom as
           vibrations may cause significant error
 Vibrational temperatures:     39.00    67.02    99.14   154.82   187.32
          (Kelvin)            205.21   221.27   303.86   320.33   414.73
                              460.45   503.28   529.80   567.18   594.63
                              703.81   765.27   831.33   982.09  1005.85
                             1068.16  1100.17  1109.04  1154.87  1244.62
                             1284.17  1349.77  1377.53  1418.75  1454.87
                             1504.69  1525.42  1566.89  1619.11  1627.35
                             1653.52  1707.20  1743.72  1767.70  1773.70
                             1852.67  1883.70  1899.77  1943.74  1965.59
                             1992.26  2021.08  2074.05  2147.77  2167.46
                             2176.44  2180.05  2190.54  2194.75  2358.02
                             2624.86  2642.05  4376.01  4394.03  4425.70
                             4453.69  4483.68  4527.14  4529.47  4532.94
                             4579.36  5029.10  5189.29  5367.42

 Zero-point correction=                           0.206176 (Hartree/Particle)
 Thermal correction to Energy=                    0.219228
 Thermal correction to Enthalpy=                  0.220172
 Thermal correction to Gibbs Free Energy=         0.165258
 Sum of electronic and zero-point Energies=           -684.219498
 Sum of electronic and thermal Energies=              -684.206446
 Sum of electronic and thermal Enthalpies=            -684.205502
 Sum of electronic and thermal Free Energies=         -684.260416

                     E (Thermal)             CV                S
                      KCal/Mol        Cal/Mol-Kelvin    Cal/Mol-Kelvin
 Total                  137.567             47.276            115.577
 Electronic               0.000              0.000              0.000
 Translational            0.889              2.981             41.601
 Rotational               0.889              2.981             31.397
 Vibrational            135.790             41.315             42.579
 Vibration     1          0.593              1.984              6.031
 Vibration     2          0.595              1.979              4.958
 Vibration     3          0.598              1.969              4.184
 Vibration     4          0.606              1.943              3.312
 Vibration     5          0.612              1.923              2.943
 Vibration     6          0.616              1.911              2.768
 Vibration     7          0.619              1.898              2.625
 Vibration     8          0.643              1.824              2.033
 Vibration     9          0.648              1.807              1.937
 Vibration    10          0.685              1.696              1.484
 Vibration    11          0.706              1.635              1.310
 Vibration    12          0.727              1.576              1.167
 Vibration    13          0.741              1.538              1.087
 Vibration    14          0.761              1.483              0.984
 Vibration    15          0.777              1.441              0.915
 Vibration    16          0.845              1.274              0.686
 Vibration    17          0.887              1.179              0.583
 Vibration    18          0.934              1.079              0.489

 Optimization completed.
    -- Stationary point found.
 Normal termination of Gaussian 16 at Wed Dec  9 23:30:18 2020.

 ----------------------------------------------------------------------
 # B3LYP/6-311++G(d,p) empiricaldispersion=gd3bj scf=xqc pop=npa geom=c
 heck
 ----------------------------------------------------------------------

 ---------------------------------------
 CID_123190959_JID_3441_Energie_neutraal
 ---------------------------------------
 Structure from the checkpoint file:  "JID_3441.chk"
 Charge =  0 Multiplicity = 1

 SCF Done:  E(RB3LYP) =  -684.640126755     A.U. after   14 cycles
 Normal termination of Gaussian 16 at Wed Dec  9 23:32:58 2020.

 ----------------------------------------------------------------------
 # B3LYP/6-311++G(d,p) empiricaldispersion=gd3bj scf=xqc pop=npa geom=c
 heck
 ----------------------------------------------------------------------

 -------------------------------------
 CID_123190959_JID_3441_Energie_kation
 -------------------------------------
 Structure from the checkpoint file:  "JID_3441.chk"
 Charge =  1 Multiplicity = 2

 SCF Done:  E(UB3LYP) =  -684.326811067     A.U. after   24 cycles
 Normal termination of Gaussian 16 at Wed Dec  9 23:39:21 2020.
 Gaussian 16:  ES64L-G16RevA.03 25-Dec-2016

 ----------------------------------------------------------------------
 # B3LYP/6-311++G(d,p) empiricaldispersion=gd3bj scf=xqc pop=npa geom=c
 heck
 ----------------------------------------------------------------------

 ------------------------------------
 CID_123190959_JID_3441_Energie_anion
 ------------------------------------
 Structure from the checkpoint file:  "JID_3441.chk"
 Charge = -1 Multiplicity = 2

                         Standard orientation:
 ---------------------------------------------------------------------
 Center     Atomic      Atomic             Coordinates (Angstroms)
 Number     Number       Type             X           Y           Z
 ---------------------------------------------------------------------
      1          6           0       -4.090874   -0.995236   -0.543111
      2          8           0       -3.060829    0.000613   -0.649082
      3          6           0       -2.080631   -0.090922    0.276525
      4          8           0       -2.051864   -0.928045    1.150187
      5          6           0       -1.007730    0.945324    0.025872
      6          6           0       -0.026237    0.484128   -1.096593
      7          6           0        1.305388    1.160799   -0.705450
      8          6           0        1.037854    1.757902    0.706708
      9          7           0       -0.201798    1.177552    1.221308
     10          8           0        2.453522    0.282638   -0.799931
     11          6           0        2.517509   -0.794052    0.020360
     12          8           0        1.716081   -1.074171    0.894314
     13          7           0        3.609466   -1.552890   -0.298114
     14          1           0       -4.784417   -0.787447   -1.358134
     15          1           0       -4.597067   -0.919861    0.422693
     16          1           0       -3.666433   -1.997750   -0.642801
     17          1           0       -1.489950    1.882103   -0.280153
     18          1           0        0.091047   -0.601565   -1.062879
     19          1           0       -0.366650    0.763741   -2.096641
     20          1           0        1.577542    1.946041   -1.413010
     21          1           0        1.867565    1.590887    1.395623
     22          1           0        0.903770    2.842273    0.597598
     23          1           0        0.016591    0.259851    1.610304
     24          1           0        4.329914   -1.153558   -0.880999
     25          1           0        3.877468   -2.253280    0.376276
 ---------------------------------------------------------------------

 SCF Done:  E(UB3LYP) =  -684.628933015     A.U. after   32 cycles

 The electronic state is 2-A.
 Alpha  occ. eigenvalues --  -19.08349 -19.06573 -19.02483 -19.00014 -14.23142
 Alpha  occ. eigenvalues --  -14.19844 -10.22464 -10.21134 -10.14071 -10.13770
 Alpha  occ. eigenvalues --  -10.11900 -10.09973 -10.08287  -1.02252  -1.01108
 Alpha  occ. eigenvalues --   -0.93528  -0.92141  -0.83389  -0.80967  -0.67963
 Alpha  occ. eigenvalues --   -0.66960  -0.62564  -0.55592  -0.53526  -0.48116
 Alpha  occ. eigenvalues --   -0.47237  -0.44496  -0.43440  -0.42097  -0.40121
 Alpha  occ. eigenvalues --   -0.39193  -0.38079  -0.37684  -0.36390  -0.35357
 Alpha  occ. eigenvalues --   -0.34346  -0.32709  -0.30329  -0.29751  -0.28432
 Alpha  occ. eigenvalues --   -0.27636  -0.26857  -0.26712  -0.24721  -0.22421
 Alpha  occ. eigenvalues --   -0.21113  -0.19585  -0.18709  -0.18245  -0.13883
 Alpha  occ. eigenvalues --    0.04099
 Alpha virt. eigenvalues --    0.05479   0.06460   0.08467   0.08857   0.09118
 Alpha virt. eigenvalues --    0.09415   0.09645   0.10168   0.10739   0.12341
 Alpha virt. eigenvalues --    0.12455   0.13197   0.13668   0.14075   0.15098

  Beta  occ. eigenvalues --  -19.08344 -19.06563 -19.02478 -19.00007 -14.23064
  Beta  occ. eigenvalues --  -14.19842 -10.22461 -10.21133 -10.14054 -10.13738
  Beta  occ. eigenvalues --  -10.11893 -10.09960 -10.08273  -1.02242  -1.01088
  Beta  occ. eigenvalues --   -0.93517  -0.92122  -0.83372  -0.80870  -0.67938
  Beta  occ. eigenvalues --   -0.66920  -0.62522  -0.55545  -0.53488  -0.48060
  Beta  occ. eigenvalues --   -0.47160  -0.44462  -0.43389  -0.42049  -0.40100
  Beta  occ. eigenvalues --   -0.39170  -0.38051  -0.37632  -0.36360  -0.35325
  Beta  occ. eigenvalues --   -0.34323  -0.32684  -0.30304  -0.29730  -0.28403
  Beta  occ. eigenvalues --   -0.27614  -0.26834  -0.26685  -0.24696  -0.22406
  Beta  occ. eigenvalues --   -0.21101  -0.19572  -0.18687  -0.18188  -0.13864
  Beta virt. eigenvalues --    0.06235   0.06976   0.07645   0.08683   0.09242
  Beta virt. eigenvalues --    0.09549   0.09899   0.09999   0.10858   0.11416
  Beta virt. eigenvalues --    0.12511   0.12720   0.13237   0.13718   0.14114

 Mulliken charges and spin densities:
               1          2
     1  C    0.549079  -0.775729
     2  O   -0.099129   0.052055
     3  C   -0.537670   0.442807
     4  O   -0.248565   0.003032
     5  C   -0.108018  -0.340024
     6  C    0.914278  -1.137190
     7  C   -0.636505   0.505264
     8  C    0.641665  -1.032530
     9  N   -0.023985  -0.006186
    10  O    0.000302  -0.065709
    11  C    1.121963  -1.165506
    12  O   -0.281826  -0.038431
    13  N   -0.507921   0.195931
    14  H   -0.443782   0.598208
    15  H   -0.025176   0.194302
    16  H   -0.025035   0.196496
    17  H   -0.040049   0.267613
    18  H    0.009441   0.232169
    19  H   -0.059164   0.254700
    20  H   -0.763088   1.002444
    21  H   -0.003087   0.205370
    22  H    0.000709   0.153139
    23  H    0.275258  -0.004161
    24  H   -0.468135   0.743985
    25  H   -0.241559   0.517952
 Sum of Mulliken charges =  -1.00000   1.00000

 Dipole moment (field-independent basis, Debye):
    X=             -3.8926    Y=              1.4529    Z=              1.6527  Tot=              4.4715
 Quadrupole moment (field-independent basis, Debye-Ang):
   XX=           -160.3828   YY=           -113.2396   ZZ=           -112.2313
   XY=              7.8698   XZ=              2.8449   YZ=              4.1526

 Summary of Natural Population Analysis:

                                       Natural Population
                Natural  -----------------------------------------------
    Atom  No    Charge         Core      Valence    Rydberg      Total
 -----------------------------------------------------------------------
      C    1   -0.10592      0.99960     2.09732    0.00901     3.10592
      O    2   -0.27726      0.99986     3.26858    0.00882     4.27726
      C    3    0.41091      0.99965     1.56356    0.02588     2.58909
      O    4   -0.30009      0.99987     3.29495    0.00527     4.30009
      C    5   -0.05535      0.99956     2.04225    0.01353     3.05535
      C    6   -0.20553      0.99960     2.19709    0.00884     3.20553
      C    7    0.05943      0.99952     1.92658    0.01448     2.94057
      C    8   -0.10394      0.99962     2.09207    0.01225     3.10394
      N    9   -0.33787      0.99975     2.82676    0.01137     3.83787
      O   10   -0.28995      0.99986     3.27964    0.01045     4.28995
      C   11    0.45650      0.99972     1.51726    0.02652     2.54350
      O   12   -0.33824      0.99987     3.33262    0.00576     4.33824
      N   13   -0.40374      0.99971     2.89578    0.00825     3.90374
      H   14    0.09393      0.00000     0.40456    0.00151     0.40607
      H   15    0.09108      0.00000     0.40793    0.00099     0.40892
      H   16    0.09233      0.00000     0.40664    0.00103     0.40767
      H   17    0.10315      0.00000     0.39511    0.00174     0.39685
      H   18    0.11081      0.00000     0.38773    0.00146     0.38919
      H   19    0.10785      0.00000     0.39077    0.00138     0.39215
      H   20    0.09845      0.00000     0.39919    0.00236     0.40155
      H   21    0.10613      0.00000     0.39302    0.00084     0.39387
      H   22    0.09300      0.00000     0.40570    0.00130     0.40700
      H   23    0.19335      0.00000     0.30330    0.00334     0.30665
      H   24    0.20227      0.00000     0.28542    0.01230     0.29773
      H   25    0.19870      0.00000     0.29741    0.00389     0.30130
 =======================================================================
   * Total *   -0.00000     12.99619    36.81124    0.19257    50.00000

 Normal termination of Gaussian 16 at Wed Dec  9 23:47:58 2020.
