 Gaussian 16, Revision A.03,

 -----------------------------------------------------------
 # opt freq B3LYP/6-31G(d) empiricaldispersion=gd3bj scf=xqc
 -----------------------------------------------------------

 ------------------------------
 CID_79511732_JID_6967_neutraal
 ------------------------------
 Symbolic Z-matrix:
 Charge =  0 Multiplicity = 1

 SCF Done:  E(RB3LYP) =  -1049.87472209     A.U. after   15 cycles
 SCF Done:  E(RB3LYP) =  -1049.88123813     A.U. after   12 cycles
 SCF Done:  E(RB3LYP) =  -1049.88238555     A.U. after   12 cycles
 SCF Done:  E(RB3LYP) =  -1049.88276188     A.U. after   13 cycles
 SCF Done:  E(RB3LYP) =  -1049.88369754     A.U. after   12 cycles
 SCF Done:  E(RB3LYP) =  -1049.88451660     A.U. after   12 cycles
 SCF Done:  E(RB3LYP) =  -1049.88523425     A.U. after   13 cycles
 SCF Done:  E(RB3LYP) =  -1049.88553066     A.U. after   12 cycles
 SCF Done:  E(RB3LYP) =  -1049.88580962     A.U. after   12 cycles
 SCF Done:  E(RB3LYP) =  -1049.88588091     A.U. after   12 cycles
 SCF Done:  E(RB3LYP) =  -1049.89008963     A.U. after   11 cycles
 SCF Done:  E(RB3LYP) =  -1049.89013501     A.U. after   11 cycles
 SCF Done:  E(RB3LYP) =  -1049.89014660     A.U. after   10 cycles
 SCF Done:  E(RB3LYP) =  -1049.89014820     A.U. after    8 cycles
 SCF Done:  E(RB3LYP) =  -1049.89014837     A.U. after    7 cycles
 Optimization completed.
    -- Stationary point found.
 Normal termination of Gaussian 16 at Fri Dec 11 01:02:17 2020.

 --------------------------------------------------------------------
 #N Geom=AllCheck Guess=TCheck SCRF=Check GenChk RB3LYP/6-31G(d) Freq
 --------------------------------------------------------------------

 Structure from the checkpoint file:  "JID_6967.chk"
 ------------------------------
 CID_79511732_JID_6967_neutraal
 ------------------------------
 Charge =  0 Multiplicity = 1

 SCF Done:  E(RB3LYP) =  -1049.89014837     A.U. after    1 cycles

  Exact polarizability: 257.959   6.184 146.094  -2.422  11.393  96.219
 Approx polarizability: 341.777  10.740 265.595  -7.156  35.496 151.319

                      1                      2                      3
                      A                      A                      A
 Frequencies --     38.5550                45.1683                79.8370
 Red. masses --      4.1542                 3.8461                 3.3548
 Frc consts  --      0.0036                 0.0046                 0.0126
 IR Inten    --      1.6020                 1.3989                 1.2608

                      4                      5                      6
                      A                      A                      A
 Frequencies --     83.5911               118.4064               147.1503
 Red. masses --      2.7156                 3.5123                 4.7097
 Frc consts  --      0.0112                 0.0290                 0.0601
 IR Inten    --      0.2556                 7.1726                 2.0642

                      7                      8                      9
                      A                      A                      A
 Frequencies --    154.6030               199.4391               208.8705
 Red. masses --      2.4259                 3.6434                 2.2241
 Frc consts  --      0.0342                 0.0854                 0.0572
 IR Inten    --      2.3148                 0.5587                 1.8803

                     10                     11                     12
                      A                      A                      A
 Frequencies --    238.6490               254.6832               271.0932
 Red. masses --      2.0460                 1.6523                 1.5273
 Frc consts  --      0.0687                 0.0631                 0.0661
 IR Inten    --      4.9060                 2.1378                10.2442

                     13                     14                     15
                      A                      A                      A
 Frequencies --    276.1275               282.3375               308.6022
 Red. masses --      2.8133                 1.7714                 2.1458
 Frc consts  --      0.1264                 0.0832                 0.1204
 IR Inten    --      1.7761                14.6240                 1.9017

                     16                     17                     18
                      A                      A                      A
 Frequencies --    312.9137               355.1123               437.1814
 Red. masses --      2.5610                 5.1822                 5.4834
 Frc consts  --      0.1477                 0.3850                 0.6175
 IR Inten    --      8.6371                 1.1814                 1.5899

                     19                     20                     21
                      A                      A                      A
 Frequencies --    447.9238               448.2955               510.4770
 Red. masses --      3.8536                 4.6459                 6.3642
 Frc consts  --      0.4555                 0.5501                 0.9771
 IR Inten    --      1.5824                 0.8969                 4.4064

                     22                     23                     24
                      A                      A                      A
 Frequencies --    559.3364               595.5292               609.9443
 Red. masses --      4.1277                 4.6304                 3.7469
 Frc consts  --      0.7609                 0.9676                 0.8213
 IR Inten    --      1.1274                 2.1160                16.6353

                     25                     26                     27
                      A                      A                      A
 Frequencies --    616.6208               656.3933               702.9565
 Red. masses --      4.0435                 6.2223                 3.0931
 Frc consts  --      0.9058                 1.5795                 0.9005
 IR Inten    --      7.2747                 0.4849                 5.8840

                     28                     29                     30
                      A                      A                      A
 Frequencies --    715.5533               740.4698               788.0429
 Red. masses --      6.8841                 5.0527                 1.7950
 Frc consts  --      2.0767                 1.6323                 0.6568
 IR Inten    --      3.9321                 0.1599                10.6187

                     31                     32                     33
                      A                      A                      A
 Frequencies --    818.8858               819.3638               838.2549
 Red. masses --      1.8011                 2.2688                 1.4809
 Frc consts  --      0.7116                 0.8974                 0.6131
 IR Inten    --     30.7833                38.9806                52.5086

                     34                     35                     36
                      A                      A                      A
 Frequencies --    864.9486               873.1613               921.2851
 Red. masses --      1.4544                 1.8636                 4.2711
 Frc consts  --      0.6411                 0.8371                 2.1359
 IR Inten    --     26.4650                31.7381                 1.2402

                     37                     38                     39
                      A                      A                      A
 Frequencies --    940.8665               949.8424               984.0645
 Red. masses --      1.2980                 2.1953                 1.7085
 Frc consts  --      0.6770                 1.1669                 0.9748
 IR Inten    --      0.2417                 0.7700                 7.2944

                     40                     41                     42
                      A                      A                      A
 Frequencies --   1046.2448              1061.1014              1071.5555
 Red. masses --      2.2508                 2.2388                 1.7639
 Frc consts  --      1.4516                 1.4852                 1.1933
 IR Inten    --      4.7999                 3.7250                 0.8441

                     43                     44                     45
                      A                      A                      A
 Frequencies --   1091.3401              1099.9147              1142.1152
 Red. masses --      1.7640                 6.2247                 2.2806
 Frc consts  --      1.2378                 4.4369                 1.7527
 IR Inten    --     33.2986                83.3611                17.6938

                     46                     47                     48
                      A                      A                      A
 Frequencies --   1163.9517              1186.3060              1189.0834
 Red. masses --      1.3580                 1.2701                 2.4965
 Frc consts  --      1.0840                 1.0532                 2.0797
 IR Inten    --      2.8805                 0.7337                19.8933

                     49                     50                     51
                      A                      A                      A
 Frequencies --   1218.5566              1242.4564              1252.0066
 Red. masses --      1.4165                 1.7492                 1.9341
 Frc consts  --      1.2393                 1.5910                 1.7863
 IR Inten    --     13.9570                15.7387                84.7036

                     52                     53                     54
                      A                      A                      A
 Frequencies --   1289.9884              1300.5310              1310.0415
 Red. masses --      2.1516                 1.2974                 2.2436
 Frc consts  --      2.1095                 1.2929                 2.2686
 IR Inten    --     43.2718                 8.0592               120.6678

                     55                     56                     57
                      A                      A                      A
 Frequencies --   1319.1602              1351.3181              1374.7522
 Red. masses --      1.8172                 1.2398                 3.1114
 Frc consts  --      1.8631                 1.3339                 3.4646
 IR Inten    --     54.8900                 9.2145                51.5587

                     58                     59                     60
                      A                      A                      A
 Frequencies --   1381.4250              1399.6965              1437.4044
 Red. masses --      1.6911                 1.5797                 1.3971
 Frc consts  --      1.9014                 1.8234                 1.7008
 IR Inten    --      7.9082                 8.9810                10.8296

                     61                     62                     63
                      A                      A                      A
 Frequencies --   1442.3223              1465.2184              1491.6116
 Red. masses --      1.2410                 3.2723                 1.6447
 Frc consts  --      1.5211                 4.1391                 2.1560
 IR Inten    --      1.8958                 4.2745                84.0628

                     64                     65                     66
                      A                      A                      A
 Frequencies --   1517.5673              1521.1868              1522.2458
 Red. masses --      1.9189                 1.0486                 1.0543
 Frc consts  --      2.6037                 1.4296                 1.4393
 IR Inten    --     50.8896                 5.1391                 1.0632

                     67                     68                     69
                      A                      A                      A
 Frequencies --   1528.7269              1536.6593              1537.9017
 Red. masses --      1.0498                 1.0807                 1.0789
 Frc consts  --      1.4455                 1.5035                 1.5034
 IR Inten    --      3.4482                 9.1547                20.0059

                     70                     71                     72
                      A                      A                      A
 Frequencies --   1542.9229              1590.7514              1616.7123
 Red. masses --      1.0725                 9.6318                 5.5359
 Frc consts  --      1.5043                14.3603                 8.5252
 IR Inten    --      2.2733                32.9802                69.7516

                     73                     74                     75
                      A                      A                      A
 Frequencies --   1670.5785              1695.2310              2991.6073
 Red. masses --      6.8641                 1.0907                 1.0723
 Frc consts  --     11.2867                 1.8468                 5.6542
 IR Inten    --    118.2522                34.6629                89.1715

                     76                     77                     78
                      A                      A                      A
 Frequencies --   3023.5540              3045.5735              3056.0555
 Red. masses --      1.0349                 1.0366                 1.0673
 Frc consts  --      5.5740                 5.6651                 5.8728
 IR Inten    --     73.6246                36.9391                 3.6555

                     79                     80                     81
                      A                      A                      A
 Frequencies --   3064.2263              3081.3678              3089.2227
 Red. masses --      1.0775                 1.1066                 1.1020
 Frc consts  --      5.9611                 6.1903                 6.1961
 IR Inten    --     29.6581                45.3552                 0.6928

                     82                     83                     84
                      A                      A                      A
 Frequencies --   3092.1819              3113.5623              3117.6225
 Red. masses --      1.0909                 1.1029                 1.1015
 Frc consts  --      6.1455                 6.2992                 6.3081
 IR Inten    --     27.4722                52.4157                32.3896

                     85                     86                     87
                      A                      A                      A
 Frequencies --   3156.4402              3210.5475              3219.4855
 Red. masses --      1.0995                 1.0891                 1.0913
 Frc consts  --      6.4542                 6.6140                 6.6643
 IR Inten    --     30.9676                 6.2881                 3.9412

                     88                     89                     90
                      A                      A                      A
 Frequencies --   3234.3432              3493.9335              3580.6834
 Red. masses --      1.0921                 1.0496                 1.0937
 Frc consts  --      6.7308                 7.5489                 8.2619
 IR Inten    --     14.6387                 0.3086                 0.6065

 - Thermochemistry -
 -------------------
 Temperature   298.150 Kelvin.  Pressure   1.00000 Atm.
 Atom     1 has atomic number  6 and mass  12.00000

 Molecular mass:   236.09834 amu.
 Principal axes and moments of inertia in atomic units:
                           1         2         3
     Eigenvalues --  1269.045388468.700389182.49239
           X            1.00000   0.00099   0.00290
           Y           -0.00093   0.99979  -0.02070
           Z           -0.00292   0.02070   0.99978
 This molecule is an asymmetric top.
 Rotational symmetry number  1.
 Warning -- assumption of classical behavior for rotation
           may cause significant error
 Rotational temperatures (Kelvin)      0.06825     0.01023     0.00943
 Rotational constants (GHZ):           1.42213     0.21311     0.19654
 Zero-point vibrational energy     702169.2 (Joules/Mol)
                                  167.82248 (Kcal/Mol)
 Warning -- explicit consideration of  25 degrees of freedom as
           vibrations may cause significant error
 Vibrational temperatures:     55.47    64.99   114.87   120.27   170.36
          (Kelvin)            211.72   222.44   286.95   300.52   343.36
                              366.43   390.04   397.29   406.22   444.01
                              450.21   510.93   629.01   644.46   645.00
                              734.46   804.76   856.83   877.57   887.18
                              944.40  1011.40  1029.52  1065.37  1133.82
                             1178.19  1178.88  1206.06  1244.47  1256.28
                             1325.52  1353.70  1366.61  1415.85  1505.31
                             1526.69  1541.73  1570.20  1582.53  1643.25
                             1674.67  1706.83  1710.83  1753.23  1787.62
                             1801.36  1856.01  1871.17  1884.86  1897.98
                             1944.25  1977.96  1987.56  2013.85  2068.10
                             2075.18  2108.12  2146.10  2183.44  2188.65
                             2190.17  2199.50  2210.91  2212.70  2219.92
                             2288.74  2326.09  2403.59  2439.06  4304.26
                             4350.22  4381.90  4396.98  4408.74  4433.40
                             4444.70  4448.96  4479.72  4485.56  4541.41
                             4619.26  4632.12  4653.50  5026.99  5151.80

 Zero-point correction=                           0.267442 (Hartree/Particle)
 Thermal correction to Energy=                    0.283232
 Thermal correction to Enthalpy=                  0.284176
 Thermal correction to Gibbs Free Energy=         0.224012
 Sum of electronic and zero-point Energies=          -1049.622706
 Sum of electronic and thermal Energies=             -1049.606917
 Sum of electronic and thermal Enthalpies=           -1049.605972
 Sum of electronic and thermal Free Energies=        -1049.666137

                     E (Thermal)             CV                S
                      KCal/Mol        Cal/Mol-Kelvin    Cal/Mol-Kelvin
 Total                  177.731             59.959            126.627
 Electronic               0.000              0.000              0.000
 Translational            0.889              2.981             42.279
 Rotational               0.889              2.981             32.956
 Vibrational            175.953             53.997             51.392
 Vibration     1          0.594              1.981              5.332
 Vibration     2          0.595              1.979              5.018
 Vibration     3          0.600              1.963              3.895
 Vibration     4          0.600              1.960              3.805
 Vibration     5          0.609              1.934              3.126
 Vibration     6          0.617              1.906              2.709
 Vibration     7          0.620              1.898              2.615
 Vibration     8          0.638              1.841              2.138
 Vibration     9          0.642              1.827              2.054
 Vibration    10          0.657              1.781              1.813
 Vibration    11          0.665              1.755              1.698
 Vibration    12          0.675              1.726              1.589
 Vibration    13          0.678              1.718              1.558
 Vibration    14          0.681              1.706              1.519
 Vibration    15          0.698              1.657              1.370
 Vibration    16          0.701              1.649              1.347
 Vibration    17          0.731              1.565              1.143
 Vibration    18          0.797              1.389              0.836
 Vibration    19          0.807              1.365              0.802
 Vibration    20          0.807              1.365              0.801
 Vibration    21          0.866              1.227              0.632
 Vibration    22          0.915              1.119              0.525
 Vibration    23          0.953              1.041              0.457
 Vibration    24          0.969              1.011              0.433
 Vibration    25          0.976              0.997              0.422

 Optimization completed.
    -- Stationary point found.
 Normal termination of Gaussian 16 at Fri Dec 11 01:12:27 2020.

 ----------------------------------------------------------------------
 # B3LYP/6-311++G(d,p) empiricaldispersion=gd3bj scf=xqc pop=npa geom=c
 heck
 ----------------------------------------------------------------------

 --------------------------------------
 CID_79511732_JID_6967_Energie_neutraal
 --------------------------------------
 Structure from the checkpoint file:  "JID_6967.chk"
 Charge =  0 Multiplicity = 1

 SCF Done:  E(RB3LYP) =  -1050.09733108     A.U. after   16 cycles
 Normal termination of Gaussian 16 at Fri Dec 11 01:18:06 2020.

 ----------------------------------------------------------------------
 # B3LYP/6-311++G(d,p) empiricaldispersion=gd3bj scf=xqc pop=npa geom=c
 heck
 ----------------------------------------------------------------------

 ------------------------------------
 CID_79511732_JID_6967_Energie_kation
 ------------------------------------
 Structure from the checkpoint file:  "JID_6967.chk"
 Charge =  1 Multiplicity = 2

 SCF Done:  E(UB3LYP) =  -1049.82375235     A.U. after   26 cycles
 Normal termination of Gaussian 16 at Fri Dec 11 01:31:08 2020.
 Gaussian 16:  ES64L-G16RevA.03 25-Dec-2016

 ----------------------------------------------------------------------
 # B3LYP/6-311++G(d,p) empiricaldispersion=gd3bj scf=xqc pop=npa geom=c
 heck
 ----------------------------------------------------------------------

 -----------------------------------
 CID_79511732_JID_6967_Energie_anion
 -----------------------------------
 Structure from the checkpoint file:  "JID_6967.chk"
 Charge = -1 Multiplicity = 2

                         Standard orientation:
 ---------------------------------------------------------------------
 Center     Atomic      Atomic             Coordinates (Angstroms)
 Number     Number       Type             X           Y           Z
 ---------------------------------------------------------------------
      1          6           0       -4.883510    1.182929   -0.987492
      2          6           0       -3.390129    0.845278   -0.994367
      3          6           0       -2.813874    0.533052    0.406703
      4          6           0       -3.521507   -0.642401    1.102629
      5          7           0       -3.457923   -1.849428    0.276354
      6          6           0       -1.324407    0.339036    0.320259
      7          7           0       -0.484028    1.297615    0.546243
      8          6           0        0.826946    0.887974    0.343604
      9          6           0        0.979382   -0.459693   -0.065842
     10         16           0       -0.599395   -1.219952   -0.182743
     11          6           0        2.234318   -1.010668   -0.301711
     12          6           0        3.359288   -0.197766   -0.131029
     13          6           0        3.224376    1.144412    0.274542
     14          6           0        1.963270    1.682767    0.511466
     15          8           0        4.559616   -0.801850   -0.384571
     16          6           0        5.739207   -0.032432   -0.233703
     17          1           0       -5.498992    0.332330   -0.671410
     18          1           0       -5.218974    1.475174   -1.988339
     19          1           0       -5.098120    2.015376   -0.306782
     20          1           0       -3.195000   -0.004162   -1.660163
     21          1           0       -2.824195    1.689471   -1.403984
     22          1           0       -2.950889    1.423814    1.031988
     23          1           0       -3.003218   -0.853864    2.043884
     24          1           0       -4.546575   -0.334857    1.365337
     25          1           0       -3.679639   -2.675277    0.825744
     26          1           0       -4.134485   -1.803919   -0.481869
     27          1           0        2.370993   -2.040268   -0.613953
     28          1           0        4.099419    1.768914    0.406003
     29          1           0        1.849906    2.715310    0.825888
     30          1           0        5.749832    0.829476   -0.914126
     31          1           0        5.860893    0.323756    0.797963
     32          1           0        6.565952   -0.699496   -0.484280
 ---------------------------------------------------------------------

 SCF Done:  E(UB3LYP) =  -1050.08708931     A.U. after   33 cycles
 SCF Done:  E(UB3LYP) =  -1050.08708931     a.u. after    1 cycles

 The electronic state is 2-A.
 Alpha  occ. eigenvalues --  -88.77381 -19.06603 -14.21327 -14.20219 -10.14553
 Alpha  occ. eigenvalues --  -10.13887 -10.13623 -10.11123 -10.10647 -10.10242
 Alpha  occ. eigenvalues --  -10.09225 -10.08588 -10.08488 -10.08442 -10.07845
 Alpha  occ. eigenvalues --  -10.06871  -7.85937  -5.82239  -5.81881  -5.81486
 Alpha  occ. eigenvalues --   -0.98208  -0.86606  -0.79707  -0.75959  -0.70985
 Alpha  occ. eigenvalues --   -0.69849  -0.66625  -0.64483  -0.61810  -0.60386
 Alpha  occ. eigenvalues --   -0.55441  -0.52531  -0.50214  -0.48914  -0.45577
 Alpha  occ. eigenvalues --   -0.43110  -0.41573  -0.41062  -0.39993  -0.38403
 Alpha  occ. eigenvalues --   -0.36183  -0.35185  -0.35044  -0.34584  -0.33841
 Alpha  occ. eigenvalues --   -0.32597  -0.32397  -0.31087  -0.30638  -0.29188
 Alpha  occ. eigenvalues --   -0.27821  -0.27366  -0.26504  -0.25680  -0.24435
 Alpha  occ. eigenvalues --   -0.24040  -0.23793  -0.21281  -0.20446  -0.17944
 Alpha  occ. eigenvalues --   -0.15331  -0.14308  -0.12289   0.03844
 Alpha virt. eigenvalues --    0.04810   0.05971   0.07032   0.07333   0.07680
 Alpha virt. eigenvalues --    0.07953   0.08148   0.09031   0.09302   0.09775
 Alpha virt. eigenvalues --    0.10452   0.10633   0.10950   0.11321   0.12075

  Beta  occ. eigenvalues --  -88.77377 -19.06594 -14.21311 -14.20171 -10.14534
  Beta  occ. eigenvalues --  -10.13825 -10.13583 -10.11128 -10.10646 -10.10212
  Beta  occ. eigenvalues --  -10.09228 -10.08545 -10.08469 -10.08436 -10.07837
  Beta  occ. eigenvalues --  -10.06825  -7.85932  -5.82236  -5.81879  -5.81476
  Beta  occ. eigenvalues --   -0.98184  -0.86551  -0.79629  -0.75916  -0.70928
  Beta  occ. eigenvalues --   -0.69814  -0.66575  -0.64420  -0.61755  -0.60323
  Beta  occ. eigenvalues --   -0.55347  -0.52452  -0.50174  -0.48862  -0.45535
  Beta  occ. eigenvalues --   -0.43070  -0.41535  -0.41008  -0.39958  -0.38358
  Beta  occ. eigenvalues --   -0.36119  -0.35125  -0.34998  -0.34544  -0.33758
  Beta  occ. eigenvalues --   -0.32557  -0.32335  -0.31045  -0.30588  -0.29143
  Beta  occ. eigenvalues --   -0.27758  -0.27291  -0.26466  -0.25641  -0.24392
  Beta  occ. eigenvalues --   -0.24008  -0.23769  -0.21161  -0.20366  -0.17918
  Beta  occ. eigenvalues --   -0.15273  -0.14212  -0.12130
  Beta virt. eigenvalues --    0.05816   0.06157   0.06506   0.07561   0.07672
  Beta virt. eigenvalues --    0.07940   0.08240   0.08361   0.09516   0.09610
  Beta virt. eigenvalues --    0.10015   0.10636   0.10952   0.11044   0.11505

 Mulliken charges and spin densities:
               1          2
     1  C    1.115189  -1.695087
     2  C   -1.230351   0.910760
     3  C   -0.254319   0.330682
     4  C    1.009770  -1.666141
     5  N   -0.538206   0.155490
     6  C   -0.282245   0.206735
     7  N    0.194581   0.013495
     8  C   -0.381401  -0.717079
     9  C    2.221414   0.039566
    10  S   -0.736944   0.009352
    11  C   -0.731600   0.497320
    12  C   -0.365247   0.149480
    13  C    0.453646  -0.396757
    14  C   -0.664473   0.030293
    15  O   -0.200656   0.044407
    16  C    0.701001  -1.013934
    17  H   -0.415551   0.575997
    18  H   -0.196757   0.339312
    19  H   -0.110706   0.245025
    20  H    0.064553   0.095536
    21  H    0.097084   0.071091
    22  H    0.268118  -0.043612
    23  H    0.012868   0.164639
    24  H   -0.341837   0.500486
    25  H   -0.123176   0.363386
    26  H    0.000360   0.222897
    27  H    0.144651   0.038693
    28  H   -0.036695   0.214132
    29  H    0.047991   0.119788
    30  H   -0.213222   0.366723
    31  H   -0.111056   0.257294
    32  H   -0.396784   0.570028
 Sum of Mulliken charges =  -1.00000   1.00000

 Dipole moment (field-independent basis, Debye):
    X=              2.2360    Y=              0.9279    Z=              0.3894  Tot=              2.4520
 Quadrupole moment (field-independent basis, Debye-Ang):
   XX=           -243.9653   YY=           -136.0329   ZZ=           -129.6432
   XY=             -6.8120   XZ=              1.3343   YZ=              2.0184

 Summary of Natural Population Analysis:

                                       Natural Population
                Natural  -----------------------------------------------
    Atom  No    Charge         Core      Valence    Rydberg      Total
 -----------------------------------------------------------------------
      C    1   -0.28773      0.99967     2.28292    0.00514     3.28773
      C    2   -0.18779      0.99962     2.17937    0.00880     3.18779
      C    3   -0.13950      0.99952     2.12629    0.01369     3.13950
      C    4   -0.08746      0.99962     2.07505    0.01279     3.08746
      N    5   -0.42667      0.99977     2.91544    0.01147     3.92667
      C    6    0.07943      0.99956     1.90225    0.01877     2.92057
      N    7   -0.24353      0.99963     2.73311    0.01079     3.74353
      C    8    0.04273      0.99942     1.94538    0.01248     2.95727
      C    9   -0.09964      0.99941     2.09035    0.00988     3.09964
      S   10    0.19096      4.99944     2.79123    0.01838     7.80904
      C   11   -0.12767      0.99947     2.11830    0.00991     3.12767
      C   12    0.16270      0.99940     1.82390    0.01401     2.83730
      C   13   -0.14973      0.99954     2.14152    0.00867     3.14973
      C   14   -0.07922      0.99953     2.07122    0.00847     3.07922
      O   15   -0.27488      0.99986     3.26532    0.00970     4.27488
      C   16   -0.10101      0.99960     2.09210    0.00931     3.10101
      H   17    0.09962      0.00000     0.39854    0.00183     0.40038
      H   18    0.10069      0.00000     0.39844    0.00087     0.39931
      H   19    0.09596      0.00000     0.40297    0.00108     0.40404
      H   20    0.09919      0.00000     0.39946    0.00135     0.40081
      H   21    0.10094      0.00000     0.39795    0.00111     0.39906
      H   22    0.11047      0.00000     0.38732    0.00221     0.38953
      H   23    0.09496      0.00000     0.40390    0.00115     0.40504
      H   24    0.08854      0.00000     0.40954    0.00192     0.41146
      H   25    0.18115      0.00000     0.31659    0.00226     0.31885
      H   26    0.17849      0.00000     0.31899    0.00251     0.32151
      H   27    0.10711      0.00000     0.39137    0.00152     0.39289
      H   28    0.10537      0.00000     0.39349    0.00115     0.39463
      H   29    0.10337      0.00000     0.39512    0.00150     0.39663
      H   30    0.08539      0.00000     0.41279    0.00182     0.41461
      H   31    0.08341      0.00000     0.41509    0.00150     0.41659
      H   32    0.09436      0.00000     0.40439    0.00126     0.40564
 =======================================================================
   * Total *    0.00000     19.99303    42.79969    0.20729    63.00000

 Normal termination of Gaussian 16 at Fri Dec 11 01:47:59 2020.
