 Gaussian 16, Revision A.03,

 -----------------------------------------------------------
 # opt freq B3LYP/6-31G(d) empiricaldispersion=gd3bj scf=xqc
 -----------------------------------------------------------

 ------------------------------
 CID_61885648_JID_4515_neutraal
 ------------------------------
 Symbolic Z-matrix:
 Charge =  0 Multiplicity = 1

 SCF Done:  E(RB3LYP) =  -654.304657594     A.U. after   14 cycles
 SCF Done:  E(RB3LYP) =  -654.308286425     A.U. after   12 cycles
 SCF Done:  E(RB3LYP) =  -654.308594102     A.U. after   12 cycles
 SCF Done:  E(RB3LYP) =  -654.308879704     A.U. after   12 cycles
 SCF Done:  E(RB3LYP) =  -654.309084953     A.U. after   11 cycles
 SCF Done:  E(RB3LYP) =  -654.309115231     A.U. after   10 cycles
 SCF Done:  E(RB3LYP) =  -654.309155972     A.U. after   10 cycles
 SCF Done:  E(RB3LYP) =  -654.309184925     A.U. after   10 cycles
 SCF Done:  E(RB3LYP) =  -654.309216360     A.U. after   11 cycles
 SCF Done:  E(RB3LYP) =  -654.309252426     A.U. after   11 cycles
 SCF Done:  E(RB3LYP) =  -654.312730929     A.U. after   10 cycles
 SCF Done:  E(RB3LYP) =  -654.312725332     A.U. after   10 cycles
 SCF Done:  E(RB3LYP) =  -654.312731856     A.U. after   10 cycles
 SCF Done:  E(RB3LYP) =  -654.312732257     A.U. after    7 cycles
 SCF Done:  E(RB3LYP) =  -654.312732764     A.U. after    8 cycles
 SCF Done:  E(RB3LYP) =  -654.312733075     A.U. after    7 cycles
 Optimization completed.
    -- Stationary point found.
 Normal termination of Gaussian 16 at Thu Dec 10 10:16:14 2020.

 --------------------------------------------------------------------
 #N Geom=AllCheck Guess=TCheck SCRF=Check GenChk RB3LYP/6-31G(d) Freq
 --------------------------------------------------------------------

 Structure from the checkpoint file:  "JID_4515.chk"
 ------------------------------
 CID_61885648_JID_4515_neutraal
 ------------------------------
 Charge =  0 Multiplicity = 1

 SCF Done:  E(RB3LYP) =  -654.312733075     A.U. after    1 cycles

  Exact polarizability: 151.509   5.928 115.891  -2.766  -3.496 110.646
 Approx polarizability: 182.457  11.939 170.380  -5.049 -12.079 165.818

                      1                      2                      3
                      A                      A                      A
 Frequencies --     23.8952                36.9951                44.0266
 Red. masses --      4.2257                 4.5753                 3.0296
 Frc consts  --      0.0014                 0.0037                 0.0035
 IR Inten    --      0.2859                 1.5089                 0.9022

                      4                      5                      6
                      A                      A                      A
 Frequencies --     64.6376                95.1370               105.7086
 Red. masses --      4.8183                 4.3744                 3.0386
 Frc consts  --      0.0119                 0.0233                 0.0200
 IR Inten    --      1.1435                 0.8254                 1.2752

                      7                      8                      9
                      A                      A                      A
 Frequencies --    128.3015               173.7975               190.3656
 Red. masses --      2.7024                 2.4716                 3.3751
 Frc consts  --      0.0262                 0.0440                 0.0721
 IR Inten    --      4.7855                 5.2706                 4.7119

                     10                     11                     12
                      A                      A                      A
 Frequencies --    199.1090               222.7365               235.8643
 Red. masses --      3.1576                 1.2677                 1.0291
 Frc consts  --      0.0738                 0.0371                 0.0337
 IR Inten    --      1.6418                 0.4482                 0.0175

                     13                     14                     15
                      A                      A                      A
 Frequencies --    281.0390               290.8795               298.9911
 Red. masses --      1.3103                 1.6796                 2.1283
 Frc consts  --      0.0610                 0.0837                 0.1121
 IR Inten    --      5.4841                22.2036                 1.0977

                     16                     17                     18
                      A                      A                      A
 Frequencies --    303.3631               316.5470               372.3467
 Red. masses --      1.0789                 2.1173                 2.7521
 Frc consts  --      0.0585                 0.1250                 0.2248
 IR Inten    --      5.4101                14.7573                10.1111

                     19                     20                     21
                      A                      A                      A
 Frequencies --    376.9180               393.5107               401.3441
 Red. masses --      1.4284                 2.2906                 2.6971
 Frc consts  --      0.1196                 0.2090                 0.2560
 IR Inten    --    123.1585                 1.9320                 7.8683

                     22                     23                     24
                      A                      A                      A
 Frequencies --    445.6391               448.5124               485.9766
 Red. masses --      1.8815                 1.9143                 2.3199
 Frc consts  --      0.2201                 0.2269                 0.3228
 IR Inten    --      5.8954                 0.7594                11.4934

                     25                     26                     27
                      A                      A                      A
 Frequencies --    505.6255               517.2712               586.7825
 Red. masses --      2.6516                 1.7397                 3.2992
 Frc consts  --      0.3994                 0.2743                 0.6693
 IR Inten    --      4.5225                 0.3995                 6.5522

                     28                     29                     30
                      A                      A                      A
 Frequencies --    628.4648               632.9738               755.1597
 Red. masses --      2.3817                 1.9945                 3.5033
 Frc consts  --      0.5542                 0.4708                 1.1771
 IR Inten    --     25.5882                21.8552                 0.9491

                     31                     32                     33
                      A                      A                      A
 Frequencies --    810.4515               866.4334               884.9633
 Red. masses --      4.2692                 2.9272                 2.0706
 Frc consts  --      1.6522                 1.2947                 0.9554
 IR Inten    --     19.0668                13.1626                 6.5695

                     34                     35                     36
                      A                      A                      A
 Frequencies --    906.2616               913.6929               935.0925
 Red. masses --      2.4315                 1.9781                 2.2083
 Frc consts  --      1.1766                 0.9730                 1.1377
 IR Inten    --     21.7439                 3.9755                 5.0266

                     37                     38                     39
                      A                      A                      A
 Frequencies --    952.8399               956.4202               970.7540
 Red. masses --      1.6250                 1.4900                 1.2107
 Frc consts  --      0.8692                 0.8030                 0.6722
 IR Inten    --      0.9595                 0.4363                 0.1073

                     40                     41                     42
                      A                      A                      A
 Frequencies --   1002.1654              1058.9383              1061.1713
 Red. masses --      2.3785                 1.7477                 1.4531
 Frc consts  --      1.4074                 1.1547                 0.9641
 IR Inten    --     21.3826                14.7097                11.8995

                     43                     44                     45
                      A                      A                      A
 Frequencies --   1072.4422              1092.5244              1110.3559
 Red. masses --      1.5040                 2.1779                 2.6912
 Frc consts  --      1.0192                 1.5316                 1.9549
 IR Inten    --      1.8946               164.6532                36.7184

                     46                     47                     48
                      A                      A                      A
 Frequencies --   1152.1135              1155.9446              1176.5726
 Red. masses --      1.7070                 2.6555                 1.6160
 Frc consts  --      1.3350                 2.0906                 1.3180
 IR Inten    --     19.6996                 5.9893                21.6815

                     49                     50                     51
                      A                      A                      A
 Frequencies --   1215.5628              1220.3127              1255.1779
 Red. masses --      1.4280                 1.3516                 2.4534
 Frc consts  --      1.2432                 1.1859                 2.2773
 IR Inten    --     55.5745                 8.6296                11.6457

                     52                     53                     54
                      A                      A                      A
 Frequencies --   1279.9247              1297.2851              1307.3700
 Red. masses --      1.5779                 2.7620                 2.5900
 Frc consts  --      1.5230                 2.7387                 2.6083
 IR Inten    --     71.9107                 2.1498                 1.8373

                     55                     56                     57
                      A                      A                      A
 Frequencies --   1321.9800              1366.2591              1394.0493
 Red. masses --      1.4136                 1.6102                 1.4472
 Frc consts  --      1.4556                 1.7710                 1.6570
 IR Inten    --    111.8636                28.9145                10.9105

                     58                     59                     60
                      A                      A                      A
 Frequencies --   1401.8187              1405.8635              1408.2891
 Red. masses --      1.3818                 1.2574                 1.2871
 Frc consts  --      1.5999                 1.4642                 1.5040
 IR Inten    --      0.8579                22.0169                 7.9533

                     61                     62                     63
                      A                      A                      A
 Frequencies --   1418.3395              1423.8697              1425.5741
 Red. masses --      1.2897                 1.3594                 1.4074
 Frc consts  --      1.5286                 1.6239                 1.6851
 IR Inten    --     10.3578                 2.6089                14.1488

                     64                     65                     66
                      A                      A                      A
 Frequencies --   1435.0764              1453.8678              1474.5893
 Red. masses --      1.3161                 1.2316                 1.1475
 Frc consts  --      1.5969                 1.5339                 1.4701
 IR Inten    --     40.8483                12.2227                 4.6990

                     67                     68                     69
                      A                      A                      A
 Frequencies --   1481.4041              1492.7570              1510.0905
 Red. masses --      1.3149                 1.3560                 1.0511
 Frc consts  --      1.7002                 1.7803                 1.4121
 IR Inten    --     22.9538                32.1597                 0.6569

                     70                     71                     72
                      A                      A                      A
 Frequencies --   1513.2816              1516.4641              1517.5469
 Red. masses --      1.1361                 1.0738                 1.0488
 Frc consts  --      1.5329                 1.4549                 1.4230
 IR Inten    --     16.2733                 1.6920                 4.8826

                     73                     74                     75
                      A                      A                      A
 Frequencies --   1523.1539              1523.7271              1529.3294
 Red. masses --      1.0688                 1.0496                 1.0975
 Frc consts  --      1.4609                 1.4358                 1.5124
 IR Inten    --      3.2823                 1.1203                 4.0142

                     76                     77                     78
                      A                      A                      A
 Frequencies --   1537.9246              1538.5089              1550.1507
 Red. masses --      1.0586                 1.0617                 1.0555
 Frc consts  --      1.4752                 1.4806                 1.4944
 IR Inten    --      4.3693                 3.3643                 6.1747

                     79                     80                     81
                      A                      A                      A
 Frequencies --   1557.0395              1785.8356              3002.0531
 Red. masses --      1.0577                 8.3268                 1.0709
 Frc consts  --      1.5108                15.6463                 5.6862
 IR Inten    --     18.1806               296.7225                54.8447

                     82                     83                     84
                      A                      A                      A
 Frequencies --   3015.1791              3030.5620              3033.3908
 Red. masses --      1.0419                 1.0568                 1.0367
 Frc consts  --      5.5806                 5.7185                 5.6202
 IR Inten    --     54.4006                28.8768                43.7480

                     85                     86                     87
                      A                      A                      A
 Frequencies --   3035.0707              3038.1671              3045.5746
 Red. masses --      1.0372                 1.0526                 1.0452
 Frc consts  --      5.6294                 5.7244                 5.7119
 IR Inten    --     37.1258                29.9571                 8.2063

                     88                     89                     90
                      A                      A                      A
 Frequencies --   3072.3652              3074.2417              3078.4603
 Red. masses --      1.0826                 1.0804                 1.0964
 Frc consts  --      6.0208                 6.0161                 6.1216
 IR Inten    --     16.4920                13.8416                40.3241

                     91                     92                     93
                      A                      A                      A
 Frequencies --   3080.8135              3095.3287              3098.8199
 Red. masses --      1.1032                 1.1015                 1.1014
 Frc consts  --      6.1695                 6.2182                 6.2314
 IR Inten    --     17.2628                 5.8116                22.2336

                     94                     95                     96
                      A                      A                      A
 Frequencies --   3102.4789              3107.1338              3107.5341
 Red. masses --      1.1016                 1.1009                 1.0934
 Frc consts  --      6.2472                 6.2620                 6.2208
 IR Inten    --     56.2077                63.0888                55.9326

                     97                     98                     99
                      A                      A                      A
 Frequencies --   3118.8553              3121.9433              3124.1125
 Red. masses --      1.1011                 1.1070                 1.1004
 Frc consts  --      6.3107                 6.3567                 6.3276
 IR Inten    --     10.6089                35.1208                63.6939

                    100                    101                    102
                      A                      A                      A
 Frequencies --   3127.9799              3590.4790              3726.5999
 Red. masses --      1.0989                 1.0763                 1.0655
 Frc consts  --      6.3350                 8.1750                 8.7182
 IR Inten    --     16.4983                18.3704                13.3349

 - Thermochemistry -
 -------------------
 Temperature   298.150 Kelvin.  Pressure   1.00000 Atm.
 Atom     1 has atomic number  6 and mass  12.00000

 Molecular mass:   202.16813 amu.
 Principal axes and moments of inertia in atomic units:
                           1         2         3
     Eigenvalues --  1298.297896566.557026636.47378
           X            0.99999   0.00256  -0.00217
           Y           -0.00205   0.97798   0.20869
           Z            0.00266  -0.20868   0.97798
 This molecule is an asymmetric top.
 Rotational symmetry number  1.
 Warning -- assumption of classical behavior for rotation
           may cause significant error
 Rotational temperatures (Kelvin)      0.06671     0.01319     0.01305
 Rotational constants (GHZ):           1.39008     0.27484     0.27194
 Zero-point vibrational energy     852642.1 (Joules/Mol)
                                  203.78635 (Kcal/Mol)
 Warning -- explicit consideration of  27 degrees of freedom as
           vibrations may cause significant error
 Vibrational temperatures:     34.38    53.23    63.34    93.00   136.88
          (Kelvin)            152.09   184.60   250.06   273.89   286.47
                              320.47   339.36   404.35   418.51   430.18
                              436.47   455.44   535.72   542.30   566.17
                              577.44   641.18   645.31   699.21   727.48
                              744.24   844.25   904.22   910.71  1086.51
                             1166.06  1246.60  1273.26  1303.91  1314.60
                             1345.39  1370.92  1376.08  1396.70  1441.89
                             1523.58  1526.79  1543.01  1571.90  1597.55
                             1657.63  1663.15  1692.83  1748.92  1755.76
                             1805.92  1841.53  1866.50  1881.01  1902.03
                             1965.74  2005.73  2016.90  2022.72  2026.21
                             2040.67  2048.63  2051.08  2064.75  2091.79
                             2121.61  2131.41  2147.74  2172.68  2177.27
                             2181.85  2183.41  2191.48  2192.30  2200.36
                             2212.73  2213.57  2230.32  2240.23  2569.42
                             4319.28  4338.17  4360.30  4364.37  4366.79
                             4371.24  4381.90  4420.45  4423.15  4429.22
                             4432.60  4453.49  4458.51  4463.78  4470.47
                             4471.05  4487.34  4491.78  4494.90  4500.47
                             5165.90  5361.75

 Zero-point correction=                           0.324754 (Hartree/Particle)
 Thermal correction to Energy=                    0.341999
 Thermal correction to Enthalpy=                  0.342943
 Thermal correction to Gibbs Free Energy=         0.279114
 Sum of electronic and zero-point Energies=           -653.987979
 Sum of electronic and thermal Energies=              -653.970734
 Sum of electronic and thermal Enthalpies=            -653.969790
 Sum of electronic and thermal Free Energies=         -654.033619

                     E (Thermal)             CV                S
                      KCal/Mol        Cal/Mol-Kelvin    Cal/Mol-Kelvin
 Total                  214.607             63.572            134.338
 Electronic               0.000              0.000              0.000
 Translational            0.889              2.981             41.816
 Rotational               0.889              2.981             32.403
 Vibrational            212.830             57.611             60.119
 Vibration     1          0.593              1.985              6.281
 Vibration     2          0.594              1.982              5.414
 Vibration     3          0.595              1.980              5.069
 Vibration     4          0.597              1.971              4.310
 Vibration     5          0.603              1.953              3.552
 Vibration     6          0.605              1.945              3.346
 Vibration     7          0.611              1.925              2.971
 Vibration     8          0.627              1.875              2.394
 Vibration     9          0.634              1.853              2.224
 Vibration    10          0.637              1.841              2.141
 Vibration    11          0.648              1.806              1.937
 Vibration    12          0.655              1.786              1.834
 Vibration    13          0.681              1.709              1.527
 Vibration    14          0.687              1.691              1.469
 Vibration    15          0.692              1.676              1.423
 Vibration    16          0.695              1.667              1.398
 Vibration    17          0.703              1.642              1.328
 Vibration    18          0.744              1.529              1.070
 Vibration    19          0.747              1.519              1.052
 Vibration    20          0.761              1.484              0.987
 Vibration    21          0.767              1.467              0.958
 Vibration    22          0.805              1.371              0.809
 Vibration    23          0.808              1.364              0.800
 Vibration    24          0.842              1.281              0.694
 Vibration    25          0.861              1.238              0.644
 Vibration    26          0.872              1.212              0.616
 Vibration    27          0.944              1.060              0.473

 Optimization completed.
    -- Stationary point found.
 Normal termination of Gaussian 16 at Thu Dec 10 10:26:05 2020.

 ----------------------------------------------------------------------
 # B3LYP/6-311++G(d,p) empiricaldispersion=gd3bj scf=xqc pop=npa geom=c
 heck
 ----------------------------------------------------------------------

 --------------------------------------
 CID_61885648_JID_4515_Energie_neutraal
 --------------------------------------
 Structure from the checkpoint file:  "JID_4515.chk"
 Charge =  0 Multiplicity = 1

 SCF Done:  E(RB3LYP) =  -654.516882463     A.U. after   13 cycles
 Normal termination of Gaussian 16 at Thu Dec 10 10:30:07 2020.

 ----------------------------------------------------------------------
 # B3LYP/6-311++G(d,p) empiricaldispersion=gd3bj scf=xqc pop=npa geom=c
 heck
 ----------------------------------------------------------------------

 ------------------------------------
 CID_61885648_JID_4515_Energie_kation
 ------------------------------------
 Structure from the checkpoint file:  "JID_4515.chk"
 Charge =  1 Multiplicity = 2

 SCF Done:  E(UB3LYP) =  -654.234532915     A.U. after   20 cycles
 Normal termination of Gaussian 16 at Thu Dec 10 10:39:39 2020.
 Gaussian 16:  ES64L-G16RevA.03 25-Dec-2016

 ----------------------------------------------------------------------
 # B3LYP/6-311++G(d,p) empiricaldispersion=gd3bj scf=xqc pop=npa geom=c
 heck
 ----------------------------------------------------------------------

 -----------------------------------
 CID_61885648_JID_4515_Energie_anion
 -----------------------------------
 Structure from the checkpoint file:  "JID_4515.chk"
 Charge = -1 Multiplicity = 2

                         Standard orientation:
 ---------------------------------------------------------------------
 Center     Atomic      Atomic             Coordinates (Angstroms)
 Number     Number       Type             X           Y           Z
 ---------------------------------------------------------------------
      1          6           0        3.744486    0.490750    1.125211
      2          6           0        3.092833   -0.376756    0.038079
      3          6           0        4.073727   -0.573488   -1.127885
      4          6           0        2.714388   -1.740733    0.635448
      5          6           0        1.827068    0.318503   -0.513241
      6          7           0        0.808332    0.576894    0.513133
      7          6           0        0.617942    1.985208    0.838728
      8          6           0       -0.426945   -0.146868    0.343269
      9          6           0       -1.269113    0.267740   -0.880955
     10          8           0       -0.854703    1.046317   -1.730240
     11          7           0       -2.516950   -0.295297   -0.988885
     12          6           0       -3.158838   -1.248933   -0.090406
     13          6           0       -3.980747   -0.553710    1.000042
     14          8           0       -4.955516    0.312131    0.446088
     15          1           0        4.646309    0.008596    1.521338
     16          1           0        3.050583    0.649822    1.956791
     17          1           0        4.037196    1.470710    0.727530
     18          1           0        4.989909   -1.071574   -0.789333
     19          1           0        3.630614   -1.189735   -1.920082
     20          1           0        4.359582    0.387970   -1.571976
     21          1           0        1.996124   -1.613659    1.452171
     22          1           0        2.264308   -2.393906   -0.123590
     23          1           0        3.597340   -2.254020    1.034666
     24          1           0        2.111456    1.262068   -0.996817
     25          1           0        1.402492   -0.301404   -1.311717
     26          1           0        0.195920    2.570702    0.008250
     27          1           0       -0.052000    2.069498    1.703437
     28          1           0        1.578373    2.423419    1.123887
     29          1           0       -0.205443   -1.218814    0.255895
     30          1           0       -1.031407   -0.035449    1.252940
     31          1           0       -3.001182   -0.044090   -1.842195
     32          1           0       -3.824818   -1.873465   -0.693825
     33          1           0       -2.409255   -1.909585    0.357439
     34          1           0       -4.524091   -1.301957    1.586028
     35          1           0       -3.310236   -0.012523    1.686836
     36          1           0       -4.468495    1.008354   -0.023938
 ---------------------------------------------------------------------

 SCF Done:  E(UB3LYP) =  -654.506638765     A.U. after   31 cycles

 The electronic state is 2-A.
 Alpha  occ. eigenvalues --  -19.03305 -18.99399 -14.24400 -14.20705 -10.17676
 Alpha  occ. eigenvalues --  -10.12458 -10.11640 -10.10775 -10.08948 -10.08577
 Alpha  occ. eigenvalues --  -10.08403 -10.06663 -10.06120 -10.05732  -0.94619
 Alpha  occ. eigenvalues --   -0.93602  -0.82885  -0.82659  -0.72265  -0.65541
 Alpha  occ. eigenvalues --   -0.63459  -0.60321  -0.59358  -0.58784  -0.55077
 Alpha  occ. eigenvalues --   -0.52627  -0.47086  -0.44023  -0.42539  -0.41158
 Alpha  occ. eigenvalues --   -0.39928  -0.38582  -0.37704  -0.36990  -0.35736
 Alpha  occ. eigenvalues --   -0.34457  -0.33842  -0.33179  -0.32035  -0.31599
 Alpha  occ. eigenvalues --   -0.30394  -0.29661  -0.29378  -0.28929  -0.27721
 Alpha  occ. eigenvalues --   -0.27059  -0.26603  -0.25741  -0.24845  -0.23407
 Alpha  occ. eigenvalues --   -0.22773  -0.22661  -0.19759  -0.17313  -0.16236
 Alpha  occ. eigenvalues --   -0.11338   0.04109
 Alpha virt. eigenvalues --    0.06101   0.06917   0.07206   0.08266   0.08448
 Alpha virt. eigenvalues --    0.08483   0.09873   0.10261   0.10437   0.10661
 Alpha virt. eigenvalues --    0.10744   0.11418   0.11473   0.11778   0.13370

  Beta  occ. eigenvalues --  -19.03279 -18.99390 -14.24388 -14.20702 -10.17670
  Beta  occ. eigenvalues --  -10.12423 -10.11602 -10.10742 -10.08941 -10.08556
  Beta  occ. eigenvalues --  -10.08400 -10.06649 -10.06102 -10.05708  -0.94597
  Beta  occ. eigenvalues --   -0.93550  -0.82854  -0.82645  -0.72252  -0.65469
  Beta  occ. eigenvalues --   -0.63407  -0.60293  -0.59327  -0.58743  -0.54996
  Beta  occ. eigenvalues --   -0.52575  -0.47037  -0.43985  -0.42470  -0.41098
  Beta  occ. eigenvalues --   -0.39891  -0.38552  -0.37672  -0.36935  -0.35693
  Beta  occ. eigenvalues --   -0.34430  -0.33814  -0.33145  -0.31994  -0.31567
  Beta  occ. eigenvalues --   -0.30354  -0.29629  -0.29349  -0.28901  -0.27695
  Beta  occ. eigenvalues --   -0.27037  -0.26568  -0.25719  -0.24810  -0.23388
  Beta  occ. eigenvalues --   -0.22753  -0.22641  -0.19704  -0.17300  -0.16201
  Beta  occ. eigenvalues --   -0.11318
  Beta virt. eigenvalues --    0.06101   0.06857   0.07658   0.07947   0.08608
  Beta virt. eigenvalues --    0.08634   0.08922   0.10171   0.10456   0.10671
  Beta virt. eigenvalues --    0.10812   0.11161   0.11444   0.11929   0.12052

 Mulliken charges and spin densities:
               1          2
     1  C   -0.035215  -0.593033
     2  C   -0.688351   1.629195
     3  C   -0.098601  -0.545544
     4  C    0.518087  -1.115433
     5  C   -0.101014  -0.893658
     6  N    0.383327   0.022543
     7  C    0.334792  -0.590520
     8  C   -0.352558  -0.290831
     9  C   -0.075035   0.170136
    10  O   -0.294926  -0.001689
    11  N   -0.364644   0.049192
    12  C    0.429797  -0.594493
    13  C    0.961615  -1.296293
    14  O   -0.306965   0.052476
    15  H   -0.026926   0.167392
    16  H    0.043038   0.112828
    17  H   -0.011830   0.145710
    18  H    0.004893   0.138743
    19  H    0.015645   0.115490
    20  H    0.006767   0.117785
    21  H   -0.069492   0.218065
    22  H   -0.177402   0.323041
    23  H   -0.059946   0.211129
    24  H    0.215426  -0.033565
    25  H    0.098218   0.080494
    26  H    0.047652   0.096927
    27  H   -0.185546   0.316816
    28  H    0.037779   0.095671
    29  H    0.081397   0.100884
    30  H    0.210059  -0.006483
    31  H    0.130849   0.197708
    32  H   -0.733184   0.944148
    33  H   -0.379260   0.522026
    34  H   -0.230661   0.400511
    35  H   -0.437366   0.589869
    36  H    0.109579   0.142763
 Sum of Mulliken charges =  -1.00000   1.00000

 Dipole moment (field-independent basis, Debye):
    X=              3.9369    Y=              2.5351    Z=             -1.0564  Tot=              4.8002
 Quadrupole moment (field-independent basis, Debye-Ang):
   XX=           -177.4590   YY=           -131.7324   ZZ=           -126.4630
   XY=             -4.3933   XZ=              1.6508   YZ=              1.8734

 Summary of Natural Population Analysis:

                                       Natural Population
                Natural  -----------------------------------------------
    Atom  No    Charge         Core      Valence    Rydberg      Total
 -----------------------------------------------------------------------
      C    1   -0.28576      0.99962     2.28015    0.00599     3.28576
      C    2   -0.05617      0.99958     2.04482    0.01177     3.05617
      C    3   -0.28363      0.99963     2.27808    0.00593     3.28363
      C    4   -0.28744      0.99962     2.28017    0.00765     3.28744
      C    5   -0.07692      0.99955     2.06539    0.01198     3.07692
      N    6   -0.28754      0.99972     2.77291    0.01491     3.78754
      C    7   -0.17642      0.99963     2.16842    0.00837     3.17642
      C    8   -0.12821      0.99956     2.11687    0.01178     3.12821
      C    9    0.34047      0.99967     1.63672    0.02313     2.65953
      O   10   -0.32450      0.99988     3.31859    0.00603     4.32450
      N   11   -0.33090      0.99968     2.81868    0.01255     3.83090
      C   12   -0.10493      0.99962     2.09348    0.01183     3.10493
      C   13   -0.01106      0.99961     2.00033    0.01113     3.01106
      O   14   -0.36756      0.99990     3.36090    0.00676     4.36756
      H   15    0.09715      0.00000     0.40197    0.00087     0.40285
      H   16    0.10540      0.00000     0.39337    0.00122     0.39460
      H   17    0.09596      0.00000     0.40312    0.00092     0.40404
      H   18    0.09864      0.00000     0.40050    0.00086     0.40136
      H   19    0.09960      0.00000     0.39952    0.00087     0.40040
      H   20    0.09757      0.00000     0.40156    0.00087     0.40243
      H   21    0.10553      0.00000     0.39293    0.00153     0.39447
      H   22    0.09862      0.00000     0.40031    0.00107     0.40138
      H   23    0.09711      0.00000     0.40202    0.00087     0.40289
      H   24    0.09462      0.00000     0.40422    0.00116     0.40538
      H   25    0.09816      0.00000     0.40042    0.00141     0.40184
      H   26    0.09188      0.00000     0.40697    0.00115     0.40812
      H   27    0.09390      0.00000     0.40508    0.00101     0.40610
      H   28    0.09372      0.00000     0.40538    0.00090     0.40628
      H   29    0.11003      0.00000     0.38810    0.00187     0.38997
      H   30    0.10625      0.00000     0.39158    0.00217     0.39375
      H   31    0.19572      0.00000     0.30157    0.00271     0.30428
      H   32    0.10264      0.00000     0.39530    0.00206     0.39736
      H   33    0.10364      0.00000     0.39362    0.00274     0.39636
      H   34    0.08932      0.00000     0.40888    0.00180     0.41068
      H   35    0.07659      0.00000     0.42144    0.00197     0.42341
      H   36    0.22849      0.00000     0.26802    0.00349     0.27151
 =======================================================================
   * Total *   -0.00000     13.99527    41.82138    0.18336    56.00000

 Normal termination of Gaussian 16 at Thu Dec 10 10:54:55 2020.
