 Gaussian 16, Revision A.03,

 -----------------------------------------------------------
 # opt freq B3LYP/6-31G(d) empiricaldispersion=gd3bj scf=xqc
 -----------------------------------------------------------

 ------------------------------
 CID_89943912_JID_8074_neutraal
 ------------------------------
 Symbolic Z-matrix:
 Charge =  0 Multiplicity = 1

 SCF Done:  E(RB3LYP) =  -1122.21970612     A.U. after   15 cycles
 SCF Done:  E(RB3LYP) =  -1122.22599469     A.U. after   12 cycles
 SCF Done:  E(RB3LYP) =  -1122.22677079     A.U. after   12 cycles
 SCF Done:  E(RB3LYP) =  -1122.22693649     A.U. after   11 cycles
 SCF Done:  E(RB3LYP) =  -1122.22708698     A.U. after   11 cycles
 SCF Done:  E(RB3LYP) =  -1122.22718010     A.U. after   12 cycles
 SCF Done:  E(RB3LYP) =  -1122.22727722     A.U. after   12 cycles
 SCF Done:  E(RB3LYP) =  -1122.22732799     A.U. after   12 cycles
 SCF Done:  E(RB3LYP) =  -1122.22740897     A.U. after   10 cycles
 SCF Done:  E(RB3LYP) =  -1122.22760126     A.U. after   12 cycles
 SCF Done:  E(RB3LYP) =  -1122.22761725     A.U. after   10 cycles
 SCF Done:  E(RB3LYP) =  -1122.22761741     A.U. after    8 cycles
 SCF Done:  E(RB3LYP) =  -1122.22761878     A.U. after   10 cycles
 SCF Done:  E(RB3LYP) =  -1122.22761851     A.U. after    8 cycles
 SCF Done:  E(RB3LYP) =  -1122.22761850     A.U. after    6 cycles
 Optimization completed.
    -- Stationary point found.
 Normal termination of Gaussian 16 at Fri Dec 11 18:45:50 2020.

 --------------------------------------------------------------------
 #N Geom=AllCheck Guess=TCheck SCRF=Check GenChk RB3LYP/6-31G(d) Freq
 --------------------------------------------------------------------

 Structure from the checkpoint file:  "JID_8074.chk"
 ------------------------------
 CID_89943912_JID_8074_neutraal
 ------------------------------
 Charge =  0 Multiplicity = 1

 SCF Done:  E(RB3LYP) =  -1122.22761850     A.U. after    1 cycles

  Exact polarizability: 257.482  -7.085 157.630 -12.692  -6.950 107.650
 Approx polarizability: 340.242  -8.479 291.100 -22.941 -15.819 168.123

                      1                      2                      3
                      A                      A                      A
 Frequencies --     23.4620                28.9542                49.3664
 Red. masses --      4.7318                 4.6153                 3.3167
 Frc consts  --      0.0015                 0.0023                 0.0048
 IR Inten    --      0.5611                 0.5154                 3.5172

                      4                      5                      6
                      A                      A                      A
 Frequencies --     68.5739                84.1739               139.6960
 Red. masses --      4.7661                 4.3944                 4.0058
 Frc consts  --      0.0132                 0.0183                 0.0461
 IR Inten    --      0.3427                 1.4881                 0.5018

                      7                      8                      9
                      A                      A                      A
 Frequencies --    163.4389               217.0554               242.8538
 Red. masses --      4.9626                 6.2283                 2.8066
 Frc consts  --      0.0781                 0.1729                 0.0975
 IR Inten    --      4.1670                 0.8126                 0.5223

                     10                     11                     12
                      A                      A                      A
 Frequencies --    289.1906               331.3330               369.4769
 Red. masses --      2.1735                 5.6490                 3.2369
 Frc consts  --      0.1071                 0.3654                 0.2603
 IR Inten    --      0.9018                 0.2987                 0.6171

                     13                     14                     15
                      A                      A                      A
 Frequencies --    394.6704               418.6320               436.5819
 Red. masses --      3.7762                 2.7653                 3.1142
 Frc consts  --      0.3466                 0.2855                 0.3497
 IR Inten    --      0.5702                 0.4373                 2.9264

                     16                     17                     18
                      A                      A                      A
 Frequencies --    487.9929               504.7821               550.5087
 Red. masses --      4.1474                 5.4478                 4.2788
 Frc consts  --      0.5819                 0.8179                 0.7640
 IR Inten    --      0.9591                 2.5692                 0.4820

                     19                     20                     21
                      A                      A                      A
 Frequencies --    584.0908               588.1121               628.0241
 Red. masses --      3.3262                 3.7662                 6.8939
 Frc consts  --      0.6686                 0.7675                 1.6020
 IR Inten    --      0.0884                 2.2157                 6.9434

                     22                     23                     24
                      A                      A                      A
 Frequencies --    655.8113               663.2448               700.6516
 Red. masses --      5.5211                 6.7963                 1.2781
 Frc consts  --      1.3990                 1.7615                 0.3697
 IR Inten    --      0.3810                 4.0195                50.8473

                     25                     26                     27
                      A                      A                      A
 Frequencies --    716.2506               737.6180               752.1976
 Red. masses --      2.6556                 2.9476                 6.7854
 Frc consts  --      0.8027                 0.9449                 2.2620
 IR Inten    --      1.6690                 3.3226                 0.7672

                     28                     29                     30
                      A                      A                      A
 Frequencies --    772.8468               805.0123               824.1023
 Red. masses --      1.7119                 3.7543                 1.3149
 Frc consts  --      0.6024                 1.4335                 0.5261
 IR Inten    --     28.2545                18.4118                 1.0901

                     31                     32                     33
                      A                      A                      A
 Frequencies --    827.7789               827.9869               845.4183
 Red. masses --      2.4095                 1.4725                 1.5844
 Frc consts  --      0.9728                 0.5948                 0.6672
 IR Inten    --     11.3727                 3.7832                 5.8709

                     34                     35                     36
                      A                      A                      A
 Frequencies --    861.6776               892.1673               897.7429
 Red. masses --      4.2467                 2.8009                 3.0150
 Frc consts  --      1.8578                 1.3135                 1.4317
 IR Inten    --     28.0417                 0.6284                 0.2602

                     37                     38                     39
                      A                      A                      A
 Frequencies --    902.9300               949.9155               977.3636
 Red. masses --      1.3121                 6.3521                 2.3236
 Frc consts  --      0.6302                 3.3770                 1.3077
 IR Inten    --      0.1790                11.1522                13.2874

                     40                     41                     42
                      A                      A                      A
 Frequencies --    983.0590              1011.1658              1018.4619
 Red. masses --      2.3166                 2.1523                 2.8039
 Frc consts  --      1.3190                 1.2966                 1.7136
 IR Inten    --     13.8633                 5.9791                 3.1950

                     43                     44                     45
                      A                      A                      A
 Frequencies --   1044.0563              1059.1004              1070.6071
 Red. masses --      3.5395                 3.4339                 2.0223
 Frc consts  --      2.2732                 2.2694                 1.3657
 IR Inten    --     23.1672                35.0266                 8.9412

                     46                     47                     48
                      A                      A                      A
 Frequencies --   1087.0702              1092.5459              1098.6352
 Red. masses --      2.9426                 2.2863                 2.6083
 Frc consts  --      2.0488                 1.6079                 1.8549
 IR Inten    --     14.3269                 4.1860                 8.6392

                     49                     50                     51
                      A                      A                      A
 Frequencies --   1118.0246              1128.0584              1164.2648
 Red. masses --      1.2790                 1.6493                 1.5301
 Frc consts  --      0.9420                 1.2366                 1.2220
 IR Inten    --      8.1156                16.2335                 7.3431

                     52                     53                     54
                      A                      A                      A
 Frequencies --   1189.2547              1208.4236              1233.3575
 Red. masses --      3.3732                 1.3371                 1.5853
 Frc consts  --      2.8109                 1.1504                 1.4208
 IR Inten    --     17.8026                 2.4593                 9.4907

                     55                     56                     57
                      A                      A                      A
 Frequencies --   1246.7539              1253.7094              1269.4105
 Red. masses --      1.8929                 1.3376                 1.4022
 Frc consts  --      1.7336                 1.2387                 1.3312
 IR Inten    --      0.0482                 1.3603                 0.7879

                     58                     59                     60
                      A                      A                      A
 Frequencies --   1291.5641              1297.4998              1321.1210
 Red. masses --      1.5341                 4.0221                 1.4583
 Frc consts  --      1.5078                 3.9895                 1.4996
 IR Inten    --      5.5777                21.5014                 2.1205

                     61                     62                     63
                      A                      A                      A
 Frequencies --   1345.8828              1355.0192              1363.2541
 Red. masses --      2.0728                 1.4744                 1.4688
 Frc consts  --      2.2122                 1.5950                 1.6083
 IR Inten    --     12.9297                 4.4965                10.7908

                     64                     65                     66
                      A                      A                      A
 Frequencies --   1367.7255              1370.1328              1373.3576
 Red. masses --      1.3907                 1.4643                 1.4243
 Frc consts  --      1.5328                 1.6195                 1.5828
 IR Inten    --      1.1539                 4.6159                19.5221

                     67                     68                     69
                      A                      A                      A
 Frequencies --   1380.2727              1396.9514              1407.0516
 Red. masses --      1.4027                 1.3542                 1.4285
 Frc consts  --      1.5746                 1.5570                 1.6663
 IR Inten    --     13.4986                20.6507                 1.4568

                     70                     71                     72
                      A                      A                      A
 Frequencies --   1416.8391              1425.2684              1463.2527
 Red. masses --      2.1271                 1.6842                 7.0806
 Frc consts  --      2.5158                 2.0157                 8.9322
 IR Inten    --     21.7243                 1.2868                23.5707

                     73                     74                     75
                      A                      A                      A
 Frequencies --   1490.4076              1508.6290              1512.0326
 Red. masses --      5.5292                 1.0983                 1.0779
 Frc consts  --      7.2364                 1.4728                 1.4519
 IR Inten    --     13.3230                 5.1038                 1.1214

                     76                     77                     78
                      A                      A                      A
 Frequencies --   1523.8516              1528.6225              1543.1130
 Red. masses --      1.0895                 1.0886                 1.0918
 Frc consts  --      1.4906                 1.4987                 1.5317
 IR Inten    --      5.4189                 5.7016                 6.9836

                     79                     80                     81
                      A                      A                      A
 Frequencies --   1567.3315              1636.4055              3045.9030
 Red. masses --      5.0423                 7.3098                 1.0756
 Frc consts  --      7.2979                11.5329                 5.8792
 IR Inten    --      7.7063                 2.7506                 5.3077

                     82                     83                     84
                      A                      A                      A
 Frequencies --   3049.2930              3057.7032              3060.3785
 Red. masses --      1.0697                 1.0605                 1.0601
 Frc consts  --      5.8602                 5.8417                 5.8499
 IR Inten    --     42.9960                42.4771                45.4061

                     85                     86                     87
                      A                      A                      A
 Frequencies --   3064.5471              3068.9228              3086.2304
 Red. masses --      1.0634                 1.0671                 1.1044
 Frc consts  --      5.8841                 5.9213                 6.1976
 IR Inten    --     73.4950                23.6741                 5.1705

                     88                     89                     90
                      A                      A                      A
 Frequencies --   3099.2796              3109.6477              3112.9236
 Red. masses --      1.1049                 1.1061                 1.1071
 Frc consts  --      6.2528                 6.3017                 6.3209
 IR Inten    --      8.5239                40.4779                51.3343

                     91                     92                     93
                      A                      A                      A
 Frequencies --   3126.9871              3129.3904              3212.3397
 Red. masses --      1.0874                 1.1002                 1.0891
 Frc consts  --      6.2644                 6.3481                 6.6214
 IR Inten    --     11.1123                41.4330                11.0277

                     94                     95                     96
                      A                      A                      A
 Frequencies --   3228.9004              3270.4618              3303.7099
 Red. masses --      1.0946                 1.0969                 1.0984
 Frc consts  --      6.7238                 6.9127                 7.0631
 IR Inten    --     10.1727                 0.9688                 0.6501

 - Thermochemistry -
 -------------------
 Temperature   298.150 Kelvin.  Pressure   1.00000 Atm.
 Atom     1 has atomic number  6 and mass  12.00000

 Molecular mass:   260.10957 amu.
 Principal axes and moments of inertia in atomic units:
                           1         2         3
     Eigenvalues --  1377.29945********************
           X            0.99997  -0.00762  -0.00017
           Y            0.00761   0.99970  -0.02332
           Z            0.00035   0.02332   0.99973
 This molecule is an asymmetric top.
 Rotational symmetry number  1.
 Warning -- assumption of classical behavior for rotation
           may cause significant error
 Rotational temperatures (Kelvin)      0.06289     0.00797     0.00759
 Rotational constants (GHZ):           1.31035     0.16605     0.15809
 Zero-point vibrational energy     744076.3 (Joules/Mol)
                                  177.83851 (Kcal/Mol)
 Warning -- explicit consideration of  20 degrees of freedom as
           vibrations may cause significant error
 Vibrational temperatures:     33.76    41.66    71.03    98.66   121.11
          (Kelvin)            200.99   235.15   312.29   349.41   416.08
                              476.71   531.59   567.84   602.32   628.14
                              702.11   726.27   792.06   840.38   846.16
                              903.59   943.57   954.26  1008.08  1030.52
                             1061.27  1082.24  1111.95  1158.23  1185.70
                             1190.99  1191.29  1216.37  1239.76  1283.63
                             1291.65  1299.11  1366.72  1406.21  1414.40
                             1454.84  1465.34  1502.16  1523.81  1540.36
                             1564.05  1571.93  1580.69  1608.59  1623.02
                             1675.12  1711.07  1738.65  1774.53  1793.80
                             1803.81  1826.40  1858.27  1866.81  1900.80
                             1936.43  1949.57  1961.42  1967.85  1971.32
                             1975.96  1985.90  2009.90  2024.43  2038.52
                             2050.64  2105.29  2144.36  2170.58  2175.48
                             2192.48  2199.35  2220.20  2255.04  2354.42
                             4382.38  4387.25  4399.35  4403.20  4409.20
                             4415.50  4440.40  4459.17  4474.09  4478.80
                             4499.04  4502.49  4621.84  4645.67  4705.47
                             4753.30

 Zero-point correction=                           0.283404 (Hartree/Particle)
 Thermal correction to Energy=                    0.297894
 Thermal correction to Enthalpy=                  0.298838
 Thermal correction to Gibbs Free Energy=         0.239346
 Sum of electronic and zero-point Energies=          -1121.944215
 Sum of electronic and thermal Energies=             -1121.929725
 Sum of electronic and thermal Enthalpies=           -1121.928780
 Sum of electronic and thermal Free Energies=        -1121.988272

                     E (Thermal)             CV                S
                      KCal/Mol        Cal/Mol-Kelvin    Cal/Mol-Kelvin
 Total                  186.931             57.789            125.211
 Electronic               0.000              0.000              0.000
 Translational            0.889              2.981             42.567
 Rotational               0.889              2.981             33.502
 Vibrational            185.154             51.827             49.142
 Vibration     1          0.593              1.985              6.317
 Vibration     2          0.593              1.984              5.900
 Vibration     3          0.595              1.978              4.843
 Vibration     4          0.598              1.969              4.194
 Vibration     5          0.601              1.960              3.791
 Vibration     6          0.615              1.914              2.808
 Vibration     7          0.623              1.887              2.510
 Vibration     8          0.646              1.815              1.984
 Vibration     9          0.659              1.775              1.782
 Vibration    10          0.686              1.694              1.479
 Vibration    11          0.714              1.613              1.254
 Vibration    12          0.742              1.535              1.082
 Vibration    13          0.762              1.482              0.982
 Vibration    14          0.781              1.430              0.897
 Vibration    15          0.797              1.390              0.837
 Vibration    16          0.844              1.277              0.689
 Vibration    17          0.860              1.239              0.646
 Vibration    18          0.906              1.139              0.543
 Vibration    19          0.941              1.066              0.478
 Vibration    20          0.945              1.057              0.471

                           ! Non-Optimized Parameters !
 Normal termination of Gaussian 16 at Fri Dec 11 19:01:50 2020.

 ----------------------------------------------------------------------
 # B3LYP/6-311++G(d,p) empiricaldispersion=gd3bj scf=xqc pop=npa geom=c
 heck
 ----------------------------------------------------------------------

 --------------------------------------
 CID_89943912_JID_8074_Energie_neutraal
 --------------------------------------
 Structure from the checkpoint file:  "JID_8074.chk"
 Charge =  0 Multiplicity = 1

 SCF Done:  E(RB3LYP) =  -1122.43722972     A.U. after   16 cycles
 Normal termination of Gaussian 16 at Fri Dec 11 19:09:41 2020.

 ----------------------------------------------------------------------
 # B3LYP/6-311++G(d,p) empiricaldispersion=gd3bj scf=xqc pop=npa geom=c
 heck
 ----------------------------------------------------------------------

 ------------------------------------
 CID_89943912_JID_8074_Energie_kation
 ------------------------------------
 Structure from the checkpoint file:  "JID_8074.chk"
 Charge =  1 Multiplicity = 2

 SCF Done:  E(UB3LYP) =  -1122.16314135     A.U. after   25 cycles
 Normal termination of Gaussian 16 at Fri Dec 11 19:27:02 2020.
 Gaussian 16:  ES64L-G16RevA.03 25-Dec-2016

 ----------------------------------------------------------------------
 # B3LYP/6-311++G(d,p) empiricaldispersion=gd3bj scf=xqc pop=npa geom=c
 heck
 ----------------------------------------------------------------------

 -----------------------------------
 CID_89943912_JID_8074_Energie_anion
 -----------------------------------
 Structure from the checkpoint file:  "JID_8074.chk"
 Charge = -1 Multiplicity = 2

                         Standard orientation:
 ---------------------------------------------------------------------
 Center     Atomic      Atomic             Coordinates (Angstroms)
 Number     Number       Type             X           Y           Z
 ---------------------------------------------------------------------
      1          6           0        2.947674   -1.154269    1.074267
      2          6           0        3.414661    0.191998    1.702706
      3          7           0        3.649536    1.220272    0.674532
      4          6           0        4.694355    0.758650   -0.251710
      5          6           0        4.285453   -0.569755   -0.961280
      6          6           0        2.890290   -0.980534   -0.454128
      7          6           0        1.933013    0.167228   -0.825539
      8          6           0        2.411715    1.452139   -0.065016
      9          7           0        0.533538   -0.152235   -0.520722
     10          6           0       -0.521139    0.702030   -0.472859
     11          6           0       -1.618556   -0.107049   -0.232532
     12          7           0       -1.172564   -1.399837   -0.152873
     13          7           0        0.118526   -1.426935   -0.334203
     14          6           0       -3.017266    0.233834   -0.071589
     15          6           0       -3.617059    1.471394   -0.111106
     16          6           0       -5.026583    1.417744    0.089166
     17          6           0       -5.482465    0.141354    0.278755
     18         16           0       -4.198297   -1.023231    0.216663
     19          1           0        3.648410   -1.962748    1.311342
     20          1           0        1.968028   -1.458051    1.451180
     21          1           0        2.665223    0.583808    2.398951
     22          1           0        4.346070    0.068540    2.265171
     23          1           0        4.873214    1.557114   -0.980383
     24          1           0        5.617461    0.632395    0.323212
     25          1           0        4.997276   -1.371687   -0.737114
     26          1           0        4.274468   -0.447808   -2.051310
     27          1           0        2.558347   -1.904722   -0.930348
     28          1           0        1.986848    0.332316   -1.908308
     29          1           0        1.645227    1.771154    0.648526
     30          1           0        2.575830    2.271918   -0.772427
     31          1           0       -0.417769    1.765819   -0.613851
     32          1           0       -3.066197    2.391011   -0.277460
     33          1           0       -5.669024    2.291234    0.091886
     34          1           0       -6.498474   -0.186043    0.452390
 ---------------------------------------------------------------------

 SCF Done:  E(UB3LYP) =  -1122.43476078     A.U. after   33 cycles
 SCF Done:  E(UB3LYP) =  -1122.43476078     a.u. after    1 cycles

 The electronic state is 2-A.
 Alpha  occ. eigenvalues --  -88.75779 -14.28649 -14.25491 -14.21960 -14.21317
 Alpha  occ. eigenvalues --  -10.11953 -10.10209 -10.10012 -10.09821 -10.09345
 Alpha  occ. eigenvalues --  -10.09072 -10.08834 -10.08324 -10.08167 -10.07278
 Alpha  occ. eigenvalues --  -10.06953 -10.06898 -10.06040  -7.84397  -5.80692
 Alpha  occ. eigenvalues --   -5.80322  -5.80002  -0.98389  -0.85109  -0.80593
 Alpha  occ. eigenvalues --   -0.76948  -0.70877  -0.69657  -0.66199  -0.65790
 Alpha  occ. eigenvalues --   -0.62386  -0.61644  -0.56227  -0.53656  -0.53306
 Alpha  occ. eigenvalues --   -0.51107  -0.48775  -0.45483  -0.44148  -0.42367
 Alpha  occ. eigenvalues --   -0.41914  -0.41535  -0.40120  -0.39348  -0.36660
 Alpha  occ. eigenvalues --   -0.35943  -0.33891  -0.31779  -0.31096  -0.30962
 Alpha  occ. eigenvalues --   -0.29929  -0.29154  -0.29128  -0.28700  -0.28437
 Alpha  occ. eigenvalues --   -0.27361  -0.27261  -0.26325  -0.24699  -0.23583
 Alpha  occ. eigenvalues --   -0.22401  -0.22015  -0.21632  -0.18936  -0.17566
 Alpha  occ. eigenvalues --   -0.16258  -0.14548  -0.12555  -0.10536   0.03971
 Alpha virt. eigenvalues --    0.05855   0.06922   0.07333   0.08057   0.08503
 Alpha virt. eigenvalues --    0.08952   0.09229   0.09681   0.10158   0.10762
 Alpha virt. eigenvalues --    0.11198   0.11574   0.12045   0.12712   0.13060

  Beta  occ. eigenvalues --  -88.75749 -14.28562 -14.25521 -14.21969 -14.21319
  Beta  occ. eigenvalues --  -10.11938 -10.10183 -10.10003 -10.09801 -10.09171
  Beta  occ. eigenvalues --  -10.09042 -10.08698 -10.08324 -10.08016 -10.07254
  Beta  occ. eigenvalues --  -10.06991 -10.06890 -10.05972  -7.84369  -5.80679
  Beta  occ. eigenvalues --   -5.80310  -5.79899  -0.98334  -0.85092  -0.80485
  Beta  occ. eigenvalues --   -0.76776  -0.70788  -0.69537  -0.66145  -0.65750
  Beta  occ. eigenvalues --   -0.62248  -0.61397  -0.56151  -0.53591  -0.53258
  Beta  occ. eigenvalues --   -0.50967  -0.48640  -0.45338  -0.44023  -0.42285
  Beta  occ. eigenvalues --   -0.41804  -0.41415  -0.40070  -0.39275  -0.36555
  Beta  occ. eigenvalues --   -0.35768  -0.33809  -0.31753  -0.31017  -0.30869
  Beta  occ. eigenvalues --   -0.29843  -0.29108  -0.29055  -0.28659  -0.28408
  Beta  occ. eigenvalues --   -0.27238  -0.26858  -0.26296  -0.24651  -0.23462
  Beta  occ. eigenvalues --   -0.22363  -0.21971  -0.21603  -0.18495  -0.17027
  Beta  occ. eigenvalues --   -0.16242  -0.14108  -0.12506  -0.09814
  Beta virt. eigenvalues --    0.06283   0.07224   0.07501   0.07911   0.08243
  Beta virt. eigenvalues --    0.08719   0.09053   0.09411   0.09913   0.10425
  Beta virt. eigenvalues --    0.11107   0.11341   0.11598   0.12320   0.12887

 Mulliken charges and spin densities:
               1          2
     1  C   -0.117034  -0.394631
     2  C   -0.185289  -0.177128
     3  N    0.073413   0.046165
     4  C    0.121327  -0.413401
     5  C    0.096484  -0.682582
     6  C   -0.696428   1.308891
     7  C   -0.016297  -0.471305
     8  C    0.184059  -0.918261
     9  N    0.420273  -0.033392
    10  C   -0.613624  -0.142307
    11  C   -0.188616  -0.113210
    12  N    0.045726   0.009273
    13  N   -0.075954   0.007345
    14  C    0.224065  -0.139262
    15  C    0.989885   0.292255
    16  C   -0.939489  -0.170739
    17  C    0.134246   0.140247
    18  S   -0.375653   0.042765
    19  H    0.044183   0.101771
    20  H    0.174728  -0.025688
    21  H    0.111368   0.037295
    22  H    0.094448   0.060141
    23  H   -0.117489   0.281562
    24  H   -0.113404   0.274121
    25  H   -0.059339   0.207116
    26  H   -0.187736   0.328302
    27  H    0.100888   0.182145
    28  H   -0.308634   0.610872
    29  H    0.322346  -0.133070
    30  H   -0.441721   0.634357
    31  H   -0.060809   0.188912
    32  H    0.057960   0.065741
    33  H    0.103655  -0.000105
    34  H    0.198463  -0.004195
 Sum of Mulliken charges =  -1.00000   1.00000

 Dipole moment (field-independent basis, Debye):
    X=             -1.2486    Y=              0.1326    Z=              3.6916  Tot=              3.8993
 Quadrupole moment (field-independent basis, Debye-Ang):
   XX=           -190.8120   YY=           -144.5422   ZZ=           -144.6801
   XY=            -10.6447   XZ=              7.2598   YZ=              4.6511

 Summary of Natural Population Analysis:

                                       Natural Population
                Natural  -----------------------------------------------
    Atom  No    Charge         Core      Valence    Rydberg      Total
 -----------------------------------------------------------------------
      C    1   -0.20790      0.99961     2.19974    0.00855     3.20790
      C    2   -0.08883      0.99962     2.07813    0.01107     3.08883
      N    3   -0.27042      0.99975     2.75809    0.01258     3.77042
      C    4   -0.08956      0.99962     2.07838    0.01157     3.08956
      C    5   -0.20244      0.99962     2.19377    0.00906     3.20244
      C    6   -0.11261      0.99958     2.10193    0.01110     3.11261
      C    7   -0.01484      0.99954     2.00093    0.01436     3.01484
      C    8   -0.09149      0.99960     2.07897    0.01293     3.09149
      N    9   -0.09167      0.99964     2.57825    0.01378     3.59167
      C   10    0.01651      0.99951     1.97429    0.00970     2.98349
      C   11    0.02465      0.99951     1.96060    0.01524     2.97535
      N   12   -0.13800      0.99973     2.62668    0.01160     3.63800
      N   13   -0.05915      0.99978     2.54358    0.01579     3.55915
      C   14   -0.08595      0.99946     2.07268    0.01381     3.08595
      C   15   -0.11814      0.99950     2.10792    0.01072     3.11814
      C   16   -0.14121      0.99954     2.13242    0.00925     3.14121
      C   17   -0.17984      0.99955     2.16938    0.01090     3.17984
      S   18    0.22268      4.99945     2.75742    0.02045     7.77732
      H   19    0.09732      0.00000     0.40167    0.00101     0.40268
      H   20    0.11009      0.00000     0.38877    0.00114     0.38991
      H   21    0.09419      0.00000     0.40491    0.00090     0.40581
      H   22    0.09371      0.00000     0.40538    0.00091     0.40629
      H   23    0.09871      0.00000     0.40001    0.00128     0.40129
      H   24    0.09369      0.00000     0.40530    0.00101     0.40631
      H   25    0.09840      0.00000     0.40049    0.00111     0.40160
      H   26    0.10283      0.00000     0.39568    0.00149     0.39717
      H   27    0.11618      0.00000     0.38198    0.00184     0.38382
      H   28    0.10974      0.00000     0.38628    0.00399     0.39026
      H   29    0.09953      0.00000     0.39919    0.00128     0.40047
      H   30    0.10309      0.00000     0.39525    0.00165     0.39691
      H   31    0.10754      0.00000     0.39151    0.00096     0.39246
      H   32    0.10243      0.00000     0.39668    0.00089     0.39757
      H   33    0.09976      0.00000     0.39931    0.00093     0.40024
      H   34    0.10101      0.00000     0.39812    0.00087     0.39899
 =======================================================================
   * Total *    0.00000     21.99263    46.76368    0.24369    69.00000

 Normal termination of Gaussian 16 at Fri Dec 11 19:50:47 2020.
