 Gaussian 16, Revision A.03,

 -----------------------------------------------------------
 # opt freq B3LYP/6-31G(d) empiricaldispersion=gd3bj scf=xqc
 -----------------------------------------------------------

 -------------------------------
 CID_145281448_JID_2116_neutraal
 -------------------------------
 Symbolic Z-matrix:
 Charge =  0 Multiplicity = 1

 SCF Done:  E(RB3LYP) =  -539.934581463     A.U. after   15 cycles
 SCF Done:  E(RB3LYP) =  -539.938179149     A.U. after   13 cycles
 SCF Done:  E(RB3LYP) =  -539.938382013     A.U. after   13 cycles
 SCF Done:  E(RB3LYP) =  -539.941587651     A.U. after   12 cycles
 SCF Done:  E(RB3LYP) =  -539.943458948     A.U. after   13 cycles
 SCF Done:  E(RB3LYP) =  -539.944255647     A.U. after   13 cycles
 SCF Done:  E(RB3LYP) =  -539.945056211     A.U. after   12 cycles
 SCF Done:  E(RB3LYP) =  -539.945934463     A.U. after   15 cycles
 SCF Done:  E(RB3LYP) =  -539.946314825     A.U. after   12 cycles
 SCF Done:  E(RB3LYP) =  -539.946547641     A.U. after   12 cycles
 SCF Done:  E(RB3LYP) =  -539.946719707     A.U. after   11 cycles
 SCF Done:  E(RB3LYP) =  -539.946733441     A.U. after   11 cycles
 SCF Done:  E(RB3LYP) =  -539.946737764     A.U. after    9 cycles
 SCF Done:  E(RB3LYP) =  -539.946739101     A.U. after   10 cycles
 SCF Done:  E(RB3LYP) =  -539.946739208     A.U. after    8 cycles
 SCF Done:  E(RB3LYP) =  -539.946739223     A.U. after    7 cycles
 Optimization completed.
    -- Stationary point found.
 Normal termination of Gaussian 16 at Wed Dec  9 16:53:12 2020.

 --------------------------------------------------------------------
 #N Geom=AllCheck Guess=TCheck SCRF=Check GenChk RB3LYP/6-31G(d) Freq
 --------------------------------------------------------------------

 Structure from the checkpoint file:  "JID_2116.chk"
 -------------------------------
 CID_145281448_JID_2116_neutraal
 -------------------------------
 Charge =  0 Multiplicity = 1

 SCF Done:  E(RB3LYP) =  -539.946739223     A.U. after    1 cycles

  Exact polarizability: 162.749  -6.340 119.455   6.726   2.322  71.088
 Approx polarizability: 236.078 -12.877 189.080  15.630   4.210 103.139

                      1                      2                      3
                      A                      A                      A
 Frequencies --     33.3249                42.5965                61.1136
 Red. masses --      4.3166                 5.8473                 2.6547
 Frc consts  --      0.0028                 0.0063                 0.0058
 IR Inten    --      0.6916                 1.0487                 0.0520

                      4                      5                      6
                      A                      A                      A
 Frequencies --     90.4561               122.9853               179.9088
 Red. masses --      3.8559                 3.1051                 3.7604
 Frc consts  --      0.0186                 0.0277                 0.0717
 IR Inten    --      0.4504                 0.2569                 0.4129

                      7                      8                      9
                      A                      A                      A
 Frequencies --    218.5736               240.1222               249.2506
 Red. masses --      1.4905                 1.7212                 1.1373
 Frc consts  --      0.0420                 0.0585                 0.0416
 IR Inten    --      0.2531                 0.2093                 0.2414

                     10                     11                     12
                      A                      A                      A
 Frequencies --    270.7820               282.3948               297.7184
 Red. masses --      2.9393                 2.8172                 3.2859
 Frc consts  --      0.1270                 0.1324                 0.1716
 IR Inten    --      0.0759                 0.0929                 0.7348

                     13                     14                     15
                      A                      A                      A
 Frequencies --    346.2696               366.0625               417.2631
 Red. masses --      2.5574                 3.1651                 3.1197
 Frc consts  --      0.1807                 0.2499                 0.3200
 IR Inten    --      0.7435                 3.1351                 4.3962

                     16                     17                     18
                      A                      A                      A
 Frequencies --    482.6812               525.2811               564.9871
 Red. masses --      2.6531                 2.7660                 2.9088
 Frc consts  --      0.3642                 0.4497                 0.5471
 IR Inten    --     13.2794                 1.9052                 2.1250

                     19                     20                     21
                      A                      A                      A
 Frequencies --    578.1144               641.0677               688.2087
 Red. masses --      2.4297                 1.5683                 3.1915
 Frc consts  --      0.4785                 0.3798                 0.8906
 IR Inten    --      8.7788                62.7143                64.0146

                     22                     23                     24
                      A                      A                      A
 Frequencies --    717.5889               732.6850               785.7516
 Red. masses --      2.0190                 1.2035                 3.6949
 Frc consts  --      0.6125                 0.3807                 1.3441
 IR Inten    --     40.8456                 8.1614                16.5142

                     25                     26                     27
                      A                      A                      A
 Frequencies --    796.8300               823.4516               929.3291
 Red. masses --      3.2500                 3.1498                 2.4891
 Frc consts  --      1.2158                 1.2584                 1.2666
 IR Inten    --     12.8027                 0.8459                 4.1692

                     28                     29                     30
                      A                      A                      A
 Frequencies --    939.8365               942.2994               946.2207
 Red. masses --      1.2522                 1.3567                 1.2641
 Frc consts  --      0.6517                 0.7098                 0.6668
 IR Inten    --     23.7147                28.6810                20.1046

                     31                     32                     33
                      A                      A                      A
 Frequencies --    966.2438               976.3878               989.8374
 Red. masses --      1.5100                 1.4943                 1.9495
 Frc consts  --      0.8306                 0.8393                 1.1254
 IR Inten    --     12.0058                 0.0114                 1.4206

                     34                     35                     36
                      A                      A                      A
 Frequencies --   1050.7933              1051.4690              1099.4035
 Red. masses --      1.3416                 1.2765                 1.4123
 Frc consts  --      0.8728                 0.8315                 1.0057
 IR Inten    --     18.9849                21.7218                 9.5726

                     37                     38                     39
                      A                      A                      A
 Frequencies --   1135.2471              1178.0133              1205.5176
 Red. masses --      2.2495                 2.9799                 1.9195
 Frc consts  --      1.7082                 2.4364                 1.6436
 IR Inten    --      1.2257               221.4346                 1.6683

                     40                     41                     42
                      A                      A                      A
 Frequencies --   1223.3170              1295.8811              1357.1686
 Red. masses --      1.8516                 2.5649                 1.3450
 Frc consts  --      1.6326                 2.5377                 1.4596
 IR Inten    --    166.5653                 4.2304                 8.9716

                     43                     44                     45
                      A                      A                      A
 Frequencies --   1361.5826              1363.9595              1384.5689
 Red. masses --      1.3042                 1.3233                 1.8538
 Frc consts  --      1.4246                 1.4505                 2.0939
 IR Inten    --      6.5061                 4.3901                80.7584

                     46                     47                     48
                      A                      A                      A
 Frequencies --   1418.9360              1428.4434              1449.0186
 Red. masses --      2.0325                 1.2744                 1.2263
 Frc consts  --      2.4110                 1.5321                 1.5170
 IR Inten    --     17.7152                 7.2178                 3.7839

                     49                     50                     51
                      A                      A                      A
 Frequencies --   1478.6470              1486.6440              1518.1209
 Red. masses --      1.2126                 1.3307                 1.0437
 Frc consts  --      1.5620                 1.7328                 1.4173
 IR Inten    --      8.5217                 1.5779                 0.1756

                     52                     53                     54
                      A                      A                      A
 Frequencies --   1522.0949              1534.2980              1540.1184
 Red. masses --      1.0496                 1.0475                 1.0569
 Frc consts  --      1.4327                 1.4528                 1.4770
 IR Inten    --      1.6937                10.4017                 7.0488

                     55                     56                     57
                      A                      A                      A
 Frequencies --   1639.8013              1691.4897              1713.6790
 Red. masses --      6.1315                 4.3942                 4.6528
 Frc consts  --      9.7140                 7.4074                 8.0505
 IR Inten    --     45.4003                10.5681                 6.0509

                     58                     59                     60
                      A                      A                      A
 Frequencies --   1806.5250              3042.6618              3046.8866
 Red. masses --      9.3580                 1.0846                 1.0347
 Frc consts  --     17.9937                 5.9162                 5.6595
 IR Inten    --    214.2922                15.3200                24.2952

                     61                     62                     63
                      A                      A                      A
 Frequencies --   3051.9752              3113.1891              3118.8919
 Red. masses --      1.0352                 1.1025                 1.1016
 Frc consts  --      5.6812                 6.2956                 6.3133
 IR Inten    --     21.2249                 0.7064                76.2604

                     64                     65                     66
                      A                      A                      A
 Frequencies --   3120.8556              3126.0421              3165.9537
 Red. masses --      1.1030                 1.1029                 1.0733
 Frc consts  --      6.3295                 6.3499                 6.3384
 IR Inten    --     29.4494                27.6698                 3.0536

                     67                     68                     69
                      A                      A                      A
 Frequencies --   3169.2334              3185.1483              3192.0007
 Red. masses --      1.0669                 1.0705                 1.0860
 Frc consts  --      6.3138                 6.3989                 6.5195
 IR Inten    --      7.3499                13.3864                 0.1829

                     70                     71                     72
                      A                      A                      A
 Frequencies --   3255.0135              3279.6962              3687.7863
 Red. masses --      1.1152                 1.1124                 1.0639
 Frc consts  --      6.9615                 7.0496                 8.5246
 IR Inten    --      9.8979                 5.7840                65.6314

 - Thermochemistry -
 -------------------
 Temperature   298.150 Kelvin.  Pressure   1.00000 Atm.
 Atom     1 has atomic number  6 and mass  12.00000

 Molecular mass:   166.09938 amu.
 Principal axes and moments of inertia in atomic units:
                           1         2         3
     Eigenvalues --  1273.114773271.665753986.60780
           X            0.99961  -0.02784  -0.00295
           Y            0.02786   0.99958   0.00843
           Z            0.00272  -0.00851   0.99996
 This molecule is an asymmetric top.
 Rotational symmetry number  1.
 Warning -- assumption of classical behavior for rotation
           may cause significant error
 Rotational temperatures (Kelvin)      0.06803     0.02647     0.02173
 Rotational constants (GHZ):           1.41758     0.55163     0.45270
 Zero-point vibrational energy     578608.0 (Joules/Mol)
                                  138.29062 (Kcal/Mol)
 Warning -- explicit consideration of  19 degrees of freedom as
           vibrations may cause significant error
 Vibrational temperatures:     47.95    61.29    87.93   130.15   176.95
          (Kelvin)            258.85   314.48   345.48   358.62   389.59
                              406.30   428.35   498.20   526.68   600.35
                              694.47   755.76   812.89   831.78   922.35
                              990.18  1032.45  1054.17  1130.52  1146.46
                             1184.76  1337.10  1352.22  1355.76  1361.40
                             1390.21  1404.80  1424.16  1511.86  1512.83
                             1581.80  1633.37  1694.90  1734.47  1760.08
                             1864.48  1952.66  1959.01  1962.43  1992.09
                             2041.53  2055.21  2084.81  2127.44  2138.95
                             2184.24  2189.96  2207.51  2215.89  2359.31
                             2433.68  2465.60  2599.19  4377.71  4383.79
                             4391.11  4479.18  4487.39  4490.22  4497.68
                             4555.10  4559.82  4582.72  4592.58  4683.24
                             4718.75  5305.90

 Zero-point correction=                           0.220380 (Hartree/Particle)
 Thermal correction to Energy=                    0.233686
 Thermal correction to Enthalpy=                  0.234630
 Thermal correction to Gibbs Free Energy=         0.179773
 Sum of electronic and zero-point Energies=           -539.726359
 Sum of electronic and thermal Energies=              -539.713053
 Sum of electronic and thermal Enthalpies=            -539.712109
 Sum of electronic and thermal Free Energies=         -539.766966

                     E (Thermal)             CV                S
                      KCal/Mol        Cal/Mol-Kelvin    Cal/Mol-Kelvin
 Total                  146.640             48.925            115.457
 Electronic               0.000              0.000              0.000
 Translational            0.889              2.981             41.231
 Rotational               0.889              2.981             31.185
 Vibrational            144.863             42.964             43.041
 Vibration     1          0.594              1.983              5.621
 Vibration     2          0.595              1.980              5.135
 Vibration     3          0.597              1.973              4.421
 Vibration     4          0.602              1.956              3.650
 Vibration     5          0.610              1.930              3.053
 Vibration     6          0.629              1.867              2.329
 Vibration     7          0.646              1.813              1.971
 Vibration     8          0.657              1.779              1.802
 Vibration     9          0.662              1.764              1.736
 Vibration    10          0.674              1.727              1.591
 Vibration    11          0.681              1.706              1.519
 Vibration    12          0.691              1.678              1.430
 Vibration    13          0.724              1.583              1.183
 Vibration    14          0.739              1.542              1.096
 Vibration    15          0.780              1.433              0.901
 Vibration    16          0.839              1.288              0.703
 Vibration    17          0.880              1.194              0.598
 Vibration    18          0.921              1.107              0.514
 Vibration    19          0.935              1.079              0.489

 Optimization completed.
    -- Stationary point found.
 Normal termination of Gaussian 16 at Wed Dec  9 16:58:34 2020.

 ----------------------------------------------------------------------
 # B3LYP/6-311++G(d,p) empiricaldispersion=gd3bj scf=xqc pop=npa geom=c
 heck
 ----------------------------------------------------------------------

 ---------------------------------------
 CID_145281448_JID_2116_Energie_neutraal
 ---------------------------------------
 Structure from the checkpoint file:  "JID_2116.chk"
 Charge =  0 Multiplicity = 1

 SCF Done:  E(RB3LYP) =  -540.109385640     A.U. after   14 cycles
 Normal termination of Gaussian 16 at Wed Dec  9 17:00:33 2020.

 ----------------------------------------------------------------------
 # B3LYP/6-311++G(d,p) empiricaldispersion=gd3bj scf=xqc pop=npa geom=c
 heck
 ----------------------------------------------------------------------

 -------------------------------------
 CID_145281448_JID_2116_Energie_kation
 -------------------------------------
 Structure from the checkpoint file:  "JID_2116.chk"
 Charge =  1 Multiplicity = 2

 SCF Done:  E(UB3LYP) =  -539.806788923     A.U. after   19 cycles
 Normal termination of Gaussian 16 at Wed Dec  9 17:03:58 2020.
 Gaussian 16:  ES64L-G16RevA.03 25-Dec-2016

 ----------------------------------------------------------------------
 # B3LYP/6-311++G(d,p) empiricaldispersion=gd3bj scf=xqc pop=npa geom=c
 heck
 ----------------------------------------------------------------------

 ------------------------------------
 CID_145281448_JID_2116_Energie_anion
 ------------------------------------
 Structure from the checkpoint file:  "JID_2116.chk"
 Charge = -1 Multiplicity = 2

                         Standard orientation:
 ---------------------------------------------------------------------
 Center     Atomic      Atomic             Coordinates (Angstroms)
 Number     Number       Type             X           Y           Z
 ---------------------------------------------------------------------
      1          6           0        3.251618   -1.045838    0.676656
      2          6           0        2.714291    0.114123   -0.179989
      3          6           0        2.568947   -0.305377   -1.651478
      4          6           0        1.402268    0.661652    0.369833
      5          6           0        1.345151    1.880722    0.933361
      6          6           0        0.246696   -0.235421    0.308376
      7          6           0       -1.053817    0.074225    0.059153
      8          6           0       -1.494665    1.426462   -0.300698
      9          6           0       -2.720105    1.961668   -0.218328
     10          6           0       -1.976009   -1.104077    0.107938
     11          8           0       -1.651838   -2.226339    0.449037
     12          8           0       -3.245719   -0.835093   -0.284389
     13          1           0        2.585439   -1.915239    0.644964
     14          1           0        3.364556   -0.743678    1.722984
     15          1           0        4.230100   -1.369558    0.304239
     16          1           0        3.446248    0.930320   -0.128645
     17          1           0        1.848071   -1.124331   -1.758494
     18          1           0        2.219409    0.530322   -2.267258
     19          1           0        3.529256   -0.649206   -2.051954
     20          1           0        0.437361    2.264287    1.386746
     21          1           0        2.227931    2.512437    0.989801
     22          1           0        0.451883   -1.291996    0.460629
     23          1           0       -0.686536    2.060336   -0.659666
     24          1           0       -2.883194    2.989495   -0.529576
     25          1           0       -3.579169    1.415309    0.149573
     26          1           0       -3.717163   -1.685886   -0.209465
 ---------------------------------------------------------------------

 SCF Done:  E(UB3LYP) =  -540.127602512     A.U. after   25 cycles

 The electronic state is 2-A.
 Alpha  occ. eigenvalues --  -19.01393 -18.94016 -10.12738 -10.05201 -10.04345
 Alpha  occ. eigenvalues --  -10.03958 -10.02449 -10.01945 -10.00579 -10.00157
 Alpha  occ. eigenvalues --   -9.99955  -9.99255  -0.95129  -0.85368  -0.69332
 Alpha  occ. eigenvalues --   -0.65201  -0.60634  -0.57202  -0.56693  -0.50251
 Alpha  occ. eigenvalues --   -0.47552  -0.44792  -0.41373  -0.35627  -0.34050
 Alpha  occ. eigenvalues --   -0.33742  -0.32191  -0.30860  -0.30061  -0.29195
 Alpha  occ. eigenvalues --   -0.28903  -0.28274  -0.26982  -0.25851  -0.24646
 Alpha  occ. eigenvalues --   -0.23001  -0.22400  -0.20751  -0.19665  -0.18065
 Alpha  occ. eigenvalues --   -0.17451  -0.15864  -0.13066  -0.11782  -0.07330
 Alpha  occ. eigenvalues --    0.04240
 Alpha virt. eigenvalues --    0.08302   0.09868   0.10281   0.10408   0.11152
 Alpha virt. eigenvalues --    0.11821   0.12864   0.13258   0.13826   0.14223
 Alpha virt. eigenvalues --    0.14583   0.15104   0.15499   0.16231   0.16473

  Beta  occ. eigenvalues --  -19.01329 -18.93869 -10.12547 -10.05182 -10.04349
  Beta  occ. eigenvalues --  -10.03948 -10.02509 -10.01957 -10.00443 -10.00024
  Beta  occ. eigenvalues --   -9.99586  -9.98743  -0.94917  -0.85121  -0.69100
  Beta  occ. eigenvalues --   -0.64804  -0.60260  -0.56724  -0.56659  -0.49466
  Beta  occ. eigenvalues --   -0.47275  -0.44434  -0.41113  -0.35365  -0.33858
  Beta  occ. eigenvalues --   -0.33553  -0.32013  -0.30702  -0.29750  -0.29045
  Beta  occ. eigenvalues --   -0.28340  -0.28004  -0.26929  -0.25658  -0.24400
  Beta  occ. eigenvalues --   -0.22905  -0.22266  -0.20651  -0.19443  -0.17720
  Beta  occ. eigenvalues --   -0.16694  -0.14914  -0.12237  -0.11049  -0.05443
  Beta virt. eigenvalues --    0.08231   0.09822   0.10128   0.10365   0.10560
  Beta virt. eigenvalues --    0.11141   0.11797   0.12887   0.13235   0.14097
  Beta virt. eigenvalues --    0.14254   0.14634   0.15193   0.15806   0.16404

 Mulliken charges and spin densities:
               1          2
     1  C   -0.557678  -0.022126
     2  C   -0.047781   0.072629
     3  C   -0.630752  -0.051948
     4  C    0.698357  -0.168284
     5  C   -0.772688   0.371911
     6  C   -0.809446   0.421810
     7  C    0.697116   0.167278
     8  C   -0.025256  -0.072175
     9  C   -0.741387   0.156212
    10  C   -0.129430   0.082478
    11  O   -0.388538   0.056768
    12  O   -0.216128   0.016114
    13  H    0.141731   0.002490
    14  H    0.117565   0.008469
    15  H    0.114208  -0.004540
    16  H    0.133444   0.004026
    17  H    0.160016   0.021451
    18  H    0.127725  -0.003866
    19  H    0.084659   0.018015
    20  H    0.140215  -0.013942
    21  H    0.068199  -0.019372
    22  H    0.228591  -0.027577
    23  H    0.148241  -0.002679
    24  H    0.081781  -0.006681
    25  H    0.118329  -0.007597
    26  H    0.258908   0.001136
 Sum of Mulliken charges =  -1.00000   1.00000

 Dipole moment (field-independent basis, Debye):
    X=              2.5711    Y=             -0.3435    Z=             -1.2384  Tot=              2.8744
 Quadrupole moment (field-independent basis, Debye-Ang):
   XX=            -96.3817   YY=            -96.2862   ZZ=            -85.8647
   XY=              1.3385   XZ=             -1.9089   YZ=              0.8950

 Summary of Natural Population Analysis:

                                       Natural Population
                Natural  -----------------------------------------------
    Atom  No    Charge         Core      Valence    Rydberg      Total
 -----------------------------------------------------------------------
      C    1   -0.28189      0.99965     2.27760    0.00463     3.28189
      C    2   -0.11249      0.99958     2.10426    0.00865     3.11249
      C    3   -0.28180      0.99966     2.27751    0.00464     3.28180
      C    4   -0.04257      0.99951     2.03158    0.01148     3.04257
      C    5   -0.11385      0.99952     2.10753    0.00680     3.11385
      C    6    0.04121      0.99948     1.95055    0.00877     2.95879
      C    7   -0.08771      0.99940     2.07593    0.01238     3.08771
      C    8   -0.09876      0.99957     2.08929    0.00990     3.09876
      C    9   -0.18747      0.99959     2.18008    0.00780     3.18747
      C   10    0.42249      0.99967     1.55277    0.02508     2.57751
      O   11   -0.32804      0.99987     3.32204    0.00613     4.32804
      O   12   -0.34911      0.99988     3.34187    0.00736     4.34911
      H   13    0.09944      0.00000     0.39965    0.00091     0.40056
      H   14    0.09907      0.00000     0.40016    0.00078     0.40093
      H   15    0.08840      0.00000     0.41068    0.00092     0.41160
      H   16    0.08670      0.00000     0.41117    0.00213     0.41330
      H   17    0.10325      0.00000     0.39587    0.00087     0.39675
      H   18    0.09883      0.00000     0.40042    0.00075     0.40117
      H   19    0.08720      0.00000     0.41187    0.00093     0.41280
      H   20    0.09152      0.00000     0.40745    0.00103     0.40848
      H   21    0.07690      0.00000     0.42191    0.00120     0.42310
      H   22    0.09751      0.00000     0.40127    0.00122     0.40249
      H   23    0.09476      0.00000     0.40319    0.00205     0.40524
      H   24    0.07872      0.00000     0.42007    0.00121     0.42128
      H   25    0.09184      0.00000     0.40702    0.00114     0.40816
      H   26    0.22586      0.00000     0.26892    0.00522     0.27414
 =======================================================================
   * Total *    0.00000     11.99537    32.87066    0.13398    45.00000

 Normal termination of Gaussian 16 at Wed Dec  9 17:08:51 2020.
