 Gaussian 16, Revision A.03,

 -----------------------------------------------------------
 # opt freq B3LYP/6-31G(d) empiricaldispersion=gd3bj scf=xqc
 -----------------------------------------------------------

 ------------------------------
 CID_60076810_JID_1451_neutraal
 ------------------------------
 Symbolic Z-matrix:
 Charge =  0 Multiplicity = 1

 SCF Done:  E(RB3LYP) =  -569.871459262     A.U. after   15 cycles
 SCF Done:  E(RB3LYP) =  -569.879426845     A.U. after   12 cycles
 SCF Done:  E(RB3LYP) =  -569.880610387     A.U. after   13 cycles
 SCF Done:  E(RB3LYP) =  -569.881132496     A.U. after   12 cycles
 SCF Done:  E(RB3LYP) =  -569.882027332     A.U. after   12 cycles
 SCF Done:  E(RB3LYP) =  -569.883175376     A.U. after   13 cycles
 SCF Done:  E(RB3LYP) =  -569.883521761     A.U. after   12 cycles
 SCF Done:  E(RB3LYP) =  -569.883598875     A.U. after   12 cycles
 SCF Done:  E(RB3LYP) =  -569.883719188     A.U. after   11 cycles
 SCF Done:  E(RB3LYP) =  -569.883754708     A.U. after   11 cycles
 SCF Done:  E(RB3LYP) =  -569.883762399     A.U. after    7 cycles
 SCF Done:  E(RB3LYP) =  -569.883762480     A.U. after    7 cycles
 SCF Done:  E(RB3LYP) =  -569.883762593     A.U. after    8 cycles
 SCF Done:  E(RB3LYP) =  -569.883762723     A.U. after    8 cycles
 SCF Done:  E(RB3LYP) =  -569.883762832     A.U. after    8 cycles
 SCF Done:  E(RB3LYP) =  -569.883762901     A.U. after    7 cycles
 Optimization completed.
    -- Stationary point found.
 Normal termination of Gaussian 16 at Tue Dec  8 20:04:44 2020.

 --------------------------------------------------------------------
 #N Geom=AllCheck Guess=TCheck SCRF=Check GenChk RB3LYP/6-31G(d) Freq
 --------------------------------------------------------------------

 Structure from the checkpoint file:  "JID_1451.chk"
 ------------------------------
 CID_60076810_JID_1451_neutraal
 ------------------------------
 Charge =  0 Multiplicity = 1

 SCF Done:  E(RB3LYP) =  -569.883762901     A.U. after    1 cycles

  Exact polarizability:  97.111   1.990  90.406  -4.289  -2.183  57.797
 Approx polarizability: 120.955   7.511 142.454  -8.253  -5.448  87.438

                      1                      2                      3
                      A                      A                      A
 Frequencies --     39.7678                46.6720                93.4197
 Red. masses --      6.3372                 3.6144                 3.4387
 Frc consts  --      0.0059                 0.0046                 0.0177
 IR Inten    --      1.1432                 3.8682                 1.1077

                      4                      5                      6
                      A                      A                      A
 Frequencies --    110.2817               146.5582               183.4441
 Red. masses --      1.9965                 7.3850                 5.1606
 Frc consts  --      0.0143                 0.0935                 0.1023
 IR Inten    --      1.0606                 1.0505                 9.9506

                      7                      8                      9
                      A                      A                      A
 Frequencies --    242.8675               274.6314               293.2355
 Red. masses --      1.4471                 2.5538                 2.1450
 Frc consts  --      0.0503                 0.1135                 0.1087
 IR Inten    --      4.3460                 2.9813                14.7926

                     10                     11                     12
                      A                      A                      A
 Frequencies --    378.3978               408.0219               438.1080
 Red. masses --      1.4538                 6.4459                 2.1197
 Frc consts  --      0.1226                 0.6323                 0.2397
 IR Inten    --     88.5169                 8.3392                14.2523

                     13                     14                     15
                      A                      A                      A
 Frequencies --    510.1237               607.3084               628.4553
 Red. masses --      3.1578                 3.2792                11.1793
 Frc consts  --      0.4842                 0.7126                 2.6014
 IR Inten    --      1.8679                 3.1819                 8.6309

                     16                     17                     18
                      A                      A                      A
 Frequencies --    652.2420               717.0171               745.3520
 Red. masses --      6.0846                 1.5500                 9.4623
 Frc consts  --      1.5251                 0.4695                 3.0972
 IR Inten    --      9.1822               160.7198                16.8968

                     19                     20                     21
                      A                      A                      A
 Frequencies --    757.9720               840.1232               877.0064
 Red. masses --      5.8331                 1.1161                 2.2202
 Frc consts  --      1.9745                 0.4641                 1.0061
 IR Inten    --      5.5246                 1.7828                 5.4491

                     22                     23                     24
                      A                      A                      A
 Frequencies --    902.1807               947.1337               954.0989
 Red. masses --      4.4775                 3.4707                 3.8834
 Frc consts  --      2.1472                 1.8344                 2.0828
 IR Inten    --      1.7840                92.6473                75.6827

                     25                     26                     27
                      A                      A                      A
 Frequencies --   1029.4546              1051.1783              1112.7711
 Red. masses --      2.2640                 2.8052                 1.9594
 Frc consts  --      1.4136                 1.8263                 1.4295
 IR Inten    --      5.3887                 2.4955                43.8437

                     28                     29                     30
                      A                      A                      A
 Frequencies --   1124.7253              1144.3559              1185.3399
 Red. masses --      2.9163                 2.0384                 1.6370
 Frc consts  --      2.1735                 1.5728                 1.3551
 IR Inten    --     90.8202                35.2881                10.9805

                     31                     32                     33
                      A                      A                      A
 Frequencies --   1192.7434              1270.3091              1287.7573
 Red. masses --      2.9240                 1.8295                 1.3881
 Frc consts  --      2.4509                 1.7394                 1.3563
 IR Inten    --     59.2379                79.2064                23.1681

                     34                     35                     36
                      A                      A                      A
 Frequencies --   1318.0475              1350.0685              1387.2912
 Red. masses --      1.9504                 1.5574                 1.3526
 Frc consts  --      1.9964                 1.6724                 1.5337
 IR Inten    --    148.2813                51.0954                65.9632

                     37                     38                     39
                      A                      A                      A
 Frequencies --   1400.1590              1414.8755              1435.3678
 Red. masses --      1.4055                 1.3035                 1.6170
 Frc consts  --      1.6234                 1.5374                 1.9629
 IR Inten    --     22.3118                 5.6530                10.2474

                     40                     41                     42
                      A                      A                      A
 Frequencies --   1446.9623              1499.7242              1512.8188
 Red. masses --      1.4055                 1.1083                 1.1126
 Frc consts  --      1.7338                 1.4687                 1.5002
 IR Inten    --     22.9895                 2.7342                13.1370

                     43                     44                     45
                      A                      A                      A
 Frequencies --   1527.6525              1533.8905              1552.9179
 Red. masses --      1.0426                 1.1536                 1.0913
 Frc consts  --      1.4336                 1.5991                 1.5506
 IR Inten    --      8.6550                10.8594                 6.1005

                     46                     47                     48
                      A                      A                      A
 Frequencies --   1887.5997              1957.3342              2909.0811
 Red. masses --     12.5990                11.9886                 1.0734
 Frc consts  --     26.4489                27.0614                 5.3523
 IR Inten    --    664.8550               354.5441               107.6356

                     49                     50                     51
                      A                      A                      A
 Frequencies --   3036.1733              3051.6132              3057.3525
 Red. masses --      1.0825                 1.0438                 1.0635
 Frc consts  --      5.8792                 5.7272                 5.8568
 IR Inten    --     12.5694                17.8447                 9.3436

                     52                     53                     54
                      A                      A                      A
 Frequencies --   3061.3675              3115.0408              3117.7296
 Red. masses --      1.0791                 1.1043                 1.0997
 Frc consts  --      5.9586                 6.3134                 6.2981
 IR Inten    --     38.7189                11.2484                36.2383

                     55                     56                     57
                      A                      A                      A
 Frequencies --   3141.9563              3501.7629              3679.6787
 Red. masses --      1.1033                 1.0741                 1.0792
 Frc consts  --      6.4171                 7.7598                 8.6091
 IR Inten    --     22.9195                 0.0713                52.0628

 - Thermochemistry -
 -------------------
 Temperature   298.150 Kelvin.  Pressure   1.00000 Atm.
 Atom     1 has atomic number  6 and mass  12.00000

 Molecular mass:   158.06914 amu.
 Principal axes and moments of inertia in atomic units:
                           1         2         3
     Eigenvalues --   966.679122824.996163665.46970
           X            0.99987  -0.01572  -0.00195
           Y            0.01572   0.99987   0.00421
           Z            0.00188  -0.00424   0.99999
 This molecule is an asymmetric top.
 Rotational symmetry number  1.
 Warning -- assumption of classical behavior for rotation
           may cause significant error
 Rotational temperatures (Kelvin)      0.08960     0.03066     0.02363
 Rotational constants (GHZ):           1.86695     0.63885     0.49236
 Zero-point vibrational energy     449135.1 (Joules/Mol)
                                  107.34586 (Kcal/Mol)
 Warning -- explicit consideration of  14 degrees of freedom as
           vibrations may cause significant error
 Vibrational temperatures:     57.22    67.15   134.41   158.67   210.86
          (Kelvin)            263.94   349.43   395.13   421.90   544.43
                              587.05   630.34   733.95   873.78   904.21
                              938.43  1031.63  1072.40  1090.55  1208.75
                             1261.82  1298.04  1362.71  1372.74  1481.16
                             1512.41  1601.03  1618.23  1646.47  1705.44
                             1716.09  1827.69  1852.80  1896.38  1942.45
                             1996.00  2014.52  2035.69  2065.17  2081.86
                             2157.77  2176.61  2197.95  2206.93  2234.30
                             2715.83  2816.17  4185.52  4368.38  4390.59
                             4398.85  4404.63  4481.85  4485.72  4520.57
                             5038.26  5294.24

 Zero-point correction=                           0.171067 (Hartree/Particle)
 Thermal correction to Energy=                    0.182062
 Thermal correction to Enthalpy=                  0.183006
 Thermal correction to Gibbs Free Energy=         0.132902
 Sum of electronic and zero-point Energies=           -569.712696
 Sum of electronic and thermal Energies=              -569.701701
 Sum of electronic and thermal Enthalpies=            -569.700756
 Sum of electronic and thermal Free Energies=         -569.750860

                     E (Thermal)             CV                S
                      KCal/Mol        Cal/Mol-Kelvin    Cal/Mol-Kelvin
 Total                  114.246             39.339            105.453
 Electronic               0.000              0.000              0.000
 Translational            0.889              2.981             41.083
 Rotational               0.889              2.981             30.682
 Vibrational            112.468             33.377             33.688
 Vibration     1          0.594              1.981              5.271
 Vibration     2          0.595              1.979              4.954
 Vibration     3          0.602              1.954              3.587
 Vibration     4          0.606              1.941              3.264
 Vibration     5          0.617              1.906              2.716
 Vibration     6          0.631              1.862              2.293
 Vibration     7          0.659              1.775              1.782
 Vibration     8          0.677              1.720              1.567
 Vibration     9          0.688              1.686              1.455
 Vibration    10          0.749              1.516              1.046
 Vibration    11          0.773              1.453              0.934
 Vibration    12          0.798              1.387              0.833
 Vibration    13          0.865              1.228              0.633
 Vibration    14          0.966              1.016              0.437

 Optimization completed.
    -- Stationary point found.
 Normal termination of Gaussian 16 at Tue Dec  8 20:08:37 2020.

 ----------------------------------------------------------------------
 # B3LYP/6-311++G(d,p) empiricaldispersion=gd3bj scf=xqc pop=npa geom=c
 heck
 ----------------------------------------------------------------------

 --------------------------------------
 CID_60076810_JID_1451_Energie_neutraal
 --------------------------------------
 Structure from the checkpoint file:  "JID_1451.chk"
 Charge =  0 Multiplicity = 1

 SCF Done:  E(RB3LYP) =  -570.059387586     A.U. after   14 cycles
 Normal termination of Gaussian 16 at Tue Dec  8 20:10:14 2020.

 ----------------------------------------------------------------------
 # B3LYP/6-311++G(d,p) empiricaldispersion=gd3bj scf=xqc pop=npa geom=c
 heck
 ----------------------------------------------------------------------

 ------------------------------------
 CID_60076810_JID_1451_Energie_kation
 ------------------------------------
 Structure from the checkpoint file:  "JID_1451.chk"
 Charge =  1 Multiplicity = 2

 SCF Done:  E(UB3LYP) =  -569.726531861     A.U. after   23 cycles
 Normal termination of Gaussian 16 at Tue Dec  8 20:14:13 2020.
 Gaussian 16:  ES64L-G16RevA.03 25-Dec-2016

 ----------------------------------------------------------------------
 # B3LYP/6-311++G(d,p) empiricaldispersion=gd3bj scf=xqc pop=npa geom=c
 heck
 ----------------------------------------------------------------------

 -----------------------------------
 CID_60076810_JID_1451_Energie_anion
 -----------------------------------
 Structure from the checkpoint file:  "JID_1451.chk"
 Charge = -1 Multiplicity = 2

                         Standard orientation:
 ---------------------------------------------------------------------
 Center     Atomic      Atomic             Coordinates (Angstroms)
 Number     Number       Type             X           Y           Z
 ---------------------------------------------------------------------
      1          6           0       -4.137824    0.592128    0.080176
      2          6           0       -2.618933    0.532793   -0.053154
      3          7           0       -2.166570   -0.849112   -0.168170
      4          6           0       -0.778433   -1.061547   -0.519384
      5          6           0        0.292327   -0.487072    0.448371
      6          6           0        1.672563   -1.057331    0.129549
      7          8           0        1.993305   -2.210626    0.079087
      8          8           0        2.527991   -0.017481   -0.139118
      9          6           0        1.850430    1.213359   -0.021867
     10          8           0        2.385272    2.269870   -0.211835
     11          7           0        0.564169    0.929683    0.324167
     12          1           0       -4.613216    0.111051   -0.779527
     13          1           0       -4.483611    1.629211    0.143745
     14          1           0       -4.471561    0.073260    0.987198
     15          1           0       -2.302803    1.059028   -0.963163
     16          1           0       -2.166710    1.076114    0.801154
     17          1           0       -2.410317   -1.371803    0.670523
     18          1           0       -0.599065   -2.139918   -0.583240
     19          1           0       -0.594483   -0.634829   -1.513250
     20          1           0        0.031037   -0.764609    1.479278
     21          1           0       -0.105788    1.670405    0.458081
 ---------------------------------------------------------------------

 SCF Done:  E(UB3LYP) =  -570.056316463     A.U. after   29 cycles

 The electronic state is 2-A.
 Alpha  occ. eigenvalues --  -19.08575 -19.01638 -19.01300 -14.25509 -14.19958
 Alpha  occ. eigenvalues --  -10.23254 -10.19888 -10.12988 -10.10674 -10.09373
 Alpha  occ. eigenvalues --  -10.05733  -1.04177  -0.96687  -0.93021  -0.85122
 Alpha  occ. eigenvalues --   -0.80872  -0.67581  -0.63419  -0.56525  -0.54574
 Alpha  occ. eigenvalues --   -0.52155  -0.50256  -0.43320  -0.41331  -0.39172
 Alpha  occ. eigenvalues --   -0.37776  -0.36303  -0.35663  -0.34543  -0.34202
 Alpha  occ. eigenvalues --   -0.31757  -0.31257  -0.30208  -0.28172  -0.26515
 Alpha  occ. eigenvalues --   -0.26033  -0.25002  -0.22786  -0.21179  -0.18572
 Alpha  occ. eigenvalues --   -0.18074  -0.12806   0.04354
 Alpha virt. eigenvalues --    0.06926   0.08056   0.08416   0.09048   0.11152
 Alpha virt. eigenvalues --    0.11302   0.11424   0.12031   0.12395   0.13400
 Alpha virt. eigenvalues --    0.14622   0.14716   0.15667   0.16549   0.17066

  Beta  occ. eigenvalues --  -19.08563 -19.01522 -19.01275 -14.25491 -14.19917
  Beta  occ. eigenvalues --  -10.23231 -10.19690 -10.12978 -10.10651 -10.09331
  Beta  occ. eigenvalues --  -10.05696  -1.04065  -0.96539  -0.92906  -0.85080
  Beta  occ. eigenvalues --   -0.80811  -0.67475  -0.63297  -0.56395  -0.54485
  Beta  occ. eigenvalues --   -0.52029  -0.50122  -0.43199  -0.41043  -0.39018
  Beta  occ. eigenvalues --   -0.37698  -0.36200  -0.35550  -0.34441  -0.34121
  Beta  occ. eigenvalues --   -0.31609  -0.30816  -0.30141  -0.28090  -0.26423
  Beta  occ. eigenvalues --   -0.25977  -0.24941  -0.22436  -0.21129  -0.18498
  Beta  occ. eigenvalues --   -0.17986  -0.12716
  Beta virt. eigenvalues --    0.07274   0.08523   0.08866   0.09223   0.09440
  Beta virt. eigenvalues --    0.11460   0.11704   0.11880   0.12430   0.12797
  Beta virt. eigenvalues --    0.13845   0.14758   0.14881   0.15644   0.16589

 Mulliken charges and spin densities:
               1          2
     1  C    1.007549  -1.630039
     2  C    0.059222  -0.268603
     3  N   -0.246479   0.231328
     4  C   -0.183644  -0.334026
     5  C    0.941683  -0.708491
     6  C    0.081486  -0.131165
     7  O   -0.355323   0.060458
     8  O   -0.124102  -0.002062
     9  C    0.405434  -0.077205
    10  O   -0.375912   0.003485
    11  N   -0.362070   0.087046
    12  H   -0.030741   0.172089
    13  H   -0.279734   0.410680
    14  H   -0.457041   0.600540
    15  H   -0.077739   0.245787
    16  H   -0.510125   0.637723
    17  H    0.136655   0.091364
    18  H    0.159948   0.028595
    19  H    0.046350   0.125530
    20  H   -0.939647   1.230083
    21  H    0.104231   0.226884
 Sum of Mulliken charges =  -1.00000   1.00000

 Dipole moment (field-independent basis, Debye):
    X=              1.9516    Y=             -0.7311    Z=             -4.0642  Tot=              4.5674
 Quadrupole moment (field-independent basis, Debye-Ang):
   XX=           -128.6554   YY=           -103.3025   ZZ=            -93.6903
   XY=              2.7264   XZ=              9.7924   YZ=              1.5524

 Summary of Natural Population Analysis:

                                       Natural Population
                Natural  -----------------------------------------------
    Atom  No    Charge         Core      Valence    Rydberg      Total
 -----------------------------------------------------------------------
      C    1   -0.28573      0.99967     2.27992    0.00615     3.28573
      C    2   -0.08866      0.99964     2.07760    0.01142     3.08866
      N    3   -0.33739      0.99974     2.82493    0.01273     3.83739
      C    4   -0.08393      0.99961     2.07217    0.01215     3.08393
      C    5   -0.06924      0.99957     2.05646    0.01321     3.06924
      C    6    0.42754      0.99968     1.54659    0.02619     2.57246
      O    7   -0.27713      0.99986     3.27129    0.00598     4.27713
      O    8   -0.27682      0.99985     3.27092    0.00605     4.27682
      C    9    0.45973      0.99970     1.51401    0.02656     2.54027
      O   10   -0.30365      0.99986     3.29798    0.00581     4.30365
      N   11   -0.33203      0.99966     2.82245    0.00991     3.83203
      H   12    0.09699      0.00000     0.40178    0.00123     0.40301
      H   13    0.09983      0.00000     0.39901    0.00116     0.40017
      H   14    0.09977      0.00000     0.39853    0.00170     0.40023
      H   15    0.08738      0.00000     0.41122    0.00140     0.41262
      H   16    0.07908      0.00000     0.41618    0.00473     0.42092
      H   17    0.17791      0.00000     0.31851    0.00358     0.32209
      H   18    0.10546      0.00000     0.39345    0.00109     0.39454
      H   19    0.09161      0.00000     0.40706    0.00132     0.40839
      H   20    0.11944      0.00000     0.37279    0.00777     0.38056
      H   21    0.20983      0.00000     0.28748    0.00269     0.29017
 =======================================================================
   * Total *   -0.00000     10.99684    30.84034    0.16281    42.00000

 Normal termination of Gaussian 16 at Tue Dec  8 20:19:18 2020.
