 Gaussian 16, Revision A.03,

 -----------------------------------------------------------
 # opt freq B3LYP/6-31G(d) empiricaldispersion=gd3bj scf=xqc
 -----------------------------------------------------------

 ------------------------------
 CID_79284739_JID_8708_neutraal
 ------------------------------
 Symbolic Z-matrix:
 Charge =  0 Multiplicity = 1

 SCF Done:  E(RB3LYP) =  -1274.42294183     A.U. after   15 cycles
 SCF Done:  E(RB3LYP) =  -1274.44520264     A.U. after   13 cycles
 SCF Done:  E(RB3LYP) =  -1274.44853343     A.U. after   14 cycles
 SCF Done:  E(RB3LYP) =  -1274.44506693     A.U. after   14 cycles
 SCF Done:  E(RB3LYP) =  -1274.44651277     A.U. after   14 cycles
 SCF Done:  E(RB3LYP) =  -1274.44977571     A.U. after   11 cycles
 SCF Done:  E(RB3LYP) =  -1274.45123928     A.U. after   13 cycles
 SCF Done:  E(RB3LYP) =  -1274.45006877     A.U. after   13 cycles
 SCF Done:  E(RB3LYP) =  -1274.45141856     A.U. after   13 cycles
 SCF Done:  E(RB3LYP) =  -1274.45194582     A.U. after   12 cycles
 SCF Done:  E(RB3LYP) =  -1274.45487302     A.U. after    9 cycles
 SCF Done:  E(RB3LYP) =  -1274.45487307     A.U. after    9 cycles
 SCF Done:  E(RB3LYP) =  -1274.45487313     A.U. after    9 cycles
 SCF Done:  E(RB3LYP) =  -1274.45487312     A.U. after    8 cycles
 SCF Done:  E(RB3LYP) =  -1274.45487312     A.U. after    7 cycles
 Optimization completed.
    -- Stationary point found.
 Normal termination of Gaussian 16 at Fri Dec 11 22:40:04 2020.

 --------------------------------------------------------------------
 #N Geom=AllCheck Guess=TCheck SCRF=Check GenChk RB3LYP/6-31G(d) Freq
 --------------------------------------------------------------------

 Structure from the checkpoint file:  "JID_8708.chk"
 ------------------------------
 CID_79284739_JID_8708_neutraal
 ------------------------------
 Charge =  0 Multiplicity = 1

 SCF Done:  E(RB3LYP) =  -1274.45487312     A.U. after    1 cycles

  Exact polarizability: 150.046   2.400 149.145  -2.668  13.712 124.665
 Approx polarizability: 210.565  -0.163 221.552 -10.010  25.456 201.134

                      1                      2                      3
                      A                      A                      A
 Frequencies --      3.9525                21.7956                30.5238
 Red. masses --      6.1145                 5.8338                 6.2789
 Frc consts  --      0.0001                 0.0016                 0.0034
 IR Inten    --      1.4831                 0.3798                 5.0123

                      4                      5                      6
                      A                      A                      A
 Frequencies --     32.3622                43.7922                49.9556
 Red. masses --      7.0937                 5.9503                 4.9342
 Frc consts  --      0.0044                 0.0067                 0.0073
 IR Inten    --      3.8179                 0.0967                 6.5169

                      7                      8                      9
                      A                      A                      A
 Frequencies --     62.5802               104.3039               119.2184
 Red. masses --      5.9232                 4.8694                 5.4303
 Frc consts  --      0.0137                 0.0312                 0.0455
 IR Inten    --      0.8533                 3.4685                 0.9000

                     10                     11                     12
                      A                      A                      A
 Frequencies --    135.5967               152.8731               165.9435
 Red. masses --      5.8878                 4.0673                 3.3850
 Frc consts  --      0.0638                 0.0560                 0.0549
 IR Inten    --      6.1347                 0.3376                 1.4016

                     13                     14                     15
                      A                      A                      A
 Frequencies --    180.9270               213.2456               219.5524
 Red. masses --      1.2450                 4.4197                 4.3034
 Frc consts  --      0.0240                 0.1184                 0.1222
 IR Inten    --    214.0898                 1.6106                 7.0562

                     16                     17                     18
                      A                      A                      A
 Frequencies --    228.8636               283.8815               316.6859
 Red. masses --      4.9205                 2.8486                 4.0127
 Frc consts  --      0.1518                 0.1353                 0.2371
 IR Inten    --      3.2312                 0.1010                 5.4715

                     19                     20                     21
                      A                      A                      A
 Frequencies --    327.5797               346.5277               360.0379
 Red. masses --      4.5850                 3.5927                 3.6586
 Frc consts  --      0.2899                 0.2542                 0.2794
 IR Inten    --      3.4387                 3.0385                 5.2065

                     22                     23                     24
                      A                      A                      A
 Frequencies --    400.9625               431.4986               442.9096
 Red. masses --      2.6363                 3.8099                 2.1196
 Frc consts  --      0.2497                 0.4179                 0.2450
 IR Inten    --      5.3112                38.0566                 7.5186

                     25                     26                     27
                      A                      A                      A
 Frequencies --    446.8946               481.8528               517.3038
 Red. masses --      2.2228                 7.0171                 4.0218
 Frc consts  --      0.2615                 0.9599                 0.6341
 IR Inten    --      1.9649                45.3077                 0.9342

                     28                     29                     30
                      A                      A                      A
 Frequencies --    543.5976               560.0961               568.0046
 Red. masses --      1.9284                 3.2608                 3.7749
 Frc consts  --      0.3357                 0.6027                 0.7176
 IR Inten    --     12.6853                29.7312                28.1878

                     31                     32                     33
                      A                      A                      A
 Frequencies --    596.2063               599.8608               641.9312
 Red. masses --      1.1944                 2.1464                 1.4978
 Frc consts  --      0.2501                 0.4551                 0.3637
 IR Inten    --     51.6487                 5.1690                27.3685

                     34                     35                     36
                      A                      A                      A
 Frequencies --    645.9386               659.8451               704.1744
 Red. masses --      1.9027                 1.4170                 2.2824
 Frc consts  --      0.4677                 0.3635                 0.6668
 IR Inten    --      7.9215               102.1424                18.7782

                     37                     38                     39
                      A                      A                      A
 Frequencies --    754.3113               770.2185               795.9798
 Red. masses --      3.0718                 3.6903                 1.5928
 Frc consts  --      1.0298                 1.2899                 0.5946
 IR Inten    --     50.8502                26.8829                19.9705

                     40                     41                     42
                      A                      A                      A
 Frequencies --    824.1299               893.3603               894.2625
 Red. masses --      3.3129                 4.2036                 3.2419
 Frc consts  --      1.3257                 1.9766                 1.5275
 IR Inten    --      4.1537                 4.9439                19.1493

                     43                     44                     45
                      A                      A                      A
 Frequencies --    920.5046               950.1894               972.8919
 Red. masses --      2.9166                 1.9564                 2.8788
 Frc consts  --      1.4560                 1.0407                 1.6054
 IR Inten    --     23.1247                 4.0710                 1.8773

                     46                     47                     48
                      A                      A                      A
 Frequencies --    985.6541              1005.5900              1017.6430
 Red. masses --      1.9993                 1.9293                 1.9227
 Frc consts  --      1.1444                 1.1495                 1.1731
 IR Inten    --      8.4098                22.2435                14.5790

                     49                     50                     51
                      A                      A                      A
 Frequencies --   1060.0875              1066.1021              1094.7381
 Red. masses --      2.5721                 3.3378                 2.7724
 Frc consts  --      1.7030                 2.2352                 1.9576
 IR Inten    --     10.8577                 2.0811                74.4008

                     52                     53                     54
                      A                      A                      A
 Frequencies --   1108.7713              1131.1014              1145.0551
 Red. masses --      2.4717                 2.2958                 2.0333
 Frc consts  --      1.7903                 1.7306                 1.5707
 IR Inten    --     77.3189               137.4485                71.8344

                     55                     56                     57
                      A                      A                      A
 Frequencies --   1185.3380              1214.9105              1240.8072
 Red. masses --      1.2393                 2.1079                 1.6858
 Frc consts  --      1.0259                 1.8331                 1.5292
 IR Inten    --     18.7740                86.6663                 3.5847

                     58                     59                     60
                      A                      A                      A
 Frequencies --   1258.8718              1273.4435              1294.1346
 Red. masses --      1.5983                 1.1935                 2.3169
 Frc consts  --      1.4924                 1.1404                 2.2862
 IR Inten    --     15.9439                32.6067                64.3932

                     61                     62                     63
                      A                      A                      A
 Frequencies --   1306.2115              1319.7643              1340.0948
 Red. masses --      1.3143                 1.7143                 1.5187
 Frc consts  --      1.3212                 1.7592                 1.6069
 IR Inten    --     80.5508                73.8127                 9.7677

                     64                     65                     66
                      A                      A                      A
 Frequencies --   1359.0379              1365.7446              1382.0133
 Red. masses --      1.5796                 1.3827                 1.2323
 Frc consts  --      1.7189                 1.5196                 1.3868
 IR Inten    --     69.7410                16.8922                 2.3289

                     67                     68                     69
                      A                      A                      A
 Frequencies --   1402.1651              1419.3165              1420.2508
 Red. masses --      1.5226                 1.9002                 1.9390
 Frc consts  --      1.7638                 2.2553                 2.3044
 IR Inten    --      8.2637                54.0917               104.5294

                     70                     71                     72
                      A                      A                      A
 Frequencies --   1448.2273              1474.4718              1490.0080
 Red. masses --      1.3498                 1.0968                 1.0869
 Frc consts  --      1.6679                 1.4050                 1.4217
 IR Inten    --      8.5044                 4.3903                31.5176

                     73                     74                     75
                      A                      A                      A
 Frequencies --   1492.8947              1504.6596              1510.8291
 Red. masses --      1.0918                 1.1001                 1.0887
 Frc consts  --      1.4337                 1.4674                 1.4641
 IR Inten    --      6.3428                21.3962                 2.6818

                     76                     77                     78
                      A                      A                      A
 Frequencies --   1528.7799              1647.2067              1799.0762
 Red. masses --      1.0874                 1.2591                 8.7842
 Frc consts  --      1.4974                 2.0128                16.7514
 IR Inten    --      9.7372               117.6260               301.1739

                     79                     80                     81
                      A                      A                      A
 Frequencies --   1831.6074              2250.1041              2974.3708
 Red. masses --      9.2885                 5.9459                 1.0710
 Frc consts  --     18.3594                17.7367                 5.5825
 IR Inten    --    256.8240                 1.4696                48.9670

                     82                     83                     84
                      A                      A                      A
 Frequencies --   3018.6981              3068.6380              3080.3288
 Red. masses --      1.0716                 1.0647                 1.0889
 Frc consts  --      5.7532                 5.9072                 6.0873
 IR Inten    --     30.8193                 4.9885                 5.3798

                     85                     86                     87
                      A                      A                      A
 Frequencies --   3094.9356              3095.5646              3119.7424
 Red. masses --      1.0602                 1.0597                 1.0611
 Frc consts  --      5.9833                 5.9832                 6.0850
 IR Inten    --      9.5219                 3.9464                16.8745

                     88                     89                     90
                      A                      A                      A
 Frequencies --   3124.1198              3128.6836              3150.1112
 Red. masses --      1.0987                 1.0926                 1.1034
 Frc consts  --      6.3180                 6.3014                 6.4510
 IR Inten    --     22.2281                 2.1205                 7.4069

                     91                     92                     93
                      A                      A                      A
 Frequencies --   3166.1332              3174.5130              3497.4565
 Red. masses --      1.1051                 1.1058                 1.1614
 Frc consts  --      6.5270                 6.5654                 8.3704
 IR Inten    --     10.8840                 3.7401                52.3443

                     94                     95                     96
                      A                      A                      A
 Frequencies --   3595.9812              3666.9572              3724.5680
 Red. masses --      1.0454                 1.0639                 1.1052
 Frc consts  --      7.9646                 8.4286                 9.0329
 IR Inten    --     48.0308                43.5834                34.4533

 - Thermochemistry -
 -------------------
 Temperature   298.150 Kelvin.  Pressure   1.00000 Atm.
 Atom     1 has atomic number  6 and mass  12.00000

 Molecular mass:   276.07799 amu.
 Principal axes and moments of inertia in atomic units:
                           1         2         3
     Eigenvalues --  4324.084096434.687717795.17405
           X            0.99888   0.04549  -0.01313
           Y           -0.04532   0.99889   0.01298
           Z            0.01370  -0.01237   0.99983
 This molecule is an asymmetric top.
 Rotational symmetry number  1.
 Warning -- assumption of classical behavior for rotation
           may cause significant error
 Rotational temperatures (Kelvin)      0.02003     0.01346     0.01111
 Rotational constants (GHZ):           0.41737     0.28047     0.23152
 Zero-point vibrational energy     708623.7 (Joules/Mol)
                                  169.36514 (Kcal/Mol)
 Warning -- explicit consideration of  32 degrees of freedom as
           vibrations may cause significant error
 Vibrational temperatures:      5.69    31.36    43.92    46.56    63.01
          (Kelvin)             71.87    90.04   150.07   171.53   195.09
                              219.95   238.76   260.31   306.81   315.89
                              329.28   408.44   455.64   471.31   498.58
                              518.01   576.90   620.83   637.25   642.98
                              693.28   744.28   782.12   805.85   817.23
                              857.81   863.07   923.60   929.36   949.37
                             1013.15  1085.29  1108.17  1145.24  1185.74
                             1285.35  1286.64  1324.40  1367.11  1399.77
                             1418.14  1446.82  1464.16  1525.23  1533.88
                             1575.08  1595.27  1627.40  1647.48  1705.44
                             1747.99  1785.24  1811.24  1832.20  1861.97
                             1879.35  1898.85  1928.10  1955.35  1965.00
                             1988.41  2017.40  2042.08  2043.42  2083.68
                             2121.44  2143.79  2147.94  2164.87  2173.75
                             2199.57  2369.96  2588.47  2635.27  3237.40
                             4279.46  4343.23  4415.09  4431.91  4452.92
                             4453.83  4488.61  4494.91  4501.48  4532.31
                             4555.36  4567.42  5032.06  5173.81  5275.93
                             5358.82

 Zero-point correction=                           0.269901 (Hartree/Particle)
 Thermal correction to Energy=                    0.290281
 Thermal correction to Enthalpy=                  0.291226
 Thermal correction to Gibbs Free Energy=         0.215705
 Sum of electronic and zero-point Energies=          -1274.184973
 Sum of electronic and thermal Energies=             -1274.164592
 Sum of electronic and thermal Enthalpies=           -1274.163648
 Sum of electronic and thermal Free Energies=        -1274.239168

                     E (Thermal)             CV                S
                      KCal/Mol        Cal/Mol-Kelvin    Cal/Mol-Kelvin
 Total                  182.154             72.592            158.947
 Electronic               0.000              0.000              0.000
 Translational            0.889              2.981             42.745
 Rotational               0.889              2.981             33.739
 Vibrational            180.377             66.631             82.464
 Vibration     1          0.593              1.987              9.855
 Vibration     2          0.593              1.985              6.463
 Vibration     3          0.594              1.984              5.795
 Vibration     4          0.594              1.983              5.679
 Vibration     5          0.595              1.980              5.080
 Vibration     6          0.595              1.978              4.819
 Vibration     7          0.597              1.972              4.374
 Vibration     8          0.605              1.946              3.372
 Vibration     9          0.609              1.933              3.113
 Vibration    10          0.613              1.918              2.865
 Vibration    11          0.619              1.899              2.636
 Vibration    12          0.624              1.884              2.481
 Vibration    13          0.630              1.866              2.319
 Vibration    14          0.644              1.821              2.016
 Vibration    15          0.647              1.811              1.963
 Vibration    16          0.652              1.797              1.888
 Vibration    17          0.682              1.704              1.510
 Vibration    18          0.704              1.642              1.327
 Vibration    19          0.711              1.620              1.272
 Vibration    20          0.725              1.582              1.182
 Vibration    21          0.735              1.555              1.122
 Vibration    22          0.767              1.468              0.959
 Vibration    23          0.793              1.402              0.854
 Vibration    24          0.803              1.377              0.818
 Vibration    25          0.806              1.368              0.805
 Vibration    26          0.838              1.290              0.705
 Vibration    27          0.872              1.212              0.616
 Vibration    28          0.899              1.154              0.558
 Vibration    29          0.916              1.118              0.524
 Vibration    30          0.924              1.100              0.508
 Vibration    31          0.954              1.040              0.456
 Vibration    32          0.958              1.032              0.450

 Optimization completed.
    -- Stationary point found.
 Normal termination of Gaussian 16 at Fri Dec 11 22:55:38 2020.

 ----------------------------------------------------------------------
 # B3LYP/6-311++G(d,p) empiricaldispersion=gd3bj scf=xqc pop=npa geom=c
 heck
 ----------------------------------------------------------------------

 --------------------------------------
 CID_79284739_JID_8708_Energie_neutraal
 --------------------------------------
 Structure from the checkpoint file:  "JID_8708.chk"
 Charge =  0 Multiplicity = 1

 SCF Done:  E(RB3LYP) =  -1274.76091229     A.U. after   15 cycles
 Normal termination of Gaussian 16 at Fri Dec 11 23:02:35 2020.

 ----------------------------------------------------------------------
 # B3LYP/6-311++G(d,p) empiricaldispersion=gd3bj scf=xqc pop=npa geom=c
 heck
 ----------------------------------------------------------------------

 ------------------------------------
 CID_79284739_JID_8708_Energie_kation
 ------------------------------------
 Structure from the checkpoint file:  "JID_8708.chk"
 Charge =  1 Multiplicity = 2

 SCF Done:  E(UB3LYP) =  -1274.45075972     A.U. after   27 cycles
 Normal termination of Gaussian 16 at Fri Dec 11 23:20:08 2020.
 Gaussian 16:  ES64L-G16RevA.03 25-Dec-2016

 ----------------------------------------------------------------------
 # B3LYP/6-311++G(d,p) empiricaldispersion=gd3bj scf=xqc pop=npa geom=c
 heck
 ----------------------------------------------------------------------

 -----------------------------------
 CID_79284739_JID_8708_Energie_anion
 -----------------------------------
 Structure from the checkpoint file:  "JID_8708.chk"
 Charge = -1 Multiplicity = 2

                         Standard orientation:
 ---------------------------------------------------------------------
 Center     Atomic      Atomic             Coordinates (Angstroms)
 Number     Number       Type             X           Y           Z
 ---------------------------------------------------------------------
      1          6           0       -1.910656    1.777236    2.867261
      2          6           0       -1.956448    0.731911    2.267147
      3          6           0       -2.007082   -0.531762    1.532218
      4          7           0       -1.217688   -0.469991    0.295076
      5          6           0       -0.985410   -1.777983   -0.317341
      6          6           0        0.384017   -1.850724   -0.985058
      7         16           0        1.756445   -1.692998    0.209376
      8          8           0        1.344878   -2.374019    1.450907
      9          8           0        2.987074   -2.097530   -0.495935
     10          6           0        1.873419    0.077567    0.574356
     11          6           0        2.458866    0.882845   -0.583573
     12          6           0        2.072760    2.355071   -0.446022
     13          8           0        0.916653    2.702507   -0.243818
     14          7           0        3.094586    3.243348   -0.586579
     15          6           0       -1.600996    0.592584   -0.637209
     16          6           0       -2.916146    0.286499   -1.337149
     17          8           0       -3.026872   -0.323620   -2.380438
     18          8           0       -3.989675    0.686076   -0.610890
     19          1           0       -1.864631    2.701698    3.396326
     20          1           0       -1.562838   -1.321271    2.148776
     21          1           0       -3.061589   -0.806485    1.355502
     22          1           0       -1.011514   -2.531175    0.473193
     23          1           0       -1.751061   -2.046770   -1.060943
     24          1           0        0.551441   -2.831442   -1.440818
     25          1           0        0.524538   -1.095624   -1.762939
     26          1           0        0.860201    0.398629    0.823695
     27          1           0        2.501679    0.125187    1.469044
     28          1           0        3.538660    0.727978   -0.652996
     29          1           0        2.033189    0.547269   -1.536806
     30          1           0        4.045639    2.955499   -0.756281
     31          1           0        2.885296    4.230703   -0.537709
     32          1           0       -1.652622    1.532739   -0.087463
     33          1           0       -0.830098    0.694340   -1.402864
     34          1           0       -4.778107    0.386421   -1.103604
 ---------------------------------------------------------------------

 SCF Done:  E(UB3LYP) =  -1274.75824520     A.U. after   33 cycles
 SCF Done:  E(UB3LYP) =  -1274.75824520     a.u. after    1 cycles

 The electronic state is 2-A.
 Alpha  occ. eigenvalues --  -88.95772 -19.09190 -19.04017 -19.02968 -19.02694
 Alpha  occ. eigenvalues --  -19.00101 -14.25191 -14.24100 -10.22657 -10.19030
 Alpha  occ. eigenvalues --  -10.15047 -10.13781 -10.13405 -10.12836 -10.12098
 Alpha  occ. eigenvalues --  -10.10590 -10.10148 -10.09187  -8.02293  -5.98553
 Alpha  occ. eigenvalues --   -5.98446  -5.98386  -1.03232  -1.01923  -0.95180
 Alpha  occ. eigenvalues --   -0.94359  -0.91656  -0.87069  -0.81561  -0.73701
 Alpha  occ. eigenvalues --   -0.71746  -0.69833  -0.66203  -0.62928  -0.60803
 Alpha  occ. eigenvalues --   -0.56628  -0.52788  -0.50391  -0.49106  -0.46278
 Alpha  occ. eigenvalues --   -0.45061  -0.44246  -0.43962  -0.42771  -0.41810
 Alpha  occ. eigenvalues --   -0.41212  -0.40117  -0.39690  -0.38778  -0.37509
 Alpha  occ. eigenvalues --   -0.36396  -0.35859  -0.35007  -0.34472  -0.33742
 Alpha  occ. eigenvalues --   -0.32598  -0.32173  -0.32102  -0.30687  -0.30097
 Alpha  occ. eigenvalues --   -0.29859  -0.27761  -0.25018  -0.24641  -0.23616
 Alpha  occ. eigenvalues --   -0.22075  -0.21723  -0.20862  -0.20496  -0.20024
 Alpha  occ. eigenvalues --   -0.18526  -0.17473  -0.15544   0.03451
 Alpha virt. eigenvalues --    0.04697   0.06498   0.06796   0.07135   0.07884
 Alpha virt. eigenvalues --    0.08380   0.08867   0.09230   0.09351   0.10012
 Alpha virt. eigenvalues --    0.10483   0.10682   0.10883   0.11650   0.12446

  Beta  occ. eigenvalues --  -88.95771 -19.09139 -19.04004 -19.02966 -19.02691
  Beta  occ. eigenvalues --  -19.00092 -14.25190 -14.23998 -10.22656 -10.19023
  Beta  occ. eigenvalues --  -10.15037 -10.13775 -10.13391 -10.12820 -10.12091
  Beta  occ. eigenvalues --  -10.10555 -10.10147 -10.09183  -8.02292  -5.98552
  Beta  occ. eigenvalues --   -5.98445  -5.98386  -1.03169  -1.01917  -0.95154
  Beta  occ. eigenvalues --   -0.94306  -0.91651  -0.87061  -0.81427  -0.73681
  Beta  occ. eigenvalues --   -0.71722  -0.69813  -0.66175  -0.62896  -0.60757
  Beta  occ. eigenvalues --   -0.56574  -0.52729  -0.50285  -0.49018  -0.46263
  Beta  occ. eigenvalues --   -0.44982  -0.44211  -0.43941  -0.42746  -0.41782
  Beta  occ. eigenvalues --   -0.41186  -0.40098  -0.39661  -0.38756  -0.37492
  Beta  occ. eigenvalues --   -0.36374  -0.35834  -0.34981  -0.34453  -0.33708
  Beta  occ. eigenvalues --   -0.32559  -0.32146  -0.32072  -0.30670  -0.30058
  Beta  occ. eigenvalues --   -0.29844  -0.27720  -0.24985  -0.24632  -0.23611
  Beta  occ. eigenvalues --   -0.22067  -0.21692  -0.20856  -0.20484  -0.20015
  Beta  occ. eigenvalues --   -0.18445  -0.17438  -0.15521
  Beta virt. eigenvalues --    0.05733   0.06467   0.06656   0.07059   0.07342
  Beta virt. eigenvalues --    0.08131   0.08869   0.09103   0.09390   0.09712
  Beta virt. eigenvalues --    0.10084   0.10604   0.10812   0.10958   0.12012

 Mulliken charges and spin densities:
               1          2
     1  C   -0.561876   0.122454
     2  C    0.886171  -0.494619
     3  C   -0.667359   0.072232
     4  N    0.322621   0.035866
     5  C   -0.579037  -0.061595
     6  C   -0.691713   0.208240
     7  S    1.042840  -0.281120
     8  O   -0.218900  -0.001527
     9  O   -0.127971   0.016601
    10  C   -0.991459   0.218052
    11  C    1.241826  -1.436050
    12  C   -0.076789  -0.018766
    13  O   -0.292231  -0.055591
    14  N   -0.315833   0.021288
    15  C   -0.445691  -0.154641
    16  C    0.579943  -0.628480
    17  O   -0.243424   0.013903
    18  O   -0.141064   0.032687
    19  H    0.068787   0.125293
    20  H    0.175843   0.018593
    21  H    0.022749   0.173266
    22  H    0.178790   0.025629
    23  H    0.050198   0.113698
    24  H    0.176639   0.083629
    25  H    0.236705  -0.020920
    26  H    0.377796  -0.121921
    27  H    0.044138   0.212509
    28  H    0.048319   0.151620
    29  H   -0.268735   0.489113
    30  H   -0.600429   0.877632
    31  H   -0.298229   0.611274
    32  H    0.245240  -0.013533
    33  H    0.124139   0.069954
    34  H   -0.302002   0.595230
 Sum of Mulliken charges =  -1.00000   1.00000

 Dipole moment (field-independent basis, Debye):
    X=             -4.5260    Y=             -4.9550    Z=              2.4667  Tot=              7.1498
 Quadrupole moment (field-independent basis, Debye-Ang):
   XX=           -215.0925   YY=           -169.9762   ZZ=           -146.3182
   XY=            -14.1544   XZ=             -1.1685   YZ=              9.7695

 Summary of Natural Population Analysis:

                                       Natural Population
                Natural  -----------------------------------------------
    Atom  No    Charge         Core      Valence    Rydberg      Total
 -----------------------------------------------------------------------
      C    1   -0.10889      0.99925     2.10619    0.00345     3.10889
      C    2   -0.00330      0.99936     1.99723    0.00671     3.00330
      C    3   -0.12377      0.99954     2.11433    0.00990     3.12377
      N    4   -0.27979      0.99973     2.76643    0.01363     3.77979
      C    5   -0.09870      0.99959     2.08730    0.01181     3.09870
      C    6   -0.29135      0.99957     2.28127    0.01051     3.29135
      S    7    1.01962      4.99927     1.88735    0.09377     6.98038
      O    8   -0.47426      0.99991     3.46892    0.00542     4.47426
      O    9   -0.47087      0.99991     3.46545    0.00551     4.47087
      C   10   -0.29220      0.99956     2.28090    0.01174     3.29220
      C   11   -0.24029      0.99957     2.22930    0.01141     3.24029
      C   12    0.33809      0.99969     1.63839    0.02383     2.66191
      O   13   -0.32835      0.99988     3.32198    0.00650     4.32835
      N   14   -0.39034      0.99971     2.88251    0.00812     3.89034
      C   15   -0.13592      0.99955     2.12346    0.01291     3.13592
      C   16    0.39524      0.99973     1.58019    0.02484     2.60476
      O   17   -0.30730      0.99987     3.30121    0.00622     4.30730
      O   18   -0.34210      0.99988     3.33499    0.00723     4.34210
      H   19    0.11250      0.00000     0.38654    0.00096     0.38750
      H   20    0.11545      0.00000     0.38341    0.00114     0.38455
      H   21    0.10351      0.00000     0.39486    0.00163     0.39649
      H   22    0.10840      0.00000     0.39022    0.00138     0.39160
      H   23    0.10158      0.00000     0.39698    0.00143     0.39842
      H   24    0.11961      0.00000     0.37932    0.00108     0.38039
      H   25    0.11564      0.00000     0.38306    0.00130     0.38436
      H   26    0.13464      0.00000     0.36242    0.00294     0.36536
      H   27    0.11742      0.00000     0.38139    0.00119     0.38258
      H   28    0.11398      0.00000     0.38445    0.00156     0.38602
      H   29    0.11147      0.00000     0.38708    0.00146     0.38853
      H   30    0.20387      0.00000     0.27153    0.02460     0.29613
      H   31    0.19956      0.00000     0.29565    0.00479     0.30044
      H   32    0.12383      0.00000     0.37462    0.00155     0.37617
      H   33    0.10970      0.00000     0.38902    0.00128     0.39030
      H   34    0.24333      0.00000     0.24248    0.01419     0.25667
 =======================================================================
   * Total *   -0.00000     21.99356    50.67044    0.33600    73.00000

 Normal termination of Gaussian 16 at Fri Dec 11 23:41:06 2020.
