 Gaussian 16, Revision A.03,

 -----------------------------------------------------------
 # opt freq B3LYP/6-31G(d) empiricaldispersion=gd3bj scf=xqc
 -----------------------------------------------------------

 ---------------------------
 CID_58396_JID_3208_neutraal
 ---------------------------
 Symbolic Z-matrix:
 Charge =  0 Multiplicity = 1

 SCF Done:  E(RB3LYP) =  -661.873900337     A.U. after   15 cycles
 SCF Done:  E(RB3LYP) =  -661.884755562     A.U. after   13 cycles
 SCF Done:  E(RB3LYP) =  -661.889518610     A.U. after   12 cycles
 SCF Done:  E(RB3LYP) =  -661.893362105     A.U. after   13 cycles
 SCF Done:  E(RB3LYP) =  -661.894364150     A.U. after   13 cycles
 SCF Done:  E(RB3LYP) =  -661.895795272     A.U. after   12 cycles
 SCF Done:  E(RB3LYP) =  -661.896188660     A.U. after   12 cycles
 SCF Done:  E(RB3LYP) =  -661.896580861     A.U. after   11 cycles
 SCF Done:  E(RB3LYP) =  -661.896721667     A.U. after   12 cycles
 SCF Done:  E(RB3LYP) =  -661.896791978     A.U. after   11 cycles
 SCF Done:  E(RB3LYP) =  -661.902903578     A.U. after   10 cycles
 SCF Done:  E(RB3LYP) =  -661.902904039     A.U. after    8 cycles
 SCF Done:  E(RB3LYP) =  -661.902904154     A.U. after    7 cycles
 SCF Done:  E(RB3LYP) =  -661.902904199     A.U. after    7 cycles
 SCF Done:  E(RB3LYP) =  -661.902904209     A.U. after    7 cycles
 Optimization completed.
    -- Stationary point found.
 Normal termination of Gaussian 16 at Wed Dec  9 22:47:44 2020.

 --------------------------------------------------------------------
 #N Geom=AllCheck Guess=TCheck SCRF=Check GenChk RB3LYP/6-31G(d) Freq
 --------------------------------------------------------------------

 Structure from the checkpoint file:  "JID_3208.chk"
 ---------------------------
 CID_58396_JID_3208_neutraal
 ---------------------------
 Charge =  0 Multiplicity = 1

 SCF Done:  E(RB3LYP) =  -661.902904209     A.U. after    1 cycles

  Exact polarizability: 141.067  -7.433 117.259   8.096  -0.929  68.973
 Approx polarizability: 184.624  -9.512 176.367  13.327  -2.783 101.057

                      1                      2                      3
                      A                      A                      A
 Frequencies --     38.3582                46.4701                65.8276
 Red. masses --      3.2367                 7.6561                 4.3523
 Frc consts  --      0.0028                 0.0097                 0.0111
 IR Inten    --      1.5249                 2.2065                 5.7417

                      4                      5                      6
                      A                      A                      A
 Frequencies --     79.8413               122.5957               132.1802
 Red. masses --      4.8318                 3.8695                 2.9445
 Frc consts  --      0.0181                 0.0343                 0.0303
 IR Inten    --      0.6742                 2.1598                 0.4585

                      7                      8                      9
                      A                      A                      A
 Frequencies --    166.3817               179.0428               255.0743
 Red. masses --      4.3764                 6.7460                 3.0711
 Frc consts  --      0.0714                 0.1274                 0.1177
 IR Inten    --     23.0772                 0.6776                26.1978

                     10                     11                     12
                      A                      A                      A
 Frequencies --    287.1256               322.3706               339.1736
 Red. masses --      4.6814                 2.6851                 3.7419
 Frc consts  --      0.2274                 0.1644                 0.2536
 IR Inten    --      3.8765                 1.1919                20.0576

                     13                     14                     15
                      A                      A                      A
 Frequencies --    372.2596               409.0200               440.4726
 Red. masses --      2.6761                 1.3011                 1.2166
 Frc consts  --      0.2185                 0.1282                 0.1391
 IR Inten    --     41.2654               144.8968                41.6204

                     16                     17                     18
                      A                      A                      A
 Frequencies --    453.2622               471.7835               490.8706
 Red. masses --      2.2314                 1.8010                 2.0429
 Frc consts  --      0.2701                 0.2362                 0.2900
 IR Inten    --     94.1993               180.5833                79.6990

                     19                     20                     21
                      A                      A                      A
 Frequencies --    507.8359               523.3377               563.6915
 Red. masses --      2.1882                 1.9474                 2.5563
 Frc consts  --      0.3325                 0.3142                 0.4786
 IR Inten    --     11.2616                 2.3889                 3.4678

                     22                     23                     24
                      A                      A                      A
 Frequencies --    598.6938               612.3743               640.6704
 Red. masses --      1.1560                 1.3257                 2.5172
 Frc consts  --      0.2441                 0.2929                 0.6088
 IR Inten    --    149.5756               177.7465                44.1318

                     25                     26                     27
                      A                      A                      A
 Frequencies --    721.0843               743.8727               807.2519
 Red. masses --      3.0037                 4.8593                 1.4682
 Frc consts  --      0.9202                 1.5842                 0.5637
 IR Inten    --     33.0310                18.9138                81.0101

                     28                     29                     30
                      A                      A                      A
 Frequencies --    817.3175               833.3214               849.6543
 Red. masses --      2.1377                 1.7866                 1.5876
 Frc consts  --      0.8414                 0.7310                 0.6753
 IR Inten    --     39.5035                21.1355                 9.0409

                     31                     32                     33
                      A                      A                      A
 Frequencies --    903.4973               941.9998               971.7878
 Red. masses --      2.7276                 3.1720                 2.2054
 Frc consts  --      1.3118                 1.6584                 1.2271
 IR Inten    --      8.4916                12.6189                 1.0688

                     34                     35                     36
                      A                      A                      A
 Frequencies --   1003.2313              1074.0788              1085.8051
 Red. masses --      2.7870                 2.1184                 2.6893
 Frc consts  --      1.6527                 1.4399                 1.8681
 IR Inten    --     14.7183                30.5872                66.1561

                     37                     38                     39
                      A                      A                      A
 Frequencies --   1097.4659              1111.4377              1129.1805
 Red. masses --      2.6644                 2.1805                 3.2971
 Frc consts  --      1.8908                 1.5870                 2.4769
 IR Inten    --     50.9270                14.1459                84.7195

                     40                     41                     42
                      A                      A                      A
 Frequencies --   1135.4367              1198.1977              1210.3828
 Red. masses --      1.3792                 2.2731                 1.8294
 Frc consts  --      1.0476                 1.9228                 1.5791
 IR Inten    --      5.3905                10.2552                52.0109

                     43                     44                     45
                      A                      A                      A
 Frequencies --   1240.5286              1258.4861              1285.9992
 Red. masses --      1.3027                 1.2823                 1.1802
 Frc consts  --      1.1811                 1.1966                 1.1500
 IR Inten    --     10.5938                30.1514                 3.4414

                     46                     47                     48
                      A                      A                      A
 Frequencies --   1328.4544              1362.7760              1394.7844
 Red. masses --      1.4480                 1.5357                 1.3215
 Frc consts  --      1.5056                 1.6803                 1.5147
 IR Inten    --     24.2706                 9.0937                14.5707

                     49                     50                     51
                      A                      A                      A
 Frequencies --   1398.2410              1417.0842              1420.8354
 Red. masses --      1.4513                 1.2593                 1.2648
 Frc consts  --      1.6718                 1.4899                 1.5044
 IR Inten    --    109.5646                19.9469                13.7702

                     52                     53                     54
                      A                      A                      A
 Frequencies --   1456.1429              1472.6084              1487.8228
 Red. masses --      1.2848                 1.6920                 2.0715
 Frc consts  --      1.6051                 2.1618                 2.7016
 IR Inten    --     56.4942               187.6133                13.9731

                     55                     56                     57
                      A                      A                      A
 Frequencies --   1503.3545              1523.1356              1526.7420
 Red. masses --      1.1677                 1.0939                 1.2655
 Frc consts  --      1.5549                 1.4953                 1.7380
 IR Inten    --     47.5525                 2.3645               104.7575

                     58                     59                     60
                      A                      A                      A
 Frequencies --   1541.6443              1544.8256              1581.0681
 Red. masses --      1.3327                 1.1290                 1.8207
 Frc consts  --      1.8661                 1.5874                 2.6815
 IR Inten    --     20.6997                55.8885               273.3223

                     61                     62                     63
                      A                      A                      A
 Frequencies --   1632.9865              1669.5232              1722.1901
 Red. masses --      4.2456                 1.4283                 2.3038
 Frc consts  --      6.6705                 2.3456                 4.0258
 IR Inten    --    234.2565               222.1062               874.3471

                     64                     65                     66
                      A                      A                      A
 Frequencies --   2962.1441              3005.0360              3023.5116
 Red. masses --      1.0715                 1.0690                 1.0688
 Frc consts  --      5.5391                 5.6874                 5.7565
 IR Inten    --     87.6387                42.3416                49.4405

                     67                     68                     69
                      A                      A                      A
 Frequencies --   3033.4788              3066.2082              3085.3970
 Red. masses --      1.0891                 1.0682                 1.0978
 Frc consts  --      5.9048                 5.9168                 6.1574
 IR Inten    --     67.7435                60.6190                57.0420

                     70                     71                     72
                      A                      A                      A
 Frequencies --   3110.3329              3128.8526              3262.6752
 Red. masses --      1.0914                 1.1004                 1.0683
 Frc consts  --      6.2208                 6.3470                 6.7002
 IR Inten    --     32.4478                22.4822               299.6842

                     73                     74                     75
                      A                      A                      A
 Frequencies --   3442.5049              3531.0527              3563.3074
 Red. masses --      1.0676                 1.0743                 1.0474
 Frc consts  --      7.4543                 7.8921                 7.8354
 IR Inten    --    566.8402                 4.3000                35.1147

                     76                     77                     78
                      A                      A                      A
 Frequencies --   3647.0242              3671.9797              3688.9140
 Red. masses --      1.0851                 1.1005                 1.0665
 Frc consts  --      8.5031                 8.7429                 8.5512
 IR Inten    --     55.0855                30.4332                92.3227

 - Thermochemistry -
 -------------------
 Temperature   298.150 Kelvin.  Pressure   1.00000 Atm.
 Atom     1 has atomic number  6 and mass  12.00000

 Molecular mass:   189.12257 amu.
 Principal axes and moments of inertia in atomic units:
                           1         2         3
     Eigenvalues --  1879.507402987.710074263.37434
           X            0.99964  -0.02549   0.00797
           Y            0.02553   0.99966  -0.00496
           Z           -0.00784   0.00516   0.99996
 This molecule is an asymmetric top.
 Rotational symmetry number  1.
 Warning -- assumption of classical behavior for rotation
           may cause significant error
 Rotational temperatures (Kelvin)      0.04608     0.02899     0.02032
 Rotational constants (GHZ):           0.96022     0.60405     0.42331
 Zero-point vibrational energy     632497.8 (Joules/Mol)
                                  151.17060 (Kcal/Mol)
 Warning -- explicit consideration of  23 degrees of freedom as
           vibrations may cause significant error
 Vibrational temperatures:     55.19    66.86    94.71   114.87   176.39
          (Kelvin)            190.18   239.39   257.60   366.99   413.11
                              463.82   488.00   535.60   588.49   633.74
                              652.14   678.79   706.25   730.66   752.97
                              811.03   861.39   881.07   921.78  1037.48
                             1070.27  1161.46  1175.94  1198.96  1222.46
                             1299.93  1355.33  1398.19  1443.43  1545.36
                             1562.23  1579.01  1599.11  1624.64  1633.64
                             1723.94  1741.47  1784.84  1810.68  1850.27
                             1911.35  1960.73  2006.78  2011.76  2038.87
                             2044.27  2095.06  2118.76  2140.65  2162.99
                             2191.45  2196.64  2218.08  2222.66  2274.80
                             2349.50  2402.07  2477.85  4261.86  4323.58
                             4350.16  4364.50  4411.59  4439.20  4475.08
                             4501.72  4694.26  4953.00  5080.40  5126.80
                             5247.25  5283.16  5307.52

 Zero-point correction=                           0.240906 (Hartree/Particle)
 Thermal correction to Energy=                    0.254960
 Thermal correction to Enthalpy=                  0.255905
 Thermal correction to Gibbs Free Energy=         0.199509
 Sum of electronic and zero-point Energies=           -661.661999
 Sum of electronic and thermal Energies=              -661.647944
 Sum of electronic and thermal Enthalpies=            -661.647000
 Sum of electronic and thermal Free Energies=         -661.703395

                     E (Thermal)             CV                S
                      KCal/Mol        Cal/Mol-Kelvin    Cal/Mol-Kelvin
 Total                  159.990             52.654            118.694
 Electronic               0.000              0.000              0.000
 Translational            0.889              2.981             41.617
 Rotational               0.889              2.981             31.549
 Vibrational            158.213             46.692             45.528
 Vibration     1          0.594              1.982              5.342
 Vibration     2          0.595              1.979              4.962
 Vibration     3          0.597              1.971              4.274
 Vibration     4          0.600              1.963              3.895
 Vibration     5          0.610              1.930              3.059
 Vibration     6          0.612              1.921              2.914
 Vibration     7          0.624              1.884              2.476
 Vibration     8          0.629              1.868              2.338
 Vibration     9          0.665              1.754              1.695
 Vibration    10          0.684              1.698              1.491
 Vibration    11          0.707              1.631              1.298
 Vibration    12          0.719              1.597              1.216
 Vibration    13          0.744              1.529              1.070
 Vibration    14          0.773              1.451              0.930
 Vibration    15          0.800              1.382              0.825
 Vibration    16          0.812              1.354              0.786
 Vibration    17          0.829              1.313              0.733
 Vibration    18          0.847              1.270              0.681
 Vibration    19          0.863              1.233              0.639
 Vibration    20          0.878              1.198              0.602
 Vibration    21          0.919              1.110              0.517
 Vibration    22          0.957              1.035              0.452
 Vibration    23          0.972              1.006              0.429

 Optimization completed.
    -- Stationary point found.
 Normal termination of Gaussian 16 at Wed Dec  9 22:55:56 2020.

 ----------------------------------------------------------------------
 # B3LYP/6-311++G(d,p) empiricaldispersion=gd3bj scf=xqc pop=npa geom=c
 heck
 ----------------------------------------------------------------------

 -----------------------------------
 CID_58396_JID_3208_Energie_neutraal
 -----------------------------------
 Structure from the checkpoint file:  "JID_3208.chk"
 Charge =  0 Multiplicity = 1

 SCF Done:  E(RB3LYP) =  -662.131250509     A.U. after   14 cycles
 Normal termination of Gaussian 16 at Wed Dec  9 22:59:23 2020.

 ----------------------------------------------------------------------
 # B3LYP/6-311++G(d,p) empiricaldispersion=gd3bj scf=xqc pop=npa geom=c
 heck
 ----------------------------------------------------------------------

 ---------------------------------
 CID_58396_JID_3208_Energie_kation
 ---------------------------------
 Structure from the checkpoint file:  "JID_3208.chk"
 Charge =  1 Multiplicity = 2

 SCF Done:  E(UB3LYP) =  -661.838373903     A.U. after   23 cycles
 Normal termination of Gaussian 16 at Wed Dec  9 23:07:19 2020.
 Gaussian 16:  ES64L-G16RevA.03 25-Dec-2016

 ----------------------------------------------------------------------
 # B3LYP/6-311++G(d,p) empiricaldispersion=gd3bj scf=xqc pop=npa geom=c
 heck
 ----------------------------------------------------------------------

 --------------------------------
 CID_58396_JID_3208_Energie_anion
 --------------------------------
 Structure from the checkpoint file:  "JID_3208.chk"
 Charge = -1 Multiplicity = 2

                         Standard orientation:
 ---------------------------------------------------------------------
 Center     Atomic      Atomic             Coordinates (Angstroms)
 Number     Number       Type             X           Y           Z
 ---------------------------------------------------------------------
      1          6           0       -2.319572   -0.233819   -0.767776
      2          6           0       -2.923836   -0.637416    0.586227
      3          8           0       -2.505714   -1.902274    1.070145
      4          7           0       -0.950089    0.272728   -0.704229
      5          6           0       -0.722065    1.698766   -0.985800
      6          6           0       -0.693585    2.613198    0.245749
      7          8           0        0.498669    2.519495    0.993742
      8          6           0        0.098924   -0.587494   -0.428506
      9          7           0        0.017621   -1.892233   -0.417283
     10          7           0        1.264184    0.090894   -0.113606
     11          6           0        2.418650   -0.523655    0.024171
     12          7           0        2.612717   -1.859008    0.041596
     13          7           0        3.533098    0.274032    0.163671
     14          1           0       -2.934644    0.566411   -1.188750
     15          1           0       -2.394185   -1.082716   -1.463155
     16          1           0       -2.720334    0.164421    1.313656
     17          1           0       -4.011144   -0.713648    0.469342
     18          1           0       -1.537846   -1.883713    1.166283
     19          1           0        0.219870    1.806657   -1.529084
     20          1           0       -1.527746    2.025297   -1.652596
     21          1           0       -0.796995    3.652646   -0.097898
     22          1           0       -1.578855    2.391241    0.868825
     23          1           0        0.865772    1.627465    0.797412
     24          1           0       -0.881647   -2.237028   -0.743694
     25          1           0        3.527074   -2.226429   -0.180047
     26          1           0        1.755548   -2.391540   -0.171994
     27          1           0        3.309281    1.252372    0.298391
     28          1           0        4.268410   -0.071582    0.766779
 ---------------------------------------------------------------------

 SCF Done:  E(UB3LYP) =  -662.122199227     A.U. after   33 cycles
 SCF Done:  E(UB3LYP) =  -662.122199227     a.u. after    1 cycles

 The electronic state is 2-A.
 Alpha  occ. eigenvalues --  -19.03010 -18.99994 -14.24269 -14.22847 -14.22349
 Alpha  occ. eigenvalues --  -14.19067 -14.17512 -10.19221 -10.17509 -10.13078
 Alpha  occ. eigenvalues --  -10.11932 -10.11644 -10.11082  -0.93509  -0.91373
 Alpha  occ. eigenvalues --   -0.90183  -0.86924  -0.79336  -0.77954  -0.74728
 Alpha  occ. eigenvalues --   -0.66975  -0.63401  -0.57368  -0.53625  -0.52090
 Alpha  occ. eigenvalues --   -0.47732  -0.45869  -0.43499  -0.42537  -0.41629
 Alpha  occ. eigenvalues --   -0.40306  -0.39554  -0.37005  -0.36401  -0.35817
 Alpha  occ. eigenvalues --   -0.34128  -0.33679  -0.32421  -0.30803  -0.30353
 Alpha  occ. eigenvalues --   -0.28735  -0.26304  -0.25638  -0.23404  -0.19895
 Alpha  occ. eigenvalues --   -0.19432  -0.17998  -0.17291  -0.16463  -0.14764
 Alpha  occ. eigenvalues --   -0.12995   0.04157
 Alpha virt. eigenvalues --    0.05373   0.07594   0.08044   0.08237   0.08955
 Alpha virt. eigenvalues --    0.09380   0.10553   0.10672   0.11389   0.11833
 Alpha virt. eigenvalues --    0.12574   0.13632   0.14261   0.14677   0.15288

  Beta  occ. eigenvalues --  -19.03005 -18.99988 -14.24267 -14.22771 -14.22290
  Beta  occ. eigenvalues --  -14.19059 -14.17497 -10.19220 -10.17508 -10.13066
  Beta  occ. eigenvalues --  -10.11908 -10.11635 -10.11065  -0.93496  -0.91356
  Beta  occ. eigenvalues --   -0.90157  -0.86892  -0.79285  -0.77868  -0.74691
  Beta  occ. eigenvalues --   -0.66941  -0.63369  -0.57324  -0.53594  -0.52009
  Beta  occ. eigenvalues --   -0.47685  -0.45778  -0.43463  -0.42502  -0.41577
  Beta  occ. eigenvalues --   -0.40261  -0.39513  -0.36946  -0.36358  -0.35774
  Beta  occ. eigenvalues --   -0.34101  -0.33653  -0.32386  -0.30776  -0.30316
  Beta  occ. eigenvalues --   -0.28712  -0.26279  -0.25618  -0.23388  -0.19866
  Beta  occ. eigenvalues --   -0.19416  -0.17935  -0.17257  -0.16444  -0.14733
  Beta  occ. eigenvalues --   -0.12966
  Beta virt. eigenvalues --    0.06408   0.07555   0.07926   0.08280   0.08601
  Beta virt. eigenvalues --    0.09587   0.09800   0.10671   0.10939   0.11486
  Beta virt. eigenvalues --    0.12380   0.12681   0.14025   0.14332   0.14661

 Mulliken charges and spin densities:
               1          2
     1  C    0.294958  -0.555673
     2  C    0.023707  -0.374035
     3  O   -0.273259  -0.005339
     4  N   -0.036755   0.066260
     5  C   -0.019614  -0.256928
     6  C   -0.029060  -0.324960
     7  O   -0.316919  -0.000471
     8  C    0.461781  -0.567008
     9  N   -0.625232   0.020744
    10  N   -0.197454  -0.149744
    11  C    0.793033  -0.560442
    12  N   -0.242284  -0.171802
    13  N   -0.487202   0.215781
    14  H   -0.336318   0.457476
    15  H    0.020036   0.161784
    16  H    0.238122  -0.079585
    17  H   -0.168901   0.337072
    18  H    0.172252   0.081414
    19  H    0.208234   0.010059
    20  H   -0.300012   0.446416
    21  H   -0.012669   0.153665
    22  H    0.031301   0.095539
    23  H    0.322471   0.025891
    24  H    0.302188  -0.034021
    25  H   -0.519746   0.806713
    26  H    0.342266   0.024419
    27  H    0.131075   0.122592
    28  H   -0.775998   1.054184
 Sum of Mulliken charges =  -1.00000   1.00000

 Dipole moment (field-independent basis, Debye):
    X=             -6.1394    Y=              1.2951    Z=             -1.5836  Tot=              6.4713
 Quadrupole moment (field-independent basis, Debye-Ang):
   XX=           -169.0513   YY=           -122.4495   ZZ=           -107.0460
   XY=              9.5019   XZ=             -9.9432   YZ=              1.7332

 Summary of Natural Population Analysis:

                                       Natural Population
                Natural  -----------------------------------------------
    Atom  No    Charge         Core      Valence    Rydberg      Total
 -----------------------------------------------------------------------
      C    1   -0.09955      0.99960     2.08794    0.01201     3.09955
      C    2   -0.01584      0.99960     2.00347    0.01277     3.01584
      O    3   -0.37500      0.99990     3.36815    0.00695     4.37500
      N    4   -0.26739      0.99964     2.75490    0.01286     3.76739
      C    5   -0.09605      0.99960     2.08562    0.01083     3.09605
      C    6   -0.01182      0.99960     1.99966    0.01256     3.01182
      O    7   -0.38942      0.99989     3.38188    0.00764     4.38942
      C    8    0.31839      0.99961     1.66306    0.01894     2.68161
      N    9   -0.43625      0.99970     2.92815    0.00840     3.93625
      N   10   -0.36436      0.99961     2.85242    0.01233     3.86436
      C   11    0.33569      0.99964     1.64819    0.01648     2.66431
      N   12   -0.39718      0.99968     2.88887    0.00863     3.89718
      N   13   -0.39185      0.99971     2.88262    0.00952     3.89185
      H   14    0.10515      0.00000     0.39253    0.00232     0.39485
      H   15    0.09388      0.00000     0.40476    0.00137     0.40612
      H   16    0.07831      0.00000     0.42026    0.00142     0.42169
      H   17    0.08558      0.00000     0.41314    0.00129     0.41442
      H   18    0.23800      0.00000     0.25879    0.00321     0.26200
      H   19    0.10684      0.00000     0.39173    0.00143     0.39316
      H   20    0.09785      0.00000     0.40073    0.00143     0.40215
      H   21    0.07929      0.00000     0.41927    0.00144     0.42071
      H   22    0.07094      0.00000     0.42729    0.00177     0.42906
      H   23    0.24450      0.00000     0.25139    0.00411     0.25550
      H   24    0.17519      0.00000     0.32264    0.00217     0.32481
      H   25    0.19909      0.00000     0.29230    0.00861     0.30091
      H   26    0.22109      0.00000     0.27662    0.00229     0.27891
      H   27    0.19588      0.00000     0.30189    0.00223     0.30412
      H   28    0.19902      0.00000     0.28058    0.02041     0.30098
 =======================================================================
   * Total *    0.00000     12.99577    37.79883    0.20540    51.00000

 Normal termination of Gaussian 16 at Wed Dec  9 23:18:33 2020.
