 Gaussian 16, Revision A.03,

 -----------------------------------------------------------
 # opt freq B3LYP/6-31G(d) empiricaldispersion=gd3bj scf=xqc
 -----------------------------------------------------------

 ------------------------------
 CID_139640628_JID_174_neutraal
 ------------------------------
 Symbolic Z-matrix:
 Charge =  0 Multiplicity = 1

 SCF Done:  E(RB3LYP) =  -1181.39606440     A.U. after   14 cycles
 SCF Done:  E(RB3LYP) =  -1181.39760619     A.U. after   13 cycles
 SCF Done:  E(RB3LYP) =  -1181.39540263     A.U. after   14 cycles
 SCF Done:  E(RB3LYP) =  -1181.40006654     A.U. after   13 cycles
 SCF Done:  E(RB3LYP) =  -1181.40091447     A.U. after   13 cycles
 SCF Done:  E(RB3LYP) =  -1181.40199482     A.U. after   15 cycles
 SCF Done:  E(RB3LYP) =  -1181.40428864     A.U. after   13 cycles
 SCF Done:  E(RB3LYP) =  -1181.40453940     A.U. after   13 cycles
 SCF Done:  E(RB3LYP) =  -1181.40497116     A.U. after   15 cycles
 SCF Done:  E(RB3LYP) =  -1181.40574022     A.U. after   13 cycles
 SCF Done:  E(RB3LYP) =  -1181.40720441     A.U. after    9 cycles
 SCF Done:  E(RB3LYP) =  -1181.40720751     A.U. after   10 cycles
 SCF Done:  E(RB3LYP) =  -1181.40720892     A.U. after    8 cycles
 SCF Done:  E(RB3LYP) =  -1181.40720943     A.U. after    8 cycles
 SCF Done:  E(RB3LYP) =  -1181.40720948     A.U. after    7 cycles
 SCF Done:  E(RB3LYP) =  -1181.40720949     A.U. after    7 cycles
 Optimization completed.
    -- Stationary point found.
 Normal termination of Gaussian 16 at Tue Dec  8 10:22:30 2020.

 --------------------------------------------------------------------
 #N Geom=AllCheck Guess=TCheck SCRF=Check GenChk RB3LYP/6-31G(d) Freq
 --------------------------------------------------------------------

 Structure from the checkpoint file:  "JID_174.chk"
 ------------------------------
 CID_139640628_JID_174_neutraal
 ------------------------------
 Charge =  0 Multiplicity = 1

 SCF Done:  E(RB3LYP) =  -1181.40720949     A.U. after    1 cycles

  Exact polarizability:  98.031   8.059 121.900  -0.352  -1.870  84.298
 Approx polarizability: 130.517  21.562 203.859  -2.466 -11.622 133.681

                      1                      2                      3
                      A                      A                      A
 Frequencies --     25.7996                39.0426                53.1303
 Red. masses --      5.4505                 5.7249                 7.6547
 Frc consts  --      0.0021                 0.0051                 0.0127
 IR Inten    --      2.9647                 0.8049                 1.2152

                      4                      5                      6
                      A                      A                      A
 Frequencies --     87.9397               114.9387               167.8021
 Red. masses --      4.1197                 5.9266                 3.4716
 Frc consts  --      0.0188                 0.0461                 0.0576
 IR Inten    --      5.0555                 0.6655                 6.4881

                      7                      8                      9
                      A                      A                      A
 Frequencies --    204.5051               212.7422               254.0881
 Red. masses --      4.9229                 4.5453                 2.1125
 Frc consts  --      0.1213                 0.1212                 0.0804
 IR Inten    --      2.5754                17.5793                18.7394

                     10                     11                     12
                      A                      A                      A
 Frequencies --    278.6772               306.7962               319.3773
 Red. masses --      1.4472                 2.9676                 9.1232
 Frc consts  --      0.0662                 0.1646                 0.5483
 IR Inten    --     83.6940                24.6418                 1.2864

                     13                     14                     15
                      A                      A                      A
 Frequencies --    336.8100               410.9877               446.7234
 Red. masses --      2.3463                 2.5569                 3.3984
 Frc consts  --      0.1568                 0.2545                 0.3996
 IR Inten    --      5.1740                 5.8102                23.9261

                     16                     17                     18
                      A                      A                      A
 Frequencies --    448.1060               489.8871               572.3948
 Red. masses --      1.4044                 2.5334                 7.0611
 Frc consts  --      0.1662                 0.3582                 1.3630
 IR Inten    --     83.1354                16.7995                 8.0034

                     19                     20                     21
                      A                      A                      A
 Frequencies --    610.7052               648.0599               687.9203
 Red. masses --      5.5019                 4.1461                 4.5024
 Frc consts  --      1.2090                 1.0259                 1.2554
 IR Inten    --      0.9373                 4.9101                 4.1233

                     22                     23                     24
                      A                      A                      A
 Frequencies --    835.4709               864.4277               932.1050
 Red. masses --      1.8331                 1.9505                 1.7922
 Frc consts  --      0.7539                 0.8587                 0.9174
 IR Inten    --      2.4858                11.6410                11.2611

                     25                     26                     27
                      A                      A                      A
 Frequencies --    946.1382              1030.6013              1064.8346
 Red. masses --      1.7932                 2.8142                 1.7693
 Frc consts  --      0.9458                 1.7611                 1.1820
 IR Inten    --     26.8607                 1.1989                 6.1616

                     28                     29                     30
                      A                      A                      A
 Frequencies --   1103.0670              1174.7151              1203.8291
 Red. masses --      3.7046                 1.0683                 1.1378
 Frc consts  --      2.6558                 0.8686                 0.9715
 IR Inten    --    105.3029                11.5640                25.8582

                     31                     32                     33
                      A                      A                      A
 Frequencies --   1212.2793              1230.0213              1246.2877
 Red. masses --      4.6603                 1.2361                 1.1465
 Frc consts  --      4.0353                 1.1018                 1.0492
 IR Inten    --    216.1623                 2.6816                 1.1023

                     34                     35                     36
                      A                      A                      A
 Frequencies --   1292.2111              1318.3203              1338.0021
 Red. masses --      1.3551                 1.2674                 1.2436
 Frc consts  --      1.3332                 1.2978                 1.3117
 IR Inten    --     39.2206                 7.4768                25.6055

                     37                     38                     39
                      A                      A                      A
 Frequencies --   1346.8423              1397.8776              1443.7611
 Red. masses --      1.2626                 1.2097                 1.2459
 Frc consts  --      1.3495                 1.3927                 1.5301
 IR Inten    --     13.3089                13.4174                90.2211

                     40                     41                     42
                      A                      A                      A
 Frequencies --   1474.7010              1479.8616              1482.8984
 Red. masses --      1.0837                 1.0998                 1.0882
 Frc consts  --      1.3886                 1.4191                 1.4099
 IR Inten    --     10.0822                 8.7047                 3.5033

                     43                     44                     45
                      A                      A                      A
 Frequencies --   1539.7780              2343.5231              2989.0900
 Red. masses --      1.0908                11.6196                 1.0719
 Frc consts  --      1.5238                37.5992                 5.6429
 IR Inten    --      1.5410               140.5048                57.1643

                     46                     47                     48
                      A                      A                      A
 Frequencies --   3060.6378              3071.1499              3079.2127
 Red. masses --      1.0631                 1.0635                 1.0725
 Frc consts  --      5.8675                 5.9101                 5.9913
 IR Inten    --      5.3254                35.7671                 6.3233

                     49                     50                     51
                      A                      A                      A
 Frequencies --   3091.5341              3119.5209              3146.9602
 Red. masses --      1.0818                 1.1026                 1.1010
 Frc consts  --      6.0916                 6.3220                 6.4243
 IR Inten    --     38.2444                 3.5129                 3.5554

                     52                     53                     54
                      A                      A                      A
 Frequencies --   3158.5585              3667.3127              3673.3546
 Red. masses --      1.1013                 1.0665                 1.0650
 Frc consts  --      6.4732                 8.4513                 8.4672
 IR Inten    --      4.0695                56.5256                31.0158

 - Thermochemistry -
 -------------------
 Temperature   298.150 Kelvin.  Pressure   1.00000 Atm.
 Atom     1 has atomic number  6 and mass  12.00000

 Molecular mass:   178.01222 amu.
 Principal axes and moments of inertia in atomic units:
                           1         2         3
     Eigenvalues --  1571.889423127.660123831.70012
           X            0.99990   0.00287  -0.01418
           Y           -0.00232   0.99927   0.03807
           Z            0.01428  -0.03804   0.99917
 This molecule is an asymmetric top.
 Rotational symmetry number  1.
 Warning -- assumption of classical behavior for rotation
           may cause significant error
 Rotational temperatures (Kelvin)      0.05510     0.02769     0.02260
 Rotational constants (GHZ):           1.14813     0.57703     0.47100
 Zero-point vibrational energy     407180.8 (Joules/Mol)
                                   97.31855 (Kcal/Mol)
 Warning -- explicit consideration of  19 degrees of freedom as
           vibrations may cause significant error
 Vibrational temperatures:     37.12    56.17    76.44   126.53   165.37
          (Kelvin)            241.43   294.24   306.09   365.58   400.95
                              441.41   459.51   484.59   591.32   642.74
                              644.72   704.84   823.55   878.67   932.41
                              989.76  1202.06  1243.72  1341.09  1361.28
                             1482.81  1532.06  1587.07  1690.15  1732.04
                             1744.20  1769.73  1793.13  1859.20  1896.77
                             1925.09  1937.81  2011.23  2077.25  2121.77
                             2129.19  2133.56  2215.40  3371.81  4300.63
                             4403.58  4418.70  4430.30  4448.03  4488.29
                             4527.77  4544.46  5276.45  5285.14

 Zero-point correction=                           0.155087 (Hartree/Particle)
 Thermal correction to Energy=                    0.167887
 Thermal correction to Enthalpy=                  0.168831
 Thermal correction to Gibbs Free Energy=         0.113944
 Sum of electronic and zero-point Energies=          -1181.252123
 Sum of electronic and thermal Energies=             -1181.239323
 Sum of electronic and thermal Enthalpies=           -1181.238378
 Sum of electronic and thermal Free Energies=        -1181.293266

                     E (Thermal)             CV                S
                      KCal/Mol        Cal/Mol-Kelvin    Cal/Mol-Kelvin
 Total                  105.351             44.057            115.520
 Electronic               0.000              0.000              0.000
 Translational            0.889              2.981             41.437
 Rotational               0.889              2.981             31.311
 Vibrational            103.573             38.096             42.773
 Vibration     1          0.593              1.985              6.129
 Vibration     2          0.594              1.981              5.307
 Vibration     3          0.596              1.976              4.697
 Vibration     4          0.601              1.958              3.705
 Vibration     5          0.608              1.937              3.184
 Vibration     6          0.625              1.882              2.460
 Vibration     7          0.640              1.833              2.092
 Vibration     8          0.644              1.821              2.020
 Vibration     9          0.665              1.756              1.702
 Vibration    10          0.679              1.713              1.542
 Vibration    11          0.697              1.661              1.380
 Vibration    12          0.705              1.637              1.313
 Vibration    13          0.718              1.602              1.227
 Vibration    14          0.775              1.446              0.923
 Vibration    15          0.806              1.368              0.806
 Vibration    16          0.807              1.365              0.802
 Vibration    17          0.846              1.272              0.684
 Vibration    18          0.929              1.091              0.500
 Vibration    19          0.970              1.009              0.432

 Optimization completed.
    -- Stationary point found.
 Normal termination of Gaussian 16 at Tue Dec  8 10:25:30 2020.

 ----------------------------------------------------------------------
 # B3LYP/6-311++G(d,p) empiricaldispersion=gd3bj scf=xqc pop=npa geom=c
 heck
 ----------------------------------------------------------------------

 --------------------------------------
 CID_139640628_JID_174_Energie_neutraal
 --------------------------------------
 Structure from the checkpoint file:  "JID_174.chk"
 Charge =  0 Multiplicity = 1

 SCF Done:  E(RB3LYP) =  -1181.59521067     A.U. after   15 cycles
 Normal termination of Gaussian 16 at Tue Dec  8 10:26:57 2020.

 ----------------------------------------------------------------------
 # B3LYP/6-311++G(d,p) empiricaldispersion=gd3bj scf=xqc pop=npa geom=c
 heck
 ----------------------------------------------------------------------

 ------------------------------------
 CID_139640628_JID_174_Energie_kation
 ------------------------------------
 Structure from the checkpoint file:  "JID_174.chk"
 Charge =  1 Multiplicity = 2

 SCF Done:  E(UB3LYP) =  -1181.29764331     A.U. after   25 cycles
 Normal termination of Gaussian 16 at Tue Dec  8 10:30:19 2020.
 Gaussian 16:  ES64L-G16RevA.03 25-Dec-2016

 ----------------------------------------------------------------------
 # B3LYP/6-311++G(d,p) empiricaldispersion=gd3bj scf=xqc pop=npa geom=c
 heck
 ----------------------------------------------------------------------

 -----------------------------------
 CID_139640628_JID_174_Energie_anion
 -----------------------------------
 Structure from the checkpoint file:  "JID_174.chk"
 Charge = -1 Multiplicity = 2

                         Standard orientation:
 ---------------------------------------------------------------------
 Center     Atomic      Atomic             Coordinates (Angstroms)
 Number     Number       Type             X           Y           Z
 ---------------------------------------------------------------------
      1          6           0       -2.475961    0.680386    1.131541
      2          6           0       -1.219038    0.998586    0.324239
      3         16           0       -1.106538    0.023654   -1.233842
      4          6           0       -0.758795   -1.676972   -0.631674
      5          6           0        0.713103   -2.056218   -0.485929
      6         16           0        1.591122   -1.316349    0.964128
      7          6           0        2.135754    0.161717    0.359395
      8          6           0        2.510679    1.251127   -0.019917
      9          8           0        3.031673    2.368725   -0.469627
     10          8           0       -3.663988    0.912229    0.402687
     11          1           0       -2.513340    1.339729    2.006220
     12          1           0       -2.426445   -0.354030    1.510960
     13          1           0       -1.262819    2.037460   -0.019365
     14          1           0       -0.309279    0.865549    0.912381
     15          1           0       -1.296625   -1.846372    0.305717
     16          1           0       -1.210352   -2.334204   -1.383867
     17          1           0        0.787165   -3.137314   -0.317586
     18          1           0        1.284531   -1.809307   -1.383285
     19          1           0        2.378424    3.087946   -0.406603
     20          1           0       -3.560532    0.434273   -0.439561
 ---------------------------------------------------------------------

 SCF Done:  E(UB3LYP) =  -1181.58953235     A.U. after   32 cycles

 The electronic state is 2-A.
 Alpha  occ. eigenvalues --  -88.76854 -88.74454 -19.07452 -19.02735 -10.12571
 Alpha  occ. eigenvalues --  -10.11807 -10.11126 -10.11103 -10.09595 -10.06859
 Alpha  occ. eigenvalues --   -7.85330  -7.83057  -5.81754  -5.81335  -5.80721
 Alpha  occ. eigenvalues --   -5.79451  -5.79067  -5.78444  -0.98195  -0.93180
 Alpha  occ. eigenvalues --   -0.73595  -0.69665  -0.66108  -0.61850  -0.58165
 Alpha  occ. eigenvalues --   -0.53109  -0.49537  -0.47847  -0.41603  -0.39199
 Alpha  occ. eigenvalues --   -0.37160  -0.35447  -0.34985  -0.34530  -0.32266
 Alpha  occ. eigenvalues --   -0.31276  -0.30971  -0.30181  -0.26226  -0.24933
 Alpha  occ. eigenvalues --   -0.24162  -0.21643  -0.20753  -0.18718  -0.14791
 Alpha  occ. eigenvalues --   -0.13106  -0.11518   0.04287
 Alpha virt. eigenvalues --    0.05665   0.08083   0.08527   0.09673   0.10115
 Alpha virt. eigenvalues --    0.10301   0.10644   0.12107   0.12679   0.12868
 Alpha virt. eigenvalues --    0.12995   0.14536   0.14571   0.15466   0.16002

  Beta  occ. eigenvalues --  -88.76851 -88.74451 -19.07313 -19.02727 -10.12562
  Beta  occ. eigenvalues --  -10.11791 -10.11100 -10.11077 -10.09572 -10.06849
  Beta  occ. eigenvalues --   -7.85328  -7.83053  -5.81752  -5.81330  -5.80719
  Beta  occ. eigenvalues --   -5.79449  -5.79059  -5.78442  -0.97892  -0.93162
  Beta  occ. eigenvalues --   -0.73565  -0.69635  -0.66059  -0.61772  -0.58114
  Beta  occ. eigenvalues --   -0.53035  -0.49310  -0.47778  -0.41574  -0.39176
  Beta  occ. eigenvalues --   -0.37123  -0.35392  -0.34864  -0.34488  -0.32228
  Beta  occ. eigenvalues --   -0.31223  -0.30885  -0.30107  -0.26200  -0.24896
  Beta  occ. eigenvalues --   -0.24140  -0.21619  -0.20721  -0.18700  -0.14753
  Beta  occ. eigenvalues --   -0.13066  -0.11465
  Beta virt. eigenvalues --    0.06596   0.08069   0.08470   0.08769   0.09950
  Beta virt. eigenvalues --    0.10312   0.10587   0.10914   0.12238   0.12786
  Beta virt. eigenvalues --    0.12966   0.13241   0.14656   0.14936   0.15585

 Mulliken charges and spin densities:
               1          2
     1  C   -0.187857  -0.364889
     2  C   -0.015925  -0.366824
     3  S    0.063380   0.210319
     4  C   -0.018013  -0.064250
     5  C    0.107712  -0.860529
     6  S    0.494203  -1.001448
     7  C    4.876478  -4.373995
     8  C   -4.418448   4.450717
     9  O   -0.262880  -0.009190
    10  O   -0.230890   0.020903
    11  H    0.010397   0.155337
    12  H    0.062651   0.094427
    13  H   -0.088864   0.345946
    14  H    0.008823   0.117083
    15  H    0.036717   0.070426
    16  H   -0.370346   0.583505
    17  H   -0.357729   0.550204
    18  H    0.017368   0.169508
    19  H   -0.896992   1.236056
    20  H    0.170214   0.036694
 Sum of Mulliken charges =  -1.00000   1.00000

 Dipole moment (field-independent basis, Debye):
    X=             -2.6558    Y=             -5.1659    Z=              1.4533  Tot=              5.9877
 Quadrupole moment (field-independent basis, Debye-Ang):
   XX=           -125.3016   YY=           -138.0088   ZZ=            -96.1730
   XY=            -10.2854   XZ=              1.1547   YZ=             -0.0885

 Summary of Natural Population Analysis:

                                       Natural Population
                Natural  -----------------------------------------------
    Atom  No    Charge         Core      Valence    Rydberg      Total
 -----------------------------------------------------------------------
      C    1   -0.01431      0.99959     2.00303    0.01169     3.01431
      C    2   -0.26605      0.99959     2.25462    0.01184     3.26605
      S    3    0.08235      4.99963     2.89968    0.01834     7.91765
      C    4   -0.26344      0.99956     2.24977    0.01411     3.26344
      C    5   -0.25064      0.99956     2.23821    0.01287     3.25064
      S    6    0.13618      4.99948     2.84052    0.02382     7.86382
      C    7   -0.21773      0.99900     2.21056    0.00818     3.21773
      C    8    0.17534      0.99889     1.81390    0.01188     2.82466
      O    9   -0.31838      0.99986     3.31055    0.00798     4.31838
      O   10   -0.37388      0.99990     3.36667    0.00731     4.37388
      H   11    0.08865      0.00000     0.40995    0.00140     0.41135
      H   12    0.07286      0.00000     0.42544    0.00170     0.42714
      H   13    0.11213      0.00000     0.38599    0.00188     0.38787
      H   14    0.11621      0.00000     0.38210    0.00169     0.38379
      H   15    0.10359      0.00000     0.39458    0.00183     0.39641
      H   16    0.11016      0.00000     0.38766    0.00218     0.38984
      H   17    0.10686      0.00000     0.39071    0.00243     0.39314
      H   18    0.11013      0.00000     0.38849    0.00138     0.38987
      H   19    0.25978      0.00000     0.17706    0.06317     0.24022
      H   20    0.23020      0.00000     0.26588    0.00392     0.26980
 =======================================================================
   * Total *    0.00000     17.99504    28.79536    0.20960    47.00000

 Normal termination of Gaussian 16 at Tue Dec  8 10:37:26 2020.
