 Gaussian 16, Revision A.03,

 -----------------------------------------------------------
 # opt freq B3LYP/6-31G(d) empiricaldispersion=gd3bj scf=xqc
 -----------------------------------------------------------

 ------------------------------
 CID_88982909_JID_4260_neutraal
 ------------------------------
 Symbolic Z-matrix:
 Charge =  0 Multiplicity = 1

 SCF Done:  E(RB3LYP) =  -608.697858322     A.U. after   16 cycles
 SCF Done:  E(RB3LYP) =  -608.719739190     A.U. after   13 cycles
 SCF Done:  E(RB3LYP) =  -608.720244617     A.U. after   12 cycles
 SCF Done:  E(RB3LYP) =  -608.720347467     A.U. after   12 cycles
 SCF Done:  E(RB3LYP) =  -608.720407425     A.U. after   12 cycles
 SCF Done:  E(RB3LYP) =  -608.720480993     A.U. after   12 cycles
 SCF Done:  E(RB3LYP) =  -608.720603662     A.U. after   13 cycles
 SCF Done:  E(RB3LYP) =  -608.720680356     A.U. after   15 cycles
 SCF Done:  E(RB3LYP) =  -608.720883385     A.U. after   11 cycles
 SCF Done:  E(RB3LYP) =  -608.721509249     A.U. after   15 cycles
 SCF Done:  E(RB3LYP) =  -608.722244478     A.U. after   11 cycles
 SCF Done:  E(RB3LYP) =  -608.722246103     A.U. after   11 cycles
 SCF Done:  E(RB3LYP) =  -608.722246198     A.U. after    9 cycles
 SCF Done:  E(RB3LYP) =  -608.722246228     A.U. after    8 cycles
 SCF Done:  E(RB3LYP) =  -608.722246231     A.U. after    7 cycles
 Optimization completed.
    -- Stationary point found.
 Normal termination of Gaussian 16 at Thu Dec 10 09:27:43 2020.

 --------------------------------------------------------------------
 #N Geom=AllCheck Guess=TCheck SCRF=Check GenChk RB3LYP/6-31G(d) Freq
 --------------------------------------------------------------------

 Structure from the checkpoint file:  "JID_4260.chk"
 ------------------------------
 CID_88982909_JID_4260_neutraal
 ------------------------------
 Charge =  0 Multiplicity = 1

 SCF Done:  E(RB3LYP) =  -608.722246231     A.U. after    1 cycles

  Exact polarizability: 152.940  -7.405 147.345   0.001   0.001  54.299
 Approx polarizability: 231.222 -16.240 249.124   0.002   0.002  83.873

                      1                      2                      3
                      A                      A                      A
 Frequencies --     13.0611                16.9648                94.2490
 Red. masses --      4.2909                 4.2931                10.9721
 Frc consts  --      0.0004                 0.0007                 0.0574
 IR Inten    --      9.0546                 9.3290                 7.4486

                      4                      5                      6
                      A                      A                      A
 Frequencies --    105.8858               115.2549               171.2464
 Red. masses --      5.1029                10.4208                 2.6434
 Frc consts  --      0.0337                 0.0816                 0.0457
 IR Inten    --      0.6346                 6.2494                15.6556

                      7                      8                      9
                      A                      A                      A
 Frequencies --    178.7277               206.1679               247.6249
 Red. masses --      8.8688                 3.0862                 7.6060
 Frc consts  --      0.1669                 0.0773                 0.2748
 IR Inten    --      1.5853                 0.3785                 5.6863

                     10                     11                     12
                      A                      A                      A
 Frequencies --    257.0319               362.8152               364.3295
 Red. masses --      2.5963                 3.4863                 3.6032
 Frc consts  --      0.1011                 0.2704                 0.2818
 IR Inten    --      3.7769                 0.0649                 1.2503

                     13                     14                     15
                      A                      A                      A
 Frequencies --    372.9726               439.7644               449.1263
 Red. masses --      7.5970                 8.0352                 7.9237
 Frc consts  --      0.6227                 0.9156                 0.9417
 IR Inten    --      5.5849                 0.5645                 3.8403

                     16                     17                     18
                      A                      A                      A
 Frequencies --    465.6122               513.5002               515.0559
 Red. masses --      5.4446                 3.8716                 3.5239
 Frc consts  --      0.6955                 0.6015                 0.5508
 IR Inten    --      1.8120                 0.4955                 0.0319

                     19                     20                     21
                      A                      A                      A
 Frequencies --    630.8929               650.1960               696.1778
 Red. masses --      6.4658                 6.4613                 2.6565
 Frc consts  --      1.5163                 1.6094                 0.7586
 IR Inten    --      1.8389                19.3579                 7.0261

                     22                     23                     24
                      A                      A                      A
 Frequencies --    758.6834               868.3901               915.3686
 Red. masses --      4.8906                 1.3804                 1.4063
 Frc consts  --      1.6586                 0.6133                 0.6943
 IR Inten    --     23.0641                12.8518                 0.1424

                     25                     26                     27
                      A                      A                      A
 Frequencies --    919.5009               939.5821               945.5216
 Red. masses --      6.5129                 1.3364                 5.2080
 Frc consts  --      3.2443                 0.6951                 2.7433
 IR Inten    --      2.0854                 2.7683                 5.9967

                     28                     29                     30
                      A                      A                      A
 Frequencies --    978.7253               986.8700               998.5039
 Red. masses --      1.8347                 1.9074                 3.6475
 Frc consts  --      1.0355                 1.0945                 2.1426
 IR Inten    --      0.0000                11.1599                 7.2951

                     31                     32                     33
                      A                      A                      A
 Frequencies --   1017.0023              1027.1373              1035.3629
 Red. masses --      3.6696                 5.0439                 1.8125
 Frc consts  --      2.2362                 3.1353                 1.1448
 IR Inten    --      5.4454                 4.5489                 0.7651

                     34                     35                     36
                      A                      A                      A
 Frequencies --   1173.6378              1202.6219              1250.0309
 Red. masses --      1.4704                 1.4409                 1.0923
 Frc consts  --      1.1933                 1.2278                 1.0056
 IR Inten    --     41.3018                 7.4348                 0.0026

                     37                     38                     39
                      A                      A                      A
 Frequencies --   1251.4385              1276.0248              1327.1926
 Red. masses --      1.0915                 2.1661                 2.3195
 Frc consts  --      1.0071                 2.0780                 2.4072
 IR Inten    --      0.0040                26.3619                19.9570

                     40                     41                     42
                      A                      A                      A
 Frequencies --   1334.5050              1355.0206              1386.5039
 Red. masses --      1.7098                 1.6678                 3.2065
 Frc consts  --      1.7941                 1.8042                 3.6318
 IR Inten    --     23.2821                 0.8820                19.1018

                     43                     44                     45
                      A                      A                      A
 Frequencies --   1434.6097              1486.4354              1488.5934
 Red. masses --      1.3663                 1.1881                 1.1002
 Frc consts  --      1.6567                 1.5467                 1.4364
 IR Inten    --     16.7169                11.4742                 1.3467

                     46                     47                     48
                      A                      A                      A
 Frequencies --   1501.9998              1511.5553              1658.5703
 Red. masses --      2.5447                 2.7795                 5.8572
 Frc consts  --      3.3824                 3.7416                 9.4932
 IR Inten    --      6.0226                25.3471                15.7871

                     49                     50                     51
                      A                      A                      A
 Frequencies --   1666.6764              1803.9492              2376.6865
 Red. masses --      5.3208                 9.8336                12.6159
 Frc consts  --      8.7083                18.8543                41.9867
 IR Inten    --     27.9715               225.8747                 5.8996

                     52                     53                     54
                      A                      A                      A
 Frequencies --   2377.8094              2932.2657              3050.3716
 Red. masses --     12.6171                 1.0850                 1.0594
 Frc consts  --     42.0304                 5.4967                 5.8079
 IR Inten    --      5.4062               112.3494                 2.1217

                     55                     56                     57
                      A                      A                      A
 Frequencies --   3052.1559              3082.3087              3084.4230
 Red. masses --      1.0594                 1.1020                 1.1020
 Frc consts  --      5.8149                 6.1685                 6.1772
 IR Inten    --      2.0212                 0.9431                 0.8626

                     58                     59                     60
                      A                      A                      A
 Frequencies --   3193.6111              3196.5393              3205.1010
 Red. masses --      1.0904                 1.0905                 1.0906
 Frc consts  --      6.5524                 6.5649                 6.6008
 IR Inten    --      0.7891                 0.3420                 1.5508

 - Thermochemistry -
 -------------------
 Temperature   298.150 Kelvin.  Pressure   1.00000 Atm.
 Atom     1 has atomic number  6 and mass  12.00000

 Molecular mass:   184.06366 amu.
 Principal axes and moments of inertia in atomic units:
                           1         2         3
     Eigenvalues --  2489.499923518.173335985.50343
           X            0.99982   0.01872   0.00000
           Y           -0.01872   0.99982  -0.00000
           Z           -0.00000   0.00000   1.00000
 This molecule is an asymmetric top.
 Rotational symmetry number  1.
 Warning -- assumption of classical behavior for rotation
           may cause significant error
 Rotational temperatures (Kelvin)      0.03479     0.02462     0.01447
 Rotational constants (GHZ):           0.72494     0.51298     0.30152
 Zero-point vibrational energy     430164.8 (Joules/Mol)
                                  102.81186 (Kcal/Mol)
 Warning -- explicit consideration of  18 degrees of freedom as
           vibrations may cause significant error
 Vibrational temperatures:     18.79    24.41   135.60   152.35   165.83
          (Kelvin)            246.39   257.15   296.63   356.28   369.81
                              522.01   524.19   536.62   632.72   646.19
                              669.91   738.81   741.05   907.71   935.49
                             1001.64  1091.58  1249.42  1317.01  1322.96
                             1351.85  1360.39  1408.17  1419.89  1436.62
                             1463.24  1477.82  1489.66  1688.60  1730.30
                             1798.52  1800.54  1835.92  1909.53  1920.06
                             1949.57  1994.87  2064.08  2138.65  2141.75
                             2161.04  2174.79  2386.31  2397.98  2595.48
                             3419.52  3421.14  4218.88  4388.80  4391.37
                             4434.75  4437.80  4594.89  4599.11  4611.43

 Zero-point correction=                           0.163841 (Hartree/Particle)
 Thermal correction to Energy=                    0.176731
 Thermal correction to Enthalpy=                  0.177676
 Thermal correction to Gibbs Free Energy=         0.121397
 Sum of electronic and zero-point Energies=           -608.558405
 Sum of electronic and thermal Energies=              -608.545515
 Sum of electronic and thermal Enthalpies=            -608.544571
 Sum of electronic and thermal Free Energies=         -608.600849

                     E (Thermal)             CV                S
                      KCal/Mol        Cal/Mol-Kelvin    Cal/Mol-Kelvin
 Total                  110.901             46.002            118.449
 Electronic               0.000              0.000              0.000
 Translational            0.889              2.981             41.537
 Rotational               0.889              2.981             32.328
 Vibrational            109.123             40.040             44.584
 Vibration     1          0.593              1.987              7.480
 Vibration     2          0.593              1.986              6.961
 Vibration     3          0.603              1.953              3.570
 Vibration     4          0.605              1.945              3.343
 Vibration     5          0.608              1.937              3.178
 Vibration     6          0.626              1.878              2.422
 Vibration     7          0.629              1.868              2.342
 Vibration     8          0.641              1.831              2.077
 Vibration     9          0.661              1.767              1.747
 Vibration    10          0.667              1.751              1.682
 Vibration    11          0.737              1.549              1.110
 Vibration    12          0.738              1.546              1.104
 Vibration    13          0.744              1.528              1.068
 Vibration    14          0.800              1.383              0.827
 Vibration    15          0.808              1.363              0.798
 Vibration    16          0.823              1.326              0.750
 Vibration    17          0.869              1.220              0.625
 Vibration    18          0.870              1.217              0.622

 Optimization completed.
    -- Stationary point found.
 Normal termination of Gaussian 16 at Thu Dec 10 09:32:49 2020.

 ----------------------------------------------------------------------
 # B3LYP/6-311++G(d,p) empiricaldispersion=gd3bj scf=xqc pop=npa geom=c
 heck
 ----------------------------------------------------------------------

 --------------------------------------
 CID_88982909_JID_4260_Energie_neutraal
 --------------------------------------
 Structure from the checkpoint file:  "JID_4260.chk"
 Charge =  0 Multiplicity = 1

 SCF Done:  E(RB3LYP) =  -608.887087958     A.U. after   15 cycles
 Normal termination of Gaussian 16 at Thu Dec 10 09:35:01 2020.

 ----------------------------------------------------------------------
 # B3LYP/6-311++G(d,p) empiricaldispersion=gd3bj scf=xqc pop=npa geom=c
 heck
 ----------------------------------------------------------------------

 ------------------------------------
 CID_88982909_JID_4260_Energie_kation
 ------------------------------------
 Structure from the checkpoint file:  "JID_4260.chk"
 Charge =  1 Multiplicity = 2

 SCF Done:  E(UB3LYP) =  -608.528642914     A.U. after   33 cycles
 SCF Done:  E(UB3LYP) =  -608.528642914     a.u. after    1 cycles
 Normal termination of Gaussian 16 at Thu Dec 10 09:41:39 2020.
 Gaussian 16:  ES64L-G16RevA.03 25-Dec-2016

 ----------------------------------------------------------------------
 # B3LYP/6-311++G(d,p) empiricaldispersion=gd3bj scf=xqc pop=npa geom=c
 heck
 ----------------------------------------------------------------------

 -----------------------------------
 CID_88982909_JID_4260_Energie_anion
 -----------------------------------
 Structure from the checkpoint file:  "JID_4260.chk"
 Charge = -1 Multiplicity = 2

                         Standard orientation:
 ---------------------------------------------------------------------
 Center     Atomic      Atomic             Coordinates (Angstroms)
 Number     Number       Type             X           Y           Z
 ---------------------------------------------------------------------
      1          6           0        0.721510   -0.874105    0.000101
      2          6           0        1.403880    0.344602    0.000103
      3          6           0        0.674147    1.532636    0.000038
      4          6           0       -0.721892    1.496191   -0.000008
      5          6           0       -1.398213    0.270373   -0.000009
      6          6           0       -0.677878   -0.920932    0.000039
      7          6           0       -1.350020   -2.288533    0.000037
      8          6           0       -2.812181   -2.231041   -0.000003
      9          7           0       -3.970024   -2.159422   -0.000035
     10          6           0       -1.492022    2.763293   -0.000069
     11          8           0       -0.986785    3.868415   -0.000087
     12          6           0        2.926265    0.423832    0.000182
     13          6           0        3.591266   -0.879684   -0.000056
     14          7           0        4.091266   -1.926557   -0.000276
     15          1           0        1.287708   -1.801824    0.000150
     16          1           0        1.165492    2.501589    0.000025
     17          1           0       -2.484911    0.254244   -0.000051
     18          1           0       -1.028480   -2.864144   -0.877424
     19          1           0       -1.028522   -2.864147    0.877512
     20          1           0       -2.595963    2.637507   -0.000105
     21          1           0        3.270578    0.985943   -0.877207
     22          1           0        3.270508    0.985573    0.877835
 ---------------------------------------------------------------------

 SCF Done:  E(UB3LYP) =  -608.923247815     A.U. after   22 cycles

 The electronic state is 2-A.
 Alpha  occ. eigenvalues --  -18.93454 -14.21730 -14.21453 -10.11944 -10.11897
 Alpha  occ. eigenvalues --  -10.11633 -10.11583 -10.07061 -10.06852 -10.06262
 Alpha  occ. eigenvalues --  -10.04280 -10.03655 -10.02882 -10.02596  -0.87243
 Alpha  occ. eigenvalues --   -0.81627  -0.81306  -0.74447  -0.70292  -0.66983
 Alpha  occ. eigenvalues --   -0.61338  -0.59458  -0.50949  -0.47985  -0.44091
 Alpha  occ. eigenvalues --   -0.40326  -0.39268  -0.37926  -0.36823  -0.36391
 Alpha  occ. eigenvalues --   -0.34511  -0.31484  -0.31271  -0.29539  -0.27607
 Alpha  occ. eigenvalues --   -0.27306  -0.26583  -0.25789  -0.24227  -0.23969
 Alpha  occ. eigenvalues --   -0.23844  -0.23743  -0.22679  -0.21808  -0.21515
 Alpha  occ. eigenvalues --   -0.13133  -0.12626  -0.09493   0.02698
 Alpha virt. eigenvalues --    0.07807   0.08390   0.09585   0.10257   0.10871
 Alpha virt. eigenvalues --    0.11353   0.11826   0.11831   0.12439   0.12807
 Alpha virt. eigenvalues --    0.12832   0.13446   0.13893   0.14772   0.15229

  Beta  occ. eigenvalues --  -18.92904 -14.21702 -14.21442 -10.11938 -10.11900
  Beta  occ. eigenvalues --  -10.11640 -10.11584 -10.06953 -10.06787 -10.06223
  Beta  occ. eigenvalues --  -10.04232 -10.03320 -10.02618 -10.02438  -0.86245
  Beta  occ. eigenvalues --   -0.81589  -0.81288  -0.74172  -0.70224  -0.66777
  Beta  occ. eigenvalues --   -0.60815  -0.59128  -0.50068  -0.47882  -0.43775
  Beta  occ. eigenvalues --   -0.40105  -0.39201  -0.37599  -0.36783  -0.36305
  Beta  occ. eigenvalues --   -0.34236  -0.31413  -0.31055  -0.29282  -0.27532
  Beta  occ. eigenvalues --   -0.27186  -0.26197  -0.24627  -0.24166  -0.23755
  Beta  occ. eigenvalues --   -0.23732  -0.23052  -0.22515  -0.21660  -0.19683
  Beta  occ. eigenvalues --   -0.12219  -0.10612  -0.08983
  Beta virt. eigenvalues --    0.07776   0.08355   0.08639   0.09676   0.10838
  Beta virt. eigenvalues --    0.10843   0.11348   0.11823   0.12051   0.12425
  Beta virt. eigenvalues --    0.12813   0.13128   0.13663   0.13836   0.14730

 Mulliken charges and spin densities:
               1          2
     1  C   -0.973006   0.314291
     2  C    1.355527  -0.044391
     3  C   -0.028592   0.234184
     4  C    0.628776   0.092476
     5  C   -1.200332   0.004928
     6  C    0.699112   0.006832
     7  C   -0.293234  -0.012589
     8  C   -0.422578  -0.000738
     9  N   -0.295718   0.005600
    10  C   -0.114603   0.211881
    11  O   -0.379953   0.190043
    12  C   -0.205128   0.007437
    13  C   -0.450244  -0.001856
    14  N   -0.306568   0.011814
    15  H    0.065675  -0.027278
    16  H    0.143664  -0.018741
    17  H    0.043591  -0.003870
    18  H    0.160500   0.022042
    19  H    0.160483   0.022050
    20  H    0.056746  -0.016706
    21  H    0.177921   0.001301
    22  H    0.177964   0.001288
 Sum of Mulliken charges =  -1.00000   1.00000

 Dipole moment (field-independent basis, Debye):
    X=              3.2681    Y=             -3.7908    Z=              0.0008  Tot=              5.0050
 Quadrupole moment (field-independent basis, Debye-Ang):
   XX=           -130.3151   YY=           -130.0351   ZZ=            -86.9239
   XY=             13.7469   XZ=              0.0024   YZ=             -0.0005

 Summary of Natural Population Analysis:

                                       Natural Population
                Natural  -----------------------------------------------
    Atom  No    Charge         Core      Valence    Rydberg      Total
 -----------------------------------------------------------------------
      C    1   -0.04440      0.99947     2.03603    0.00891     3.04440
      C    2   -0.04010      0.99950     2.03262    0.00798     3.04010
      C    3   -0.03231      0.99947     2.02410    0.00873     3.03231
      C    4   -0.03664      0.99949     2.02790    0.00924     3.03664
      C    5   -0.07931      0.99948     2.07306    0.00677     3.07931
      C    6   -0.02263      0.99950     2.01352    0.00961     3.02263
      C    7   -0.24865      0.99952     2.24260    0.00654     3.24865
      C    8    0.16603      0.99968     1.81640    0.01790     2.83397
      N    9   -0.19149      0.99979     2.68073    0.01098     3.69149
      C   10    0.24019      0.99969     1.73932    0.02080     2.75981
      O   11   -0.24244      0.99988     3.23476    0.00780     4.24244
      C   12   -0.24776      0.99951     2.24188    0.00637     3.24776
      C   13    0.16403      0.99968     1.81802    0.01827     2.83597
      N   14   -0.19074      0.99979     2.67988    0.01108     3.69074
      H   15    0.09396      0.00000     0.40458    0.00146     0.40604
      H   16    0.10070      0.00000     0.39755    0.00176     0.39930
      H   17    0.09960      0.00000     0.39856    0.00184     0.40040
      H   18    0.12062      0.00000     0.37814    0.00124     0.37938
      H   19    0.12062      0.00000     0.37814    0.00124     0.37938
      H   20    0.03066      0.00000     0.46656    0.00278     0.46934
      H   21    0.12004      0.00000     0.37875    0.00122     0.37996
      H   22    0.12004      0.00000     0.37875    0.00122     0.37996
 =======================================================================
   * Total *    0.00000     13.99445    33.84185    0.16370    48.00000

 Normal termination of Gaussian 16 at Thu Dec 10 09:46:22 2020.
