 Gaussian 16, Revision A.03,

 -----------------------------------------------------------
 # opt freq B3LYP/6-31G(d) empiricaldispersion=gd3bj scf=xqc
 -----------------------------------------------------------

 ------------------------------
 CID_10374972_JID_3532_neutraal
 ------------------------------
 Symbolic Z-matrix:
 Charge =  0 Multiplicity = 1

 SCF Done:  E(RB3LYP) =  -627.625295391     A.U. after   15 cycles
 SCF Done:  E(RB3LYP) =  -627.628472784     A.U. after   12 cycles
 SCF Done:  E(RB3LYP) =  -627.628684027     A.U. after   11 cycles
 SCF Done:  E(RB3LYP) =  -627.628715987     A.U. after   10 cycles
 SCF Done:  E(RB3LYP) =  -627.628718911     A.U. after    9 cycles
 SCF Done:  E(RB3LYP) =  -627.628718276     A.U. after   10 cycles
 SCF Done:  E(RB3LYP) =  -627.628720570     A.U. after    9 cycles
 Optimization completed.
    -- Stationary point found.
 Normal termination of Gaussian 16 at Wed Dec  9 23:30:42 2020.

 --------------------------------------------------------------------
 #N Geom=AllCheck Guess=TCheck SCRF=Check GenChk RB3LYP/6-31G(d) Freq
 --------------------------------------------------------------------

 Structure from the checkpoint file:  "JID_3532.chk"
 ------------------------------
 CID_10374972_JID_3532_neutraal
 ------------------------------
 Charge =  0 Multiplicity = 1

 SCF Done:  E(RB3LYP) =  -627.628720570     A.U. after    1 cycles

  Exact polarizability: 182.517  -2.592 106.204  -0.006  -0.002  44.257
 Approx polarizability: 292.852 -20.852 188.558  -0.024   0.006  67.975

                      1                      2                      3
                      A                      A                      A
 Frequencies --     66.8808               107.7297               123.2301
 Red. masses --      4.4370                 6.6189                 5.5062
 Frc consts  --      0.0117                 0.0453                 0.0493
 IR Inten    --      0.1530                 0.2562                 6.1811

                      4                      5                      6
                      A                      A                      A
 Frequencies --    189.6752               230.9221               257.0736
 Red. masses --      4.9724                 1.4493                 6.1585
 Frc consts  --      0.1054                 0.0455                 0.2398
 IR Inten    --      3.4991                 0.0260                 2.1888

                      7                      8                      9
                      A                      A                      A
 Frequencies --    288.2951               299.1325               311.3605
 Red. masses --      2.5291                 9.4720                 4.8126
 Frc consts  --      0.1239                 0.4994                 0.2749
 IR Inten    --      0.3279                 1.3589                 4.8597

                     10                     11                     12
                      A                      A                      A
 Frequencies --    369.8721               424.8357               448.1131
 Red. masses --      7.3093                 1.5453                 3.2105
 Frc consts  --      0.5892                 0.1643                 0.3798
 IR Inten    --      2.7041                29.8030                 0.3122

                     13                     14                     15
                      A                      A                      A
 Frequencies --    515.0475               517.1411               585.2354
 Red. masses --      7.1636                 2.5716                 5.0027
 Frc consts  --      1.1196                 0.4052                 1.0095
 IR Inten    --      3.9760               116.2896                18.1938

                     16                     17                     18
                      A                      A                      A
 Frequencies --    615.6914               650.7928               675.5164
 Red. masses --      6.1889                 4.0902                 6.5794
 Frc consts  --      1.3823                 1.0207                 1.7689
 IR Inten    --      4.7485                 0.6624                12.0270

                     19                     20                     21
                      A                      A                      A
 Frequencies --    717.9150               734.9039               781.2457
 Red. masses --      3.9703                 6.4575                 6.6355
 Frc consts  --      1.2056                 2.0548                 2.3862
 IR Inten    --      0.0030                 4.6209                 2.4463

                     22                     23                     24
                      A                      A                      A
 Frequencies --    794.9963               828.2173               851.8251
 Red. masses --      2.0082                 3.1713                 1.5470
 Frc consts  --      0.7478                 1.2817                 0.6614
 IR Inten    --     14.0435                 4.2874                40.4398

                     25                     26                     27
                      A                      A                      A
 Frequencies --    952.0611               959.2473               961.0547
 Red. masses --      5.6590                 1.3124                 3.3852
 Frc consts  --      3.0222                 0.7115                 1.8421
 IR Inten    --     19.3451                 0.2104                 1.3017

                     28                     29                     30
                      A                      A                      A
 Frequencies --   1068.2536              1142.6608              1177.9526
 Red. masses --      3.4727                 1.7688                 3.4080
 Frc consts  --      2.3349                 1.3607                 2.7862
 IR Inten    --     18.8788               112.9541               164.2899

                     31                     32                     33
                      A                      A                      A
 Frequencies --   1184.3300              1205.6288              1224.2658
 Red. masses --      1.2687                 1.8289                 1.6674
 Frc consts  --      1.0485                 1.5663                 1.4725
 IR Inten    --      0.8178                39.6153                 5.7120

                     34                     35                     36
                      A                      A                      A
 Frequencies --   1240.6263              1317.7378              1333.9015
 Red. masses --      2.2694                 2.4987                 3.6128
 Frc consts  --      2.0580                 2.5564                 3.7874
 IR Inten    --     60.9489                 1.5827               265.2760

                     37                     38                     39
                      A                      A                      A
 Frequencies --   1370.8150              1400.9949              1498.2985
 Red. masses --      1.9534                 4.9185                 1.2559
 Frc consts  --      2.1627                 5.6879                 1.6611
 IR Inten    --     73.0316               151.7182                19.6854

                     40                     41                     42
                      A                      A                      A
 Frequencies --   1506.1145              1522.6130              1532.3235
 Red. masses --      3.8522                 1.0472                 1.0902
 Frc consts  --      5.1485                 1.4305                 1.5082
 IR Inten    --     57.4947                 6.9347                67.6043

                     43                     44                     45
                      A                      A                      A
 Frequencies --   1555.6887              1644.7271              1690.4556
 Red. masses --      2.7024                 7.1287                 7.1274
 Frc consts  --      3.8534                11.3618                12.0002
 IR Inten    --     44.5438                38.0491               731.1851

                     46                     47                     48
                      A                      A                      A
 Frequencies --   1826.6885              1863.7613              3041.1571
 Red. masses --     12.9960                11.4935                 1.0338
 Frc consts  --     25.5498                23.5225                 5.6332
 IR Inten    --    340.7548               255.6157                51.6141

                     49                     50                     51
                      A                      A                      A
 Frequencies --   3106.5593              3171.5956              3211.3737
 Red. masses --      1.1074                 1.1013                 1.0902
 Frc consts  --      6.2967                 6.5269                 6.6243
 IR Inten    --     33.1012                20.5697                 2.6720

                     52                     53                     54
                      A                      A                      A
 Frequencies --   3224.1053              3244.2388              3635.9130
 Red. masses --      1.0920                 1.0915                 1.0791
 Frc consts  --      6.6877                 6.7686                 8.4053
 IR Inten    --      1.9154                 7.3589                42.9067

 - Thermochemistry -
 -------------------
 Temperature   298.150 Kelvin.  Pressure   1.00000 Atm.
 Atom     1 has atomic number  6 and mass  12.00000

 Molecular mass:   177.04259 amu.
 Principal axes and moments of inertia in atomic units:
                           1         2         3
     Eigenvalues --   790.323573930.059654708.83709
           X            0.99994   0.01101   0.00002
           Y           -0.01101   0.99994  -0.00000
           Z           -0.00002   0.00000   1.00000
 This molecule is an asymmetric top.
 Rotational symmetry number  1.
 Warning -- assumption of classical behavior for rotation
           may cause significant error
 Rotational temperatures (Kelvin)      0.10959     0.02204     0.01839
 Rotational constants (GHZ):           2.28355     0.45921     0.38327
 Zero-point vibrational energy     389987.3 (Joules/Mol)
                                   93.20921 (Kcal/Mol)
 Warning -- explicit consideration of  16 degrees of freedom as
           vibrations may cause significant error
 Vibrational temperatures:     96.23   155.00   177.30   272.90   332.25
          (Kelvin)            369.87   414.79   430.38   447.98   532.16
                              611.24   644.73   741.04   744.05   842.02
                              885.84   936.35   971.92  1032.92  1057.36
                             1124.04  1143.82  1191.62  1225.59  1369.80
                             1380.14  1382.74  1536.98  1644.03  1694.81
                             1703.99  1734.63  1761.45  1784.98  1895.93
                             1919.19  1972.30  2015.72  2155.72  2166.96
                             2190.70  2204.67  2238.29  2366.40  2432.19
                             2628.20  2681.54  4375.55  4469.65  4563.22
                             4620.45  4638.77  4667.74  5231.27

 Zero-point correction=                           0.148538 (Hartree/Particle)
 Thermal correction to Energy=                    0.159136
 Thermal correction to Enthalpy=                  0.160080
 Thermal correction to Gibbs Free Energy=         0.112146
 Sum of electronic and zero-point Energies=           -627.480182
 Sum of electronic and thermal Energies=              -627.469585
 Sum of electronic and thermal Enthalpies=            -627.468640
 Sum of electronic and thermal Free Energies=         -627.516575

                     E (Thermal)             CV                S
                      KCal/Mol        Cal/Mol-Kelvin    Cal/Mol-Kelvin
 Total                   99.859             40.714            100.886
 Electronic               0.000              0.000              0.000
 Translational            0.889              2.981             41.421
 Rotational               0.889              2.981             31.059
 Vibrational             98.082             34.753             28.406
 Vibration     1          0.598              1.970              4.243
 Vibration     2          0.606              1.943              3.309
 Vibration     3          0.610              1.930              3.049
 Vibration     4          0.633              1.854              2.231
 Vibration     5          0.653              1.794              1.872
 Vibration     6          0.667              1.751              1.682
 Vibration     7          0.685              1.695              1.484
 Vibration     8          0.692              1.675              1.422
 Vibration     9          0.700              1.652              1.355
 Vibration    10          0.742              1.534              1.080
 Vibration    11          0.787              1.416              0.876
 Vibration    12          0.807              1.365              0.802
 Vibration    13          0.870              1.217              0.622
 Vibration    14          0.872              1.212              0.617
 Vibration    15          0.942              1.063              0.476
 Vibration    16          0.975              0.999              0.423

                           ! Non-Optimized Parameters !
 Normal termination of Gaussian 16 at Wed Dec  9 23:34:41 2020.

 ----------------------------------------------------------------------
 # B3LYP/6-311++G(d,p) empiricaldispersion=gd3bj scf=xqc pop=npa geom=c
 heck
 ----------------------------------------------------------------------

 --------------------------------------
 CID_10374972_JID_3532_Energie_neutraal
 --------------------------------------
 Structure from the checkpoint file:  "JID_3532.chk"
 Charge =  0 Multiplicity = 1

 SCF Done:  E(RB3LYP) =  -627.806353518     A.U. after   16 cycles
 Normal termination of Gaussian 16 at Wed Dec  9 23:36:05 2020.

 ----------------------------------------------------------------------
 # B3LYP/6-311++G(d,p) empiricaldispersion=gd3bj scf=xqc pop=npa geom=c
 heck
 ----------------------------------------------------------------------

 ------------------------------------
 CID_10374972_JID_3532_Energie_kation
 ------------------------------------
 Structure from the checkpoint file:  "JID_3532.chk"
 Charge =  1 Multiplicity = 2

 SCF Done:  E(UB3LYP) =  -627.491726488     A.U. after   31 cycles
 Normal termination of Gaussian 16 at Wed Dec  9 23:39:40 2020.
 Gaussian 16:  ES64L-G16RevA.03 25-Dec-2016

 ----------------------------------------------------------------------
 # B3LYP/6-311++G(d,p) empiricaldispersion=gd3bj scf=xqc pop=npa geom=c
 heck
 ----------------------------------------------------------------------

 -----------------------------------
 CID_10374972_JID_3532_Energie_anion
 -----------------------------------
 Structure from the checkpoint file:  "JID_3532.chk"
 Charge = -1 Multiplicity = 2

                         Standard orientation:
 ---------------------------------------------------------------------
 Center     Atomic      Atomic             Coordinates (Angstroms)
 Number     Number       Type             X           Y           Z
 ---------------------------------------------------------------------
      1          6           0        4.345274    0.078882    0.001208
      2          8           0        3.222335   -0.795365   -0.000700
      3          6           0        1.980312   -0.257360   -0.000464
      4          6           0        0.932860   -1.202438   -0.000370
      5          6           0       -0.361252   -0.724816   -0.000212
      6          6           0       -0.639128    0.661874   -0.000167
      7          6           0        0.404347    1.579351   -0.000295
      8          6           0        1.723141    1.126372   -0.000450
      9          6           0       -2.090909    0.837347   -0.000057
     10          8           0       -2.769197    1.843157    0.000186
     11          6           0       -2.672917   -0.621850    0.000391
     12          8           0       -3.832317   -0.963957    0.000383
     13          7           0       -1.557452   -1.450515   -0.000018
     14          1           0        5.222967   -0.568289    0.002427
     15          1           0        4.354563    0.711326    0.896888
     16          1           0        4.357359    0.711664   -0.894213
     17          1           0        1.174744   -2.259474   -0.000348
     18          1           0        0.183315    2.642451   -0.000332
     19          1           0        2.537011    1.839701   -0.000708
     20          1           0       -1.624720   -2.458625   -0.000041
 ---------------------------------------------------------------------

 SCF Done:  E(UB3LYP) =  -627.846168686     A.U. after   23 cycles

 The electronic state is 2-A.
 Alpha  occ. eigenvalues --  -19.04183 -18.93660 -18.91519 -14.20476 -10.13147
 Alpha  occ. eigenvalues --  -10.10100 -10.10091 -10.07808 -10.05538 -10.04040
 Alpha  occ. eigenvalues --  -10.03912 -10.03528 -10.01497  -0.96089  -0.89153
 Alpha  occ. eigenvalues --   -0.85131  -0.81046  -0.71102  -0.64440  -0.60930
 Alpha  occ. eigenvalues --   -0.59685  -0.53220  -0.48622  -0.45095  -0.42653
 Alpha  occ. eigenvalues --   -0.40192  -0.37497  -0.37269  -0.34716  -0.34203
 Alpha  occ. eigenvalues --   -0.30960  -0.30492  -0.30098  -0.27708  -0.26446
 Alpha  occ. eigenvalues --   -0.26053  -0.25505  -0.24031  -0.21518  -0.21193
 Alpha  occ. eigenvalues --   -0.20884  -0.16662  -0.13195  -0.10900  -0.08220
 Alpha  occ. eigenvalues --   -0.06460   0.02544
 Alpha virt. eigenvalues --    0.06692   0.09186   0.09658   0.10779   0.11523
 Alpha virt. eigenvalues --    0.11763   0.12387   0.13633   0.14652   0.15654
 Alpha virt. eigenvalues --    0.16657   0.16672   0.17635   0.17696   0.18346

  Beta  occ. eigenvalues --  -19.04109 -18.93345 -18.90779 -14.20490 -10.13149
  Beta  occ. eigenvalues --  -10.09956 -10.09811 -10.07661 -10.05269 -10.04132
  Beta  occ. eigenvalues --  -10.04010 -10.03305 -10.01505  -0.95903  -0.88616
  Beta  occ. eigenvalues --   -0.83873  -0.80781  -0.70899  -0.64223  -0.60795
  Beta  occ. eigenvalues --   -0.59389  -0.52606  -0.48458  -0.44854  -0.42505
  Beta  occ. eigenvalues --   -0.39667  -0.37374  -0.37067  -0.34465  -0.34003
  Beta  occ. eigenvalues --   -0.30852  -0.30384  -0.29040  -0.27324  -0.26064
  Beta  occ. eigenvalues --   -0.25325  -0.25292  -0.23554  -0.21063  -0.20276
  Beta  occ. eigenvalues --   -0.18440  -0.15463  -0.12754  -0.10129  -0.07352
  Beta  occ. eigenvalues --   -0.05858
  Beta virt. eigenvalues --    0.06684   0.09173   0.09420   0.09644   0.10804
  Beta virt. eigenvalues --    0.11520   0.12397   0.12577   0.13641   0.14632
  Beta virt. eigenvalues --    0.16569   0.16700   0.17021   0.17654   0.18207

 Mulliken charges and spin densities:
               1          2
     1  C   -0.280119  -0.004109
     2  O   -0.171012   0.013262
     3  C   -0.806252   0.179084
     4  C   -0.894872  -0.075418
     5  C   -0.808582   0.060996
     6  C    2.405470   0.023525
     7  C   -0.888379   0.209699
     8  C    0.620739  -0.083239
     9  C   -0.395535   0.165466
    10  O   -0.448396   0.270402
    11  C    0.210952   0.140116
    12  O   -0.442839   0.113995
    13  N   -0.172733  -0.014427
    14  H    0.150933  -0.000337
    15  H    0.130585   0.004506
    16  H    0.130611   0.004460
    17  H    0.133705   0.003753
    18  H    0.139203  -0.013879
    19  H    0.127838   0.004358
    20  H    0.258683  -0.002212
 Sum of Mulliken charges =  -1.00000   1.00000

 Dipole moment (field-independent basis, Debye):
    X=             11.0225    Y=             -2.6708    Z=              0.0014  Tot=             11.3414
 Quadrupole moment (field-independent basis, Debye-Ang):
   XX=           -125.2319   YY=            -85.8905   ZZ=            -80.8697
   XY=             10.1169   XZ=              0.0130   YZ=             -0.0022

 Summary of Natural Population Analysis:

                                       Natural Population
                Natural  -----------------------------------------------
    Atom  No    Charge         Core      Valence    Rydberg      Total
 -----------------------------------------------------------------------
      C    1   -0.10001      0.99961     2.09234    0.00806     3.10001
      O    2   -0.27111      0.99985     3.26151    0.00975     4.27111
      C    3    0.21727      0.99944     1.77181    0.01149     2.78273
      C    4   -0.18090      0.99949     2.17269    0.00872     3.18090
      C    5    0.13646      0.99947     1.85389    0.01017     2.86354
      C    6   -0.09604      0.99945     2.08740    0.00919     3.09604
      C    7   -0.02390      0.99955     2.01522    0.00913     3.02390
      C    8   -0.19663      0.99954     2.18912    0.00797     3.19663
      C    9    0.25437      0.99958     1.72272    0.02333     2.74563
      O   10   -0.19904      0.99987     3.19220    0.00696     4.19904
      C   11    0.33157      0.99969     1.64246    0.02628     2.66843
      O   12   -0.27829      0.99987     3.27122    0.00720     4.27829
      N   13   -0.32000      0.99965     2.81073    0.00963     3.82000
      H   14    0.08606      0.00000     0.41313    0.00081     0.41394
      H   15    0.08145      0.00000     0.41683    0.00172     0.41855
      H   16    0.08142      0.00000     0.41687    0.00171     0.41858
      H   17    0.09880      0.00000     0.39947    0.00174     0.40120
      H   18    0.09687      0.00000     0.40101    0.00212     0.40313
      H   19    0.09468      0.00000     0.40421    0.00111     0.40532
      H   20    0.18696      0.00000     0.31004    0.00300     0.31304
 =======================================================================
   * Total *    0.00000     12.99505    32.84486    0.16009    46.00000

 Normal termination of Gaussian 16 at Wed Dec  9 23:42:21 2020.
