 Gaussian 16, Revision A.03,

 -----------------------------------------------------------
 # opt freq B3LYP/6-31G(d) empiricaldispersion=gd3bj scf=xqc
 -----------------------------------------------------------

 -------------------------------
 CID_138065647_JID_4710_neutraal
 -------------------------------
 Symbolic Z-matrix:
 Charge =  0 Multiplicity = 1

 SCF Done:  E(RB3LYP) =  -721.029975923     A.U. after   15 cycles
 SCF Done:  E(RB3LYP) =  -721.041666112     A.U. after   14 cycles
 SCF Done:  E(RB3LYP) =  -721.040039989     A.U. after   14 cycles
 SCF Done:  E(RB3LYP) =  -721.042862428     A.U. after   12 cycles
 SCF Done:  E(RB3LYP) =  -721.043841572     A.U. after   13 cycles
 SCF Done:  E(RB3LYP) =  -721.042104535     A.U. after   13 cycles
 SCF Done:  E(RB3LYP) =  -721.044510858     A.U. after   14 cycles
 SCF Done:  E(RB3LYP) =  -721.046004952     A.U. after   13 cycles
 SCF Done:  E(RB3LYP) =  -721.046697805     A.U. after   13 cycles
 SCF Done:  E(RB3LYP) =  -721.047220367     A.U. after   12 cycles
 SCF Done:  E(RB3LYP) =  -721.047349271     A.U. after   10 cycles
 SCF Done:  E(RB3LYP) =  -721.047351632     A.U. after    8 cycles
 SCF Done:  E(RB3LYP) =  -721.047353232     A.U. after    8 cycles
 SCF Done:  E(RB3LYP) =  -721.047353836     A.U. after    8 cycles
 SCF Done:  E(RB3LYP) =  -721.047354090     A.U. after    8 cycles
 SCF Done:  E(RB3LYP) =  -721.047354082     A.U. after    7 cycles
 Optimization completed.
    -- Stationary point found.
 Normal termination of Gaussian 16 at Thu Dec 10 10:30:17 2020.

 --------------------------------------------------------------------
 #N Geom=AllCheck Guess=TCheck SCRF=Check GenChk RB3LYP/6-31G(d) Freq
 --------------------------------------------------------------------

 Structure from the checkpoint file:  "JID_4710.chk"
 -------------------------------
 CID_138065647_JID_4710_neutraal
 -------------------------------
 Charge =  0 Multiplicity = 1

 SCF Done:  E(RB3LYP) =  -721.047354082     A.U. after    1 cycles

  Exact polarizability: 116.432  -7.727 118.034  -3.633   1.593  97.868
 Approx polarizability: 147.725  -9.826 171.699  -3.017   6.907 153.322

                      1                      2                      3
                      A                      A                      A
 Frequencies --     41.4834                51.7538                68.9513
 Red. masses --      4.6390                 5.9822                 4.5294
 Frc consts  --      0.0047                 0.0094                 0.0127
 IR Inten    --      2.2427                 3.6812                 1.1159

                      4                      5                      6
                      A                      A                      A
 Frequencies --     80.3440               105.5799               112.0844
 Red. masses --      5.2444                 3.7258                 3.5013
 Frc consts  --      0.0199                 0.0245                 0.0259
 IR Inten    --      1.3083                 2.4014                 1.3830

                      7                      8                      9
                      A                      A                      A
 Frequencies --    148.1388               172.4139               178.6598
 Red. masses --      2.9706                 1.6355                 3.3349
 Frc consts  --      0.0384                 0.0286                 0.0627
 IR Inten    --      1.9783                 0.2857                 2.9421

                     10                     11                     12
                      A                      A                      A
 Frequencies --    218.4135               228.3096               267.5675
 Red. masses --      2.5443                 3.5409                 4.8202
 Frc consts  --      0.0715                 0.1087                 0.2033
 IR Inten    --      2.6477                11.7624                 6.7197

                     13                     14                     15
                      A                      A                      A
 Frequencies --    300.6478               351.4214               401.8609
 Red. masses --      3.4995                 2.7011                 1.2588
 Frc consts  --      0.1864                 0.1965                 0.1198
 IR Inten    --      4.0686                 4.1611                44.5732

                     16                     17                     18
                      A                      A                      A
 Frequencies --    404.6622               418.6632               441.8634
 Red. masses --      2.3135                 1.9319                 2.4359
 Frc consts  --      0.2232                 0.1995                 0.2802
 IR Inten    --      9.1660                30.2952                11.3884

                     19                     20                     21
                      A                      A                      A
 Frequencies --    463.9124               490.3861               501.5793
 Red. masses --      1.4280                 2.4853                 1.1224
 Frc consts  --      0.1811                 0.3521                 0.1664
 IR Inten    --    119.8461                17.9951                75.7041

                     22                     23                     24
                      A                      A                      A
 Frequencies --    505.3895               540.7795               595.0257
 Red. masses --      2.9856                 3.1670                 2.5057
 Frc consts  --      0.4493                 0.5457                 0.5227
 IR Inten    --     10.9449                16.1866                62.5002

                     25                     26                     27
                      A                      A                      A
 Frequencies --    635.7358               652.0418               674.7162
 Red. masses --      2.5419                 2.1080                 3.2810
 Frc consts  --      0.6053                 0.5280                 0.8800
 IR Inten    --     17.1281                34.9089                 5.4022

                     28                     29                     30
                      A                      A                      A
 Frequencies --    712.6934               736.9806               796.4282
 Red. masses --      1.3208                 1.2349                 2.7419
 Frc consts  --      0.3953                 0.3952                 1.0247
 IR Inten    --    167.6053               142.2660                85.7193

                     31                     32                     33
                      A                      A                      A
 Frequencies --    803.7627               822.5676               882.2528
 Red. masses --      2.6008                 3.3992                 2.5728
 Frc consts  --      0.9900                 1.3551                 1.1799
 IR Inten    --    123.4776                 3.1267                 7.0215

                     34                     35                     36
                      A                      A                      A
 Frequencies --    912.6289               934.1348               975.8418
 Red. masses --      2.2114                 2.0884                 2.5022
 Frc consts  --      1.0852                 1.0737                 1.4039
 IR Inten    --     21.9473                17.7837                22.0452

                     37                     38                     39
                      A                      A                      A
 Frequencies --    985.2333              1030.2788              1042.2025
 Red. masses --      2.6593                 1.9481                 2.6050
 Frc consts  --      1.5209                 1.2183                 1.6671
 IR Inten    --     19.7249                 9.2422                 8.2565

                     40                     41                     42
                      A                      A                      A
 Frequencies --   1067.7851              1085.8905              1115.7501
 Red. masses --      2.4833                 2.2277                 1.9958
 Frc consts  --      1.6682                 1.5477                 1.4639
 IR Inten    --     38.2277               104.7934                21.0509

                     43                     44                     45
                      A                      A                      A
 Frequencies --   1129.1478              1139.3362              1163.4489
 Red. masses --      1.6937                 2.6734                 2.6255
 Frc consts  --      1.2723                 2.0446                 2.0939
 IR Inten    --     20.4253                 7.6887                18.0946

                     46                     47                     48
                      A                      A                      A
 Frequencies --   1207.0400              1238.1378              1245.4279
 Red. masses --      1.7999                 2.5479                 1.2143
 Frc consts  --      1.5451                 2.3013                 1.1097
 IR Inten    --      0.9035                53.5287                19.1241

                     49                     50                     51
                      A                      A                      A
 Frequencies --   1285.3274              1305.3911              1328.3834
 Red. masses --      1.4015                 1.3950                 1.3855
 Frc consts  --      1.3642                 1.4005                 1.4405
 IR Inten    --     19.6283                 9.3475                18.1146

                     52                     53                     54
                      A                      A                      A
 Frequencies --   1373.5030              1390.0582              1410.2500
 Red. masses --      1.3188                 1.4539                 1.2968
 Frc consts  --      1.4659                 1.6553                 1.5196
 IR Inten    --     18.7780                14.9703                 3.1842

                     55                     56                     57
                      A                      A                      A
 Frequencies --   1417.2643              1423.3743              1449.4070
 Red. masses --      1.3217                 1.3203                 1.2871
 Frc consts  --      1.5642                 1.5761                 1.5931
 IR Inten    --     31.6627                15.0816                23.5892

                     58                     59                     60
                      A                      A                      A
 Frequencies --   1462.4418              1481.5650              1485.5266
 Red. masses --      1.4055                 2.0067                 1.0879
 Frc consts  --      1.7711                 2.5952                 1.4145
 IR Inten    --     55.2138                94.3562                 4.7577

                     61                     62                     63
                      A                      A                      A
 Frequencies --   1498.2296              1503.3102              1509.5092
 Red. masses --      1.0673                 1.0829                 1.0995
 Frc consts  --      1.4115                 1.4419                 1.4762
 IR Inten    --      6.5351                 1.5862                26.9863

                     64                     65                     66
                      A                      A                      A
 Frequencies --   1520.1799              1614.4768              1667.6292
 Red. masses --      1.0845                 1.3556                 1.3732
 Frc consts  --      1.4766                 2.0818                 2.2500
 IR Inten    --     13.2481                78.3618               142.5919

                     67                     68                     69
                      A                      A                      A
 Frequencies --   1722.1213              1821.8088              3028.3654
 Red. masses --      2.8175                10.5050                 1.0577
 Frc consts  --      4.9231                20.5425                 5.7150
 IR Inten    --    411.2009               149.6004                18.2767

                     70                     71                     72
                      A                      A                      A
 Frequencies --   3046.5965              3060.5252              3063.9218
 Red. masses --      1.0635                 1.0361                 1.0677
 Frc consts  --      5.8158                 5.7180                 5.9056
 IR Inten    --     21.7173                 3.3960                37.7650

                     73                     74                     75
                      A                      A                      A
 Frequencies --   3067.9778              3081.4620              3106.3474
 Red. masses --      1.0788                 1.1004                 1.1045
 Frc consts  --      5.9827                 6.1562                 6.2792
 IR Inten    --     34.2748                32.0759                49.4573

                     76                     77                     78
                      A                      A                      A
 Frequencies --   3115.4076              3125.1957              3163.2180
 Red. masses --      1.1047                 1.0993                 1.1036
 Frc consts  --      6.3172                 6.3257                 6.5059
 IR Inten    --     33.4183                 8.4116                11.6090

                     79                     80                     81
                      A                      A                      A
 Frequencies --   3526.7268              3542.8110              3544.5565
 Red. masses --      1.0487                 1.0503                 1.0622
 Frc consts  --      7.6852                 7.7668                 7.8625
 IR Inten    --     24.9175                86.1858               256.9321

                     82                     83                     84
                      A                      A                      A
 Frequencies --   3644.2887              3647.5207              3683.2487
 Red. masses --      1.0979                 1.0973                 1.0653
 Frc consts  --      8.5913                 8.6011                 8.5154
 IR Inten    --     37.5817                33.5708                24.2910

 - Thermochemistry -
 -------------------
 Temperature   298.150 Kelvin.  Pressure   1.00000 Atm.
 Atom     1 has atomic number  6 and mass  12.00000

 Molecular mass:   204.12224 amu.
 Principal axes and moments of inertia in atomic units:
                           1         2         3
     Eigenvalues --  2215.630943693.971544705.25330
           X            0.99955  -0.02307  -0.01933
           Y            0.02288   0.99969  -0.00979
           Z            0.01955   0.00935   0.99977
 This molecule is an asymmetric top.
 Rotational symmetry number  1.
 Warning -- assumption of classical behavior for rotation
           may cause significant error
 Rotational temperatures (Kelvin)      0.03909     0.02345     0.01841
 Rotational constants (GHZ):           0.81455     0.48856     0.38356
 Zero-point vibrational energy     671088.8 (Joules/Mol)
                                  160.39407 (Kcal/Mol)
 Warning -- explicit consideration of  24 degrees of freedom as
           vibrations may cause significant error
 Vibrational temperatures:     59.69    74.46    99.21   115.60   151.91
          (Kelvin)            161.26   213.14   248.07   257.05   314.25
                              328.49   384.97   432.57   505.62   578.19
                              582.22   602.36   635.74   667.47   705.56
                              721.66   727.14   778.06   856.11   914.68
                              938.14   970.77  1025.41  1060.35  1145.88
                             1156.44  1183.49  1269.36  1313.07  1344.01
                             1404.02  1417.53  1482.34  1499.50  1536.30
                             1562.35  1605.32  1624.59  1639.25  1673.94
                             1736.66  1781.40  1791.89  1849.30  1878.17
                             1911.25  1976.16  1999.98  2029.04  2039.13
                             2047.92  2085.37  2104.13  2131.64  2137.34
                             2155.62  2162.93  2171.85  2187.20  2322.87
                             2399.35  2477.75  2621.18  4357.14  4383.37
                             4403.41  4408.30  4414.14  4433.54  4469.34
                             4482.38  4496.46  4551.17  5074.17  5097.31
                             5099.83  5243.32  5247.97  5299.37

 Zero-point correction=                           0.255604 (Hartree/Particle)
 Thermal correction to Energy=                    0.271162
 Thermal correction to Enthalpy=                  0.272106
 Thermal correction to Gibbs Free Energy=         0.212667
 Sum of electronic and zero-point Energies=           -720.791750
 Sum of electronic and thermal Energies=              -720.776192
 Sum of electronic and thermal Enthalpies=            -720.775248
 Sum of electronic and thermal Free Energies=         -720.834687

                     E (Thermal)             CV                S
                      KCal/Mol        Cal/Mol-Kelvin    Cal/Mol-Kelvin
 Total                  170.157             58.071            125.100
 Electronic               0.000              0.000              0.000
 Translational            0.889              2.981             41.845
 Rotational               0.889              2.981             32.021
 Vibrational            168.379             52.109             51.234
 Vibration     1          0.594              1.981              5.187
 Vibration     2          0.596              1.977              4.749
 Vibration     3          0.598              1.969              4.183
 Vibration     4          0.600              1.962              3.882
 Vibration     5          0.605              1.945              3.349
 Vibration     6          0.607              1.939              3.232
 Vibration     7          0.618              1.905              2.696
 Vibration     8          0.626              1.876              2.409
 Vibration     9          0.629              1.869              2.342
 Vibration    10          0.646              1.813              1.972
 Vibration    11          0.651              1.798              1.892
 Vibration    12          0.673              1.733              1.612
 Vibration    13          0.693              1.672              1.413
 Vibration    14          0.728              1.572              1.160
 Vibration    15          0.767              1.466              0.956
 Vibration    16          0.770              1.460              0.946
 Vibration    17          0.782              1.430              0.897
 Vibration    18          0.802              1.379              0.821
 Vibration    19          0.821              1.330              0.755
 Vibration    20          0.846              1.271              0.683
 Vibration    21          0.857              1.247              0.654
 Vibration    22          0.861              1.238              0.645
 Vibration    23          0.896              1.160              0.564
 Vibration    24          0.953              1.042              0.458

 Optimization completed.
    -- Stationary point found.
 Normal termination of Gaussian 16 at Thu Dec 10 10:39:50 2020.

 ----------------------------------------------------------------------
 # B3LYP/6-311++G(d,p) empiricaldispersion=gd3bj scf=xqc pop=npa geom=c
 heck
 ----------------------------------------------------------------------

 ---------------------------------------
 CID_138065647_JID_4710_Energie_neutraal
 ---------------------------------------
 Structure from the checkpoint file:  "JID_4710.chk"
 Charge =  0 Multiplicity = 1

 SCF Done:  E(RB3LYP) =  -721.292676331     A.U. after   14 cycles
 Normal termination of Gaussian 16 at Thu Dec 10 10:43:11 2020.

 ----------------------------------------------------------------------
 # B3LYP/6-311++G(d,p) empiricaldispersion=gd3bj scf=xqc pop=npa geom=c
 heck
 ----------------------------------------------------------------------

 -------------------------------------
 CID_138065647_JID_4710_Energie_kation
 -------------------------------------
 Structure from the checkpoint file:  "JID_4710.chk"
 Charge =  1 Multiplicity = 2

 SCF Done:  E(UB3LYP) =  -720.995472450     A.U. after   23 cycles
 Normal termination of Gaussian 16 at Thu Dec 10 10:51:25 2020.
 Gaussian 16:  ES64L-G16RevA.03 25-Dec-2016

 ----------------------------------------------------------------------
 # B3LYP/6-311++G(d,p) empiricaldispersion=gd3bj scf=xqc pop=npa geom=c
 heck
 ----------------------------------------------------------------------

 ------------------------------------
 CID_138065647_JID_4710_Energie_anion
 ------------------------------------
 Structure from the checkpoint file:  "JID_4710.chk"
 Charge = -1 Multiplicity = 2

                         Standard orientation:
 ---------------------------------------------------------------------
 Center     Atomic      Atomic             Coordinates (Angstroms)
 Number     Number       Type             X           Y           Z
 ---------------------------------------------------------------------
      1          6           0       -3.147837   -0.922740    0.697696
      2          6           0       -2.217986   -1.492538   -0.353203
      3          8           0       -2.632998   -1.975391   -1.388456
      4          6           0       -0.719278   -1.508133   -0.050336
      5          7           0       -0.228420   -0.279096    0.568143
      6          6           0        1.123864   -0.421618    1.138110
      7          6           0        2.259134   -1.051411    0.289154
      8          6           0        2.396005   -0.484519   -1.124425
      9          8           0        2.526635    0.929874   -1.085727
     10          8           0        3.474460   -0.847388    1.008225
     11          7           0       -0.245563    0.777846   -0.430158
     12          6           0       -0.826172    1.852669    0.017089
     13          7           0       -1.490918    1.965033    1.216419
     14          7           0       -0.784645    3.000755   -0.752913
     15          1           0       -4.162149   -1.282383    0.512402
     16          1           0       -3.142231    0.171533    0.647069
     17          1           0       -2.822817   -1.196691    1.707489
     18          1           0       -0.545301   -2.324056    0.666209
     19          1           0       -0.206387   -1.759351   -0.986847
     20          1           0        1.446374    0.581890    1.431673
     21          1           0        1.035444   -1.010249    2.058263
     22          1           0        2.122676   -2.137688    0.227206
     23          1           0        3.315747   -0.885305   -1.563443
     24          1           0        1.551515   -0.785052   -1.757453
     25          1           0        1.601875    1.233188   -0.963146
     26          1           0        3.726174    0.071310    0.804059
     27          1           0       -1.419645    2.862205    1.679102
     28          1           0       -1.310404    1.157142    1.805492
     29          1           0       -0.457039    2.817147   -1.694961
     30          1           0       -1.638163    3.547571   -0.740401
 ---------------------------------------------------------------------

 SCF Done:  E(UB3LYP) =  -721.290438943     A.U. after   29 cycles

 The electronic state is 2-A.
 Alpha  occ. eigenvalues --  -19.03415 -19.02073 -19.01642 -14.24625 -14.22735
 Alpha  occ. eigenvalues --  -14.22462 -14.20964 -10.18012 -10.16384 -10.13085
 Alpha  occ. eigenvalues --  -10.12134 -10.10854 -10.10238 -10.06947  -0.94972
 Alpha  occ. eigenvalues --   -0.94541  -0.91828  -0.90846  -0.84618  -0.78167
 Alpha  occ. eigenvalues --   -0.72558  -0.67124  -0.64094  -0.61201  -0.56639
 Alpha  occ. eigenvalues --   -0.51223  -0.49073  -0.45719  -0.44752  -0.43080
 Alpha  occ. eigenvalues --   -0.41651  -0.40737  -0.38999  -0.38875  -0.37195
 Alpha  occ. eigenvalues --   -0.36305  -0.35904  -0.34696  -0.33604  -0.32673
 Alpha  occ. eigenvalues --   -0.30626  -0.30145  -0.29937  -0.28860  -0.28163
 Alpha  occ. eigenvalues --   -0.26901  -0.25664  -0.24722  -0.23275  -0.20670
 Alpha  occ. eigenvalues --   -0.18288  -0.17716  -0.15930  -0.14808  -0.12293
 Alpha  occ. eigenvalues --    0.03852
 Alpha virt. eigenvalues --    0.06068   0.07360   0.07560   0.08173   0.09127
 Alpha virt. eigenvalues --    0.09275   0.10137   0.10650   0.11590   0.11781
 Alpha virt. eigenvalues --    0.12255   0.12913   0.13004   0.13747   0.13898

  Beta  occ. eigenvalues --  -19.03412 -19.02067 -19.01611 -14.24615 -14.22659
  Beta  occ. eigenvalues --  -14.22381 -14.20952 -10.18007 -10.16351 -10.13084
  Beta  occ. eigenvalues --  -10.12133 -10.10848 -10.10221 -10.06920  -0.94911
  Beta  occ. eigenvalues --   -0.94533  -0.91818  -0.90813  -0.84561  -0.78035
  Beta  occ. eigenvalues --   -0.72506  -0.67084  -0.64054  -0.61170  -0.56595
  Beta  occ. eigenvalues --   -0.51172  -0.48996  -0.45644  -0.44673  -0.43009
  Beta  occ. eigenvalues --   -0.41600  -0.40713  -0.38957  -0.38813  -0.37153
  Beta  occ. eigenvalues --   -0.36247  -0.35862  -0.34657  -0.33565  -0.32613
  Beta  occ. eigenvalues --   -0.30571  -0.30118  -0.29896  -0.28829  -0.28133
  Beta  occ. eigenvalues --   -0.26887  -0.25545  -0.24700  -0.23259  -0.20660
  Beta  occ. eigenvalues --   -0.18203  -0.17707  -0.15896  -0.14774  -0.12254
  Beta virt. eigenvalues --    0.06451   0.07131   0.07766   0.08309   0.08423
  Beta virt. eigenvalues --    0.09406   0.09829   0.10559   0.11098   0.11770
  Beta virt. eigenvalues --    0.11825   0.12542   0.13158   0.13409   0.14101

 Mulliken charges and spin densities:
               1          2
     1  C    0.496365  -1.060584
     2  C   -0.878494   0.928914
     3  O   -0.254984   0.010237
     4  C    0.530229  -0.816721
     5  N    0.256640  -0.056771
     6  C   -0.011990  -0.439693
     7  C    0.002589  -0.078741
     8  C   -0.323091  -0.102121
     9  O   -0.284765   0.010860
    10  O   -0.228798   0.014485
    11  N   -0.465557  -0.010770
    12  C    1.119677  -1.139463
    13  N   -0.183560  -0.201238
    14  N   -0.527049   0.251638
    15  H    0.038238   0.125079
    16  H    0.026385   0.194430
    17  H   -0.370793   0.536790
    18  H    0.047097   0.116509
    19  H    0.121770   0.058808
    20  H    0.060362   0.140844
    21  H   -0.189559   0.377752
    22  H    0.171761  -0.002851
    23  H    0.185647   0.003007
    24  H    0.138549   0.006905
    25  H    0.271849   0.016146
    26  H    0.238145   0.018002
    27  H   -0.651719   0.962434
    28  H    0.189231   0.077558
    29  H    0.044126   0.210922
    30  H   -0.568300   0.847633
 Sum of Mulliken charges =  -1.00000   1.00000

 Dipole moment (field-independent basis, Debye):
    X=              4.4730    Y=             -5.7688    Z=             -1.8913  Tot=              7.5408
 Quadrupole moment (field-independent basis, Debye-Ang):
   XX=           -139.0847   YY=           -143.0871   ZZ=           -123.5971
   XY=              8.4837   XZ=             -1.3043   YZ=             -4.5225

 Summary of Natural Population Analysis:

                                       Natural Population
                Natural  -----------------------------------------------
    Atom  No    Charge         Core      Valence    Rydberg      Total
 -----------------------------------------------------------------------
      C    1   -0.34100      0.99961     2.33544    0.00595     3.34100
      C    2    0.29894      0.99969     1.68045    0.02092     2.70106
      O    3   -0.28477      0.99987     3.27832    0.00658     4.28477
      C    4   -0.13006      0.99955     2.11799    0.01251     3.13006
      N    5   -0.21024      0.99972     2.69335    0.01717     3.71024
      C    6   -0.10065      0.99958     2.08519    0.01588     3.10065
      C    7    0.04077      0.99957     1.94523    0.01443     2.95923
      C    8   -0.02814      0.99958     2.01712    0.01145     3.02814
      O    9   -0.38979      0.99990     3.38256    0.00733     4.38979
      O   10   -0.37348      0.99990     3.36685    0.00673     4.37348
      N   11   -0.26376      0.99964     2.75013    0.01399     3.76376
      C   12    0.31424      0.99964     1.66798    0.01814     2.68576
      N   13   -0.40988      0.99970     2.89970    0.01049     3.90988
      N   14   -0.39917      0.99971     2.88960    0.00987     3.89917
      H   15    0.10741      0.00000     0.39167    0.00092     0.39259
      H   16    0.12402      0.00000     0.37408    0.00190     0.37598
      H   17    0.10878      0.00000     0.38942    0.00180     0.39122
      H   18    0.10606      0.00000     0.39278    0.00116     0.39394
      H   19    0.09494      0.00000     0.40286    0.00221     0.40506
      H   20    0.10220      0.00000     0.39644    0.00136     0.39780
      H   21    0.10208      0.00000     0.39679    0.00113     0.39792
      H   22    0.08581      0.00000     0.41301    0.00118     0.41419
      H   23    0.08598      0.00000     0.41285    0.00117     0.41402
      H   24    0.08800      0.00000     0.41073    0.00127     0.41200
      H   25    0.24403      0.00000     0.25193    0.00404     0.25597
      H   26    0.23130      0.00000     0.26575    0.00295     0.26870
      H   27    0.20211      0.00000     0.28378    0.01411     0.29789
      H   28    0.20435      0.00000     0.29033    0.00532     0.29565
      H   29    0.19225      0.00000     0.30552    0.00223     0.30775
      H   30    0.19767      0.00000     0.29278    0.00955     0.30233
 =======================================================================
   * Total *   -0.00000     13.99565    40.78061    0.22374    55.00000

 Normal termination of Gaussian 16 at Thu Dec 10 11:00:45 2020.
