 Gaussian 16, Revision A.03,

 -----------------------------------------------------------
 # opt freq B3LYP/6-31G(d) empiricaldispersion=gd3bj scf=xqc
 -----------------------------------------------------------

 -------------------------------
 CID_150276208_JID_3438_neutraal
 -------------------------------
 Symbolic Z-matrix:
 Charge =  0 Multiplicity = 1

 SCF Done:  E(RB3LYP) =  -670.542142127     A.U. after   16 cycles
 SCF Done:  E(RB3LYP) =  -670.545939336     A.U. after   16 cycles
 SCF Done:  E(RB3LYP) =  -670.546910542     A.U. after   14 cycles
 SCF Done:  E(RB3LYP) =  -670.547317172     A.U. after   13 cycles
 SCF Done:  E(RB3LYP) =  -670.547338338     A.U. after   12 cycles
 SCF Done:  E(RB3LYP) =  -670.547344131     A.U. after   10 cycles
 SCF Done:  E(RB3LYP) =  -670.547345182     A.U. after   10 cycles
 SCF Done:  E(RB3LYP) =  -670.547345807     A.U. after    8 cycles
 Optimization completed.
    -- Stationary point found.
 Normal termination of Gaussian 16 at Wed Dec  9 23:10:28 2020.

 --------------------------------------------------------------------
 #N Geom=AllCheck Guess=TCheck SCRF=Check GenChk RB3LYP/6-31G(d) Freq
 --------------------------------------------------------------------

 Structure from the checkpoint file:  "JID_3438.chk"
 -------------------------------
 CID_150276208_JID_3438_neutraal
 -------------------------------
 Charge =  0 Multiplicity = 1

 SCF Done:  E(RB3LYP) =  -670.547345807     A.U. after    1 cycles

  Exact polarizability: 141.292   8.790 103.132   0.002  -0.000  36.095
 Approx polarizability: 208.299  34.671 229.602  -0.006   0.016  57.069

                      1                      2                      3
                      A                      A                      A
 Frequencies --     43.9308                80.9503                94.9820
 Red. masses --      6.7762                 9.3563                13.6904
 Frc consts  --      0.0077                 0.0361                 0.0728
 IR Inten    --      4.3201                 1.3562                 0.4666

                      4                      5                      6
                      A                      A                      A
 Frequencies --    107.8038               159.7949               275.8779
 Red. masses --      8.9604                 9.8210                 9.2318
 Frc consts  --      0.0614                 0.1478                 0.4140
 IR Inten    --      0.0225                 1.4650                 0.3128

                      7                      8                      9
                      A                      A                      A
 Frequencies --    359.1871               386.1243               387.3363
 Red. masses --     12.7470                 8.1886                10.7149
 Frc consts  --      0.9689                 0.7193                 0.9471
 IR Inten    --      1.8091                 3.8109                 0.2109

                     10                     11                     12
                      A                      A                      A
 Frequencies --    514.4695               540.5698               569.8837
 Red. masses --     10.9960                13.9624                13.9804
 Frc consts  --      1.7148                 2.4039                 2.6751
 IR Inten    --      1.9969                 9.9974                 0.0243

                     13                     14                     15
                      A                      A                      A
 Frequencies --    610.8869               661.0178               717.3564
 Red. masses --      4.6820                 8.8981                 8.0349
 Frc consts  --      1.0294                 2.2907                 2.4361
 IR Inten    --      4.7707                 0.2288                 5.9371

                     16                     17                     18
                      A                      A                      A
 Frequencies --    772.6024               798.9906               801.6448
 Red. masses --      5.9614                13.6648                 1.4050
 Frc consts  --      2.0966                 5.1397                 0.5320
 IR Inten    --     26.8375                 5.8847                29.9592

                     19                     20                     21
                      A                      A                      A
 Frequencies --    878.7185               925.2216               940.1183
 Red. masses --      1.3598                 5.2333                12.8786
 Frc consts  --      0.6186                 2.6395                 6.7063
 IR Inten    --      0.0329                33.3635                13.2064

                     22                     23                     24
                      A                      A                      A
 Frequencies --    956.4284               970.8314              1030.1721
 Red. masses --      8.8626                11.4106                 9.6772
 Frc consts  --      4.7766                 6.3365                 6.0509
 IR Inten    --     31.5034                25.7633                 3.7870

                     25                     26                     27
                      A                      A                      A
 Frequencies --   1054.5447              1076.2512              1147.8923
 Red. masses --      4.8058                 1.9332                 2.3805
 Frc consts  --      3.1488                 1.3193                 1.8481
 IR Inten    --      5.1993                 3.9231                 7.5510

                     28                     29                     30
                      A                      A                      A
 Frequencies --   1197.9653              1274.7722              1347.2207
 Red. masses --      4.0333                10.9023                 2.8290
 Frc consts  --      3.4103                10.4384                 3.0252
 IR Inten    --     26.6829                76.4961                20.0271

                     31                     32                     33
                      A                      A                      A
 Frequencies --   1413.9326              1457.1868              1487.4239
 Red. masses --      8.1766                 9.1727                 7.8941
 Frc consts  --      9.6312                11.4757                10.2902
 IR Inten    --    181.4226                34.5129                29.8590

                     34                     35                     36
                      A                      A                      A
 Frequencies --   1575.2319              1587.0585              1661.4298
 Red. masses --     10.6434                 6.3376                10.6897
 Frc consts  --     15.5604                 9.4051                17.3852
 IR Inten    --    264.6327               157.6011                65.0899

                     37                     38                     39
                      A                      A                      A
 Frequencies --   2306.0332              3295.5684              3319.4126
 Red. masses --     13.9989                 1.0932                 1.1073
 Frc consts  --     43.8606                 6.9951                 7.1882
 IR Inten    --    574.9039                 0.5147                 2.3874

 - Thermochemistry -
 -------------------
 Temperature   298.150 Kelvin.  Pressure   1.00000 Atm.
 Atom     1 has atomic number  6 and mass  12.00000

 Molecular mass:   178.02392 amu.
 Principal axes and moments of inertia in atomic units:
                           1         2         3
     Eigenvalues --   831.857884154.642604986.50003
           X            0.99992  -0.01277   0.00001
           Y            0.01277   0.99992  -0.00002
           Z           -0.00000   0.00002   1.00000
 This molecule is an asymmetric top.
 Rotational symmetry number  1.
 Warning -- assumption of classical behavior for rotation
           may cause significant error
 Rotational temperatures (Kelvin)      0.10412     0.02085     0.01737
 Rotational constants (GHZ):           2.16953     0.43439     0.36193
 Zero-point vibrational energy     231996.7 (Joules/Mol)
                                   55.44855 (Kcal/Mol)
 Warning -- explicit consideration of  13 degrees of freedom as
           vibrations may cause significant error
 Vibrational temperatures:     63.21   116.47   136.66   155.11   229.91
          (Kelvin)            396.93   516.79   555.55   557.29   740.21
                              777.76   819.94   878.93   951.06  1032.12
                             1111.60  1149.57  1153.39  1264.28  1331.19
                             1352.62  1376.09  1396.81  1482.19  1517.25
                             1548.49  1651.56  1723.60  1834.11  1938.35
                             2034.33  2096.57  2140.07  2266.41  2283.42
                             2390.43  3317.87  4741.59  4775.89

 Zero-point correction=                           0.088363 (Hartree/Particle)
 Thermal correction to Energy=                    0.097988
 Thermal correction to Enthalpy=                  0.098932
 Thermal correction to Gibbs Free Energy=         0.051329
 Sum of electronic and zero-point Energies=           -670.458983
 Sum of electronic and thermal Energies=              -670.449358
 Sum of electronic and thermal Enthalpies=            -670.448414
 Sum of electronic and thermal Free Energies=         -670.496016

                     E (Thermal)             CV                S
                      KCal/Mol        Cal/Mol-Kelvin    Cal/Mol-Kelvin
 Total                   61.488             34.554            100.188
 Electronic               0.000              0.000              0.000
 Translational            0.889              2.981             41.437
 Rotational               0.889              2.981             31.222
 Vibrational             59.711             28.592             27.528
 Vibration     1          0.595              1.980              5.073
 Vibration     2          0.600              1.962              3.868
 Vibration     3          0.603              1.953              3.555
 Vibration     4          0.606              1.943              3.308
 Vibration     5          0.622              1.892              2.552
 Vibration     6          0.678              1.718              1.559
 Vibration     7          0.734              1.556              1.126
 Vibration     8          0.755              1.500              1.015
 Vibration     9          0.756              1.497              1.010
 Vibration    10          0.870              1.218              0.623
 Vibration    11          0.896              1.160              0.564
 Vibration    12          0.926              1.096              0.504
 Vibration    13          0.970              1.009              0.431

                           ! Non-Optimized Parameters !
 Normal termination of Gaussian 16 at Wed Dec  9 23:13:02 2020.

 ----------------------------------------------------------------------
 # B3LYP/6-311++G(d,p) empiricaldispersion=gd3bj scf=xqc pop=npa geom=c
 heck
 ----------------------------------------------------------------------

 ---------------------------------------
 CID_150276208_JID_3438_Energie_neutraal
 ---------------------------------------
 Structure from the checkpoint file:  "JID_3438.chk"
 Charge =  0 Multiplicity = 1

 SCF Done:  E(RB3LYP) =  -670.723853563     A.U. after   16 cycles
 Normal termination of Gaussian 16 at Wed Dec  9 23:13:53 2020.

 ----------------------------------------------------------------------
 # B3LYP/6-311++G(d,p) empiricaldispersion=gd3bj scf=xqc pop=npa geom=c
 heck
 ----------------------------------------------------------------------

 -------------------------------------
 CID_150276208_JID_3438_Energie_kation
 -------------------------------------
 Structure from the checkpoint file:  "JID_3438.chk"
 Charge =  1 Multiplicity = 2

 SCF Done:  E(UB3LYP) =  -670.373650797     A.U. after   25 cycles
 Normal termination of Gaussian 16 at Wed Dec  9 23:15:36 2020.
 Gaussian 16:  ES64L-G16RevA.03 25-Dec-2016

 ----------------------------------------------------------------------
 # B3LYP/6-311++G(d,p) empiricaldispersion=gd3bj scf=xqc pop=npa geom=c
 heck
 ----------------------------------------------------------------------

 ------------------------------------
 CID_150276208_JID_3438_Energie_anion
 ------------------------------------
 Structure from the checkpoint file:  "JID_3438.chk"
 Charge = -1 Multiplicity = 2

                         Standard orientation:
 ---------------------------------------------------------------------
 Center     Atomic      Atomic             Coordinates (Angstroms)
 Number     Number       Type             X           Y           Z
 ---------------------------------------------------------------------
      1          6           0       -2.064792    1.397640   -0.000844
      2          6           0       -3.418663    1.299777   -0.000425
      3          8           0       -3.792717    0.002071    0.000664
      4          7           0       -2.669104   -0.804523    0.001009
      5          6           0       -1.648043    0.033545   -0.000043
      6          6           0       -0.275015   -0.441356   -0.000145
      7          7           0        0.797860    0.302710   -0.000335
      8          6           0        1.792297   -0.648221   -0.000345
      9          7           0        1.383572   -1.899145   -0.000171
     10          8           0       -0.014971   -1.757239   -0.000040
     11          7           0        3.151161   -0.362813   -0.000665
     12          7           0        3.443362    0.848208    0.000269
     13          7           0        3.865953    1.900837    0.001070
     14          1           0       -1.439637    2.276024   -0.001660
     15          1           0       -4.223198    2.020095   -0.000756
 ---------------------------------------------------------------------

 SCF Done:  E(UB3LYP) =  -670.753847595     A.U. after   33 cycles
 SCF Done:  E(UB3LYP) =  -670.753847595     a.u. after    1 cycles

 The electronic state is 2-A.
 Alpha  occ. eigenvalues --  -19.05657 -19.04716 -14.38566 -14.28757 -14.26664
 Alpha  occ. eigenvalues --  -14.20257 -14.19111 -14.16658 -10.13070 -10.10786
 Alpha  occ. eigenvalues --  -10.09904 -10.05930 -10.04845  -1.04786  -1.00825
 Alpha  occ. eigenvalues --   -1.00102  -0.89424  -0.78548  -0.74240  -0.70595
 Alpha  occ. eigenvalues --   -0.65869  -0.57197  -0.52710  -0.48032  -0.45015
 Alpha  occ. eigenvalues --   -0.41940  -0.41701  -0.41121  -0.38190  -0.35955
 Alpha  occ. eigenvalues --   -0.34900  -0.32870  -0.32229  -0.30356  -0.27247
 Alpha  occ. eigenvalues --   -0.25201  -0.23274  -0.21741  -0.19637  -0.19505
 Alpha  occ. eigenvalues --   -0.16154  -0.15721  -0.15225  -0.13916  -0.11916
 Alpha  occ. eigenvalues --    0.03595
 Alpha virt. eigenvalues --    0.06289   0.08416   0.08680   0.11362   0.12349
 Alpha virt. eigenvalues --    0.12916   0.14789   0.15711   0.15789   0.17192
 Alpha virt. eigenvalues --    0.17281   0.18283   0.18617   0.19073   0.19376

  Beta  occ. eigenvalues --  -19.05340 -19.04330 -14.38514 -14.28750 -14.26677
  Beta  occ. eigenvalues --  -14.19830 -14.18369 -14.16562 -10.13102 -10.10434
  Beta  occ. eigenvalues --  -10.09880 -10.05882 -10.04881  -1.04726  -1.00209
  Beta  occ. eigenvalues --   -0.99460  -0.89395  -0.78183  -0.73531  -0.69900
  Beta  occ. eigenvalues --   -0.65570  -0.56995  -0.51893  -0.47803  -0.44718
  Beta  occ. eigenvalues --   -0.41715  -0.41528  -0.41004  -0.38025  -0.35905
  Beta  occ. eigenvalues --   -0.33354  -0.31926  -0.31360  -0.30160  -0.26907
  Beta  occ. eigenvalues --   -0.24897  -0.22529  -0.21701  -0.19020  -0.17748
  Beta  occ. eigenvalues --   -0.15547  -0.15073  -0.14336  -0.12428  -0.09618
  Beta virt. eigenvalues --    0.06316   0.08652   0.08941   0.11164   0.11337
  Beta virt. eigenvalues --    0.12898   0.13361   0.14799   0.15730   0.15789
  Beta virt. eigenvalues --    0.17302   0.17318   0.18277   0.18633   0.19412

 Mulliken charges and spin densities:
               1          2
     1  C   -0.015267  -0.000558
     2  C   -0.304602   0.046062
     3  O    0.164539   0.057432
     4  N   -0.531442   0.354789
     5  C   -0.115254   0.002823
     6  C    0.031494   0.211736
     7  N   -0.200567   0.036338
     8  C    0.012423  -0.015752
     9  N   -0.338064   0.203272
    10  O    0.054265   0.085649
    11  N   -0.303132  -0.004156
    12  N    0.477268   0.012294
    13  N   -0.209830   0.010012
    14  H    0.153653   0.002130
    15  H    0.124516  -0.002070
 Sum of Mulliken charges =  -1.00000   1.00000

 Dipole moment (field-independent basis, Debye):
    X=              0.9034    Y=              4.3402    Z=             -0.0023  Tot=              4.4332
 Quadrupole moment (field-independent basis, Debye-Ang):
   XX=           -108.6945   YY=            -92.3711   ZZ=            -76.3566
   XY=             -7.7047   XZ=              0.0046   YZ=             -0.0038

 Summary of Natural Population Analysis:

                                       Natural Population
                Natural  -----------------------------------------------
    Atom  No    Charge         Core      Valence    Rydberg      Total
 -----------------------------------------------------------------------
      C    1   -0.16255      0.99943     2.15399    0.00913     3.16255
      C    2    0.05191      0.99959     1.93205    0.01646     2.94809
      O    3   -0.14530      0.99987     3.13412    0.01130     4.14530
      N    4    0.04397      0.99968     2.44134    0.01501     3.45603
      C    5    0.03263      0.99942     1.95316    0.01479     2.96737
      C    6    0.32213      0.99960     1.65939    0.01888     2.67787
      N    7   -0.28344      0.99967     2.77495    0.00883     3.78344
      C    8    0.20555      0.99962     1.77529    0.01954     2.79445
      N    9   -0.04529      0.99966     2.53325    0.01238     3.54529
      O   10   -0.13116      0.99985     3.11838    0.01292     4.13116
      N   11   -0.17199      0.99962     2.65726    0.01511     3.67199
      N   12    0.13104      0.99971     2.35221    0.01704     3.36896
      N   13   -0.04653      0.99981     2.53276    0.01396     3.54653
      H   14    0.11116      0.00000     0.38755    0.00128     0.38884
      H   15    0.08792      0.00000     0.41085    0.00123     0.41208
 =======================================================================
   * Total *    0.00004     12.99554    31.81655    0.18787    44.99996

 Normal termination of Gaussian 16 at Wed Dec  9 23:17:57 2020.
