 Gaussian 16, Revision A.03,

 -----------------------------------------------------------
 # opt freq B3LYP/6-31G(d) empiricaldispersion=gd3bj scf=xqc
 -----------------------------------------------------------

 -------------------------------
 CID_151906143_JID_6793_neutraal
 -------------------------------
 Symbolic Z-matrix:
 Charge =  0 Multiplicity = 1

 SCF Done:  E(RB3LYP) =  -1459.44536667     A.U. after   15 cycles
 SCF Done:  E(RB3LYP) =  -1459.45005115     A.U. after   13 cycles
 SCF Done:  E(RB3LYP) =  -1459.45082184     A.U. after   12 cycles
 SCF Done:  E(RB3LYP) =  -1459.45105463     A.U. after   12 cycles
 SCF Done:  E(RB3LYP) =  -1459.45124053     A.U. after   12 cycles
 SCF Done:  E(RB3LYP) =  -1459.45135284     A.U. after   12 cycles
 SCF Done:  E(RB3LYP) =  -1459.45143551     A.U. after   12 cycles
 SCF Done:  E(RB3LYP) =  -1459.45144645     A.U. after    9 cycles
 SCF Done:  E(RB3LYP) =  -1459.45145521     A.U. after   10 cycles
 SCF Done:  E(RB3LYP) =  -1459.45145626     A.U. after    8 cycles
 SCF Done:  E(RB3LYP) =  -1459.45145664     A.U. after    8 cycles
 SCF Done:  E(RB3LYP) =  -1459.45145677     A.U. after    8 cycles
 SCF Done:  E(RB3LYP) =  -1459.45145684     A.U. after    8 cycles
 SCF Done:  E(RB3LYP) =  -1459.45145687     A.U. after    7 cycles
 Optimization completed.
    -- Stationary point found.
 Normal termination of Gaussian 16 at Fri Dec 11 00:32:19 2020.

 --------------------------------------------------------------------
 #N Geom=AllCheck Guess=TCheck SCRF=Check GenChk RB3LYP/6-31G(d) Freq
 --------------------------------------------------------------------

 Structure from the checkpoint file:  "JID_6793.chk"
 -------------------------------
 CID_151906143_JID_6793_neutraal
 -------------------------------
 Charge =  0 Multiplicity = 1

 SCF Done:  E(RB3LYP) =  -1459.45145687     A.U. after    1 cycles

  Exact polarizability: 216.424 -12.108 166.916   7.822   6.148  78.059
 Approx polarizability: 334.183 -17.774 303.339  23.917  20.185 124.101

                      1                      2                      3
                      A                      A                      A
 Frequencies --     23.9703                33.0036                58.5605
 Red. masses --      7.8923                 5.4102                 4.5137
 Frc consts  --      0.0027                 0.0035                 0.0091
 IR Inten    --      1.7677                 1.2286                 2.5115

                      4                      5                      6
                      A                      A                      A
 Frequencies --     68.3756               106.9409               154.7117
 Red. masses --      9.5972                 5.4978                 6.3517
 Frc consts  --      0.0264                 0.0370                 0.0896
 IR Inten    --      6.1104                 0.8739                 0.4391

                      7                      8                      9
                      A                      A                      A
 Frequencies --    205.7569               216.6496               255.4817
 Red. masses --      4.0196                 1.0906                 7.7548
 Frc consts  --      0.1003                 0.0302                 0.2982
 IR Inten    --      1.5020                 0.3994                 1.4970

                     10                     11                     12
                      A                      A                      A
 Frequencies --    261.7811               294.5803               315.5006
 Red. masses --      6.4797                 6.4253                 7.5116
 Frc consts  --      0.2616                 0.3285                 0.4405
 IR Inten    --      4.8814                 0.4075                 0.9914

                     13                     14                     15
                      A                      A                      A
 Frequencies --    329.0244               352.7839               424.5507
 Red. masses --      4.1653                 5.0881                 6.6607
 Frc consts  --      0.2657                 0.3731                 0.7073
 IR Inten    --      1.0629                 2.1830                 5.3744

                     16                     17                     18
                      A                      A                      A
 Frequencies --    455.2726               488.1214               505.7591
 Red. masses --      3.4657                 7.5724                 3.7209
 Frc consts  --      0.4232                 1.0630                 0.5608
 IR Inten    --     12.2495                26.4083                 0.6077

                     19                     20                     21
                      A                      A                      A
 Frequencies --    520.1888               579.2561               618.1451
 Red. masses --      5.1161                 2.6065                 4.4546
 Frc consts  --      0.8157                 0.5153                 1.0029
 IR Inten    --     59.6582                57.5198                 0.6378

                     22                     23                     24
                      A                      A                      A
 Frequencies --    633.5362               657.3589               680.4653
 Red. masses --     10.3625                 3.2839                 5.3419
 Frc consts  --      2.4505                 0.8361                 1.4573
 IR Inten    --      4.3382                37.5836                18.8618

                     25                     26                     27
                      A                      A                      A
 Frequencies --    703.7919               738.6099               743.1645
 Red. masses --      5.8117                 1.2695                 5.4782
 Frc consts  --      1.6961                 0.4080                 1.7826
 IR Inten    --     37.0845                34.0067                88.9006

                     28                     29                     30
                      A                      A                      A
 Frequencies --    758.0107               769.4011               860.3284
 Red. masses --      3.6256                 7.8362                 3.0378
 Frc consts  --      1.2274                 2.7331                 1.3248
 IR Inten    --      5.9680                10.3425                57.4212

                     31                     32                     33
                      A                      A                      A
 Frequencies --    870.7503               890.7536               900.6425
 Red. masses --      1.3765                 4.6698                 1.3195
 Frc consts  --      0.6149                 2.1831                 0.6306
 IR Inten    --     28.7744                14.7439                 1.0392

                     34                     35                     36
                      A                      A                      A
 Frequencies --    904.7672               932.6801               990.1234
 Red. masses --      1.6034                 5.1472                 1.3504
 Frc consts  --      0.7733                 2.6381                 0.7800
 IR Inten    --     22.7030                55.4137                 0.1266

                     37                     38                     39
                      A                      A                      A
 Frequencies --    998.5031              1001.9759              1011.2265
 Red. masses --      1.4311                 1.3778                 6.8938
 Frc consts  --      0.8406                 0.8150                 4.1534
 IR Inten    --     56.3760                23.5698                 4.2104

                     40                     41                     42
                      A                      A                      A
 Frequencies --   1047.7332              1097.0981              1131.8890
 Red. masses --      3.3392                 1.4224                 1.7671
 Frc consts  --      2.1597                 1.0087                 1.3339
 IR Inten    --     51.1904                 8.1517                68.6743

                     43                     44                     45
                      A                      A                      A
 Frequencies --   1141.1426              1185.2073              1249.4281
 Red. masses --      4.8374                 1.7783                 2.1331
 Frc consts  --      3.7114                 1.4717                 1.9619
 IR Inten    --    223.6689                12.8830                18.4992

                     46                     47                     48
                      A                      A                      A
 Frequencies --   1281.7002              1320.3185              1339.2467
 Red. masses --      1.8819                 6.3851                 3.8823
 Frc consts  --      1.8214                 6.5580                 4.1026
 IR Inten    --     23.6513                 1.3706                 1.9276

                     49                     50                     51
                      A                      A                      A
 Frequencies --   1360.1077              1366.7774              1378.9891
 Red. masses --      2.3063                 2.2808                 1.2161
 Frc consts  --      2.5137                 2.5103                 1.3625
 IR Inten    --     87.4649                36.7496                15.2263

                     52                     53                     54
                      A                      A                      A
 Frequencies --   1418.8971              1453.5280              1483.3673
 Red. masses --      2.6133                 2.6081                 2.1564
 Frc consts  --      3.0998                 3.2466                 2.7956
 IR Inten    --    255.1495                 4.1934                35.8289

                     55                     56                     57
                      A                      A                      A
 Frequencies --   1484.5883              1488.7586              1534.6313
 Red. masses --      1.2518                 1.1778                 2.5112
 Frc consts  --      1.6255                 1.5381                 3.4845
 IR Inten    --     17.5984                15.8743               138.2745

                     58                     59                     60
                      A                      A                      A
 Frequencies --   1561.0635              1614.1889              1659.6228
 Red. masses --      5.7089                 7.6233                 5.4511
 Frc consts  --      8.1968                11.7031                 8.8462
 IR Inten    --     30.8108                73.2815               229.7383

                     61                     62                     63
                      A                      A                      A
 Frequencies --   3086.7885              3187.1078              3187.5358
 Red. masses --      1.0290                 1.0906                 1.1067
 Frc consts  --      5.7768                 6.5271                 6.6250
 IR Inten    --      0.2916                29.2644                 0.4441

                     64                     65                     66
                      A                      A                      A
 Frequencies --   3192.9684              3235.3266              3238.4937
 Red. masses --      1.1081                 1.0918                 1.0916
 Frc consts  --      6.6559                 6.7336                 6.7454
 IR Inten    --      0.4759                 4.8403                11.5915

                     67                     68                     69
                      A                      A                      A
 Frequencies --   3249.1197              3283.5956              3552.4538
 Red. masses --      1.0931                 1.0979                 1.0754
 Frc consts  --      6.7990                 6.9745                 7.9958
 IR Inten    --      2.1395                 1.1452                59.4621

 - Thermochemistry -
 -------------------
 Temperature   298.150 Kelvin.  Pressure   1.00000 Atm.
 Atom     1 has atomic number  6 and mass  12.00000

 Molecular mass:   255.01362 amu.
 Principal axes and moments of inertia in atomic units:
                           1         2         3
     Eigenvalues --  2189.969527193.703748885.82036
           X            0.99997  -0.00322  -0.00659
           Y            0.00319   0.99998  -0.00529
           Z            0.00661   0.00527   0.99996
 This molecule is an asymmetric top.
 Rotational symmetry number  1.
 Warning -- assumption of classical behavior for rotation
           may cause significant error
 Rotational temperatures (Kelvin)      0.03955     0.01204     0.00975
 Rotational constants (GHZ):           0.82409     0.25088     0.20310
 Zero-point vibrational energy     473279.6 (Joules/Mol)
                                  113.11655 (Kcal/Mol)
 Warning -- explicit consideration of  21 degrees of freedom as
           vibrations may cause significant error
 Vibrational temperatures:     34.49    47.48    84.26    98.38   153.86
          (Kelvin)            222.60   296.04   311.71   367.58   376.64
                              423.84   453.94   473.39   507.58   610.83
                              655.04   702.30   727.67   748.44   833.42
                              889.37   911.52   945.79   979.04  1012.60
                             1062.69  1069.25  1090.61  1107.00  1237.82
                             1252.82  1281.60  1295.82  1301.76  1341.92
                             1424.57  1436.62  1441.62  1454.93  1507.45
                             1578.48  1628.54  1641.85  1705.25  1797.65
                             1844.08  1899.64  1926.88  1956.89  1966.49
                             1984.06  2041.48  2091.30  2134.23  2135.99
                             2141.99  2207.99  2246.02  2322.46  2387.83
                             4441.20  4585.54  4586.15  4593.97  4654.91
                             4659.47  4674.76  4724.36  5111.19

 Zero-point correction=                           0.180263 (Hartree/Particle)
 Thermal correction to Energy=                    0.194554
 Thermal correction to Enthalpy=                  0.195499
 Thermal correction to Gibbs Free Energy=         0.136737
 Sum of electronic and zero-point Energies=          -1459.271194
 Sum of electronic and thermal Energies=             -1459.256902
 Sum of electronic and thermal Enthalpies=           -1459.255958
 Sum of electronic and thermal Free Energies=        -1459.314720

                     E (Thermal)             CV                S
                      KCal/Mol        Cal/Mol-Kelvin    Cal/Mol-Kelvin
 Total                  122.085             53.912            123.675
 Electronic               0.000              0.000              0.000
 Translational            0.889              2.981             42.508
 Rotational               0.889              2.981             33.304
 Vibrational            120.307             47.950             47.863
 Vibration     1          0.593              1.985              6.275
 Vibration     2          0.594              1.983              5.640
 Vibration     3          0.596              1.974              4.505
 Vibration     4          0.598              1.969              4.200
 Vibration     5          0.606              1.944              3.324
 Vibration     6          0.620              1.897              2.613
 Vibration     7          0.640              1.832              2.081
 Vibration     8          0.645              1.816              1.987
 Vibration     9          0.666              1.754              1.692
 Vibration    10          0.669              1.743              1.650
 Vibration    11          0.689              1.684              1.448
 Vibration    12          0.703              1.644              1.333
 Vibration    13          0.712              1.618              1.265
 Vibration    14          0.729              1.570              1.154
 Vibration    15          0.787              1.417              0.877
 Vibration    16          0.814              1.349              0.780
 Vibration    17          0.844              1.276              0.688
 Vibration    18          0.861              1.237              0.644
 Vibration    19          0.875              1.205              0.610
 Vibration    20          0.936              1.076              0.487
 Vibration    21          0.978              0.994              0.419

 Optimization completed.
    -- Stationary point found.
 Normal termination of Gaussian 16 at Fri Dec 11 00:40:05 2020.

 ----------------------------------------------------------------------
 # B3LYP/6-311++G(d,p) empiricaldispersion=gd3bj scf=xqc pop=npa geom=c
 heck
 ----------------------------------------------------------------------

 ---------------------------------------
 CID_151906143_JID_6793_Energie_neutraal
 ---------------------------------------
 Structure from the checkpoint file:  "JID_6793.chk"
 Charge =  0 Multiplicity = 1

 SCF Done:  E(RB3LYP) =  -1459.68744337     A.U. after   16 cycles
 Normal termination of Gaussian 16 at Fri Dec 11 00:43:17 2020.

 ----------------------------------------------------------------------
 # B3LYP/6-311++G(d,p) empiricaldispersion=gd3bj scf=xqc pop=npa geom=c
 heck
 ----------------------------------------------------------------------

 -------------------------------------
 CID_151906143_JID_6793_Energie_kation
 -------------------------------------
 Structure from the checkpoint file:  "JID_6793.chk"
 Charge =  1 Multiplicity = 2

 SCF Done:  E(UB3LYP) =  -1459.36689483     A.U. after   29 cycles
 Normal termination of Gaussian 16 at Fri Dec 11 00:51:11 2020.
 Gaussian 16:  ES64L-G16RevA.03 25-Dec-2016

 ----------------------------------------------------------------------
 # B3LYP/6-311++G(d,p) empiricaldispersion=gd3bj scf=xqc pop=npa geom=c
 heck
 ----------------------------------------------------------------------

 ------------------------------------
 CID_151906143_JID_6793_Energie_anion
 ------------------------------------
 Structure from the checkpoint file:  "JID_6793.chk"
 Charge = -1 Multiplicity = 2

                         Standard orientation:
 ---------------------------------------------------------------------
 Center     Atomic      Atomic             Coordinates (Angstroms)
 Number     Number       Type             X           Y           Z
 ---------------------------------------------------------------------
      1          6           0       -2.835721   -0.649114    1.756992
      2         16           0       -3.017259   -0.820345   -0.029812
      3          8           0       -2.119476   -1.891808   -0.457420
      4          8           0       -4.438353   -0.819108   -0.363440
      5          7           0       -2.427196    0.637143   -0.657287
      6          6           0       -1.141292    1.146258   -0.375591
      7          7           0       -1.108466    2.466287   -0.169270
      8          6           0        0.090521    3.017466    0.067848
      9          6           0        1.274619    2.297036    0.145398
     10          6           0        1.223834    0.909351   -0.067120
     11          6           0       -0.011315    0.321432   -0.352021
     12          6           0        2.459144    0.123749    0.000007
     13          7           0        3.638132    0.643680    0.231341
     14          6           0        4.615667   -0.315223    0.244337
     15          6           0        4.194938   -1.597952    0.022571
     16         16           0        2.482657   -1.626957   -0.218162
     17          1           0       -3.157751   -1.592000    2.203745
     18          1           0       -3.466473    0.173341    2.098101
     19          1           0       -1.785191   -0.460343    1.985960
     20          1           0       -3.139186    1.363880   -0.659445
     21          1           0        0.092146    4.095121    0.214831
     22          1           0        2.221172    2.777915    0.357776
     23          1           0       -0.113819   -0.735649   -0.565356
     24          1           0        5.643187   -0.021411    0.423585
     25          1           0        4.782543   -2.504475   -0.012763
 ---------------------------------------------------------------------

 SCF Done:  E(UB3LYP) =  -1459.71985428     A.U. after   24 cycles

 The electronic state is 2-A.
 Alpha  occ. eigenvalues --  -88.97317 -88.73194 -19.02732 -19.02301 -14.24347
 Alpha  occ. eigenvalues --  -14.16295 -14.15875 -10.11982 -10.11673 -10.08000
 Alpha  occ. eigenvalues --  -10.06773 -10.06770 -10.05698 -10.04483 -10.03486
 Alpha  occ. eigenvalues --  -10.03225  -8.03449  -7.81893  -5.99734  -5.99691
 Alpha  occ. eigenvalues --   -5.99552  -5.78168  -5.77827  -5.77523  -1.02926
 Alpha  occ. eigenvalues --   -0.92061  -0.85261  -0.81957  -0.78586  -0.68321
 Alpha  occ. eigenvalues --   -0.67845  -0.65706  -0.62349  -0.59730  -0.54583
 Alpha  occ. eigenvalues --   -0.51411  -0.48909  -0.45457  -0.44158  -0.42852
 Alpha  occ. eigenvalues --   -0.39920  -0.38562  -0.37673  -0.36719  -0.35552
 Alpha  occ. eigenvalues --   -0.34376  -0.34277  -0.33597  -0.31073  -0.29445
 Alpha  occ. eigenvalues --   -0.28151  -0.27507  -0.26085  -0.25576  -0.23767
 Alpha  occ. eigenvalues --   -0.23483  -0.22679  -0.21896  -0.21717  -0.20791
 Alpha  occ. eigenvalues --   -0.17493  -0.14990  -0.13903  -0.13536  -0.11589
 Alpha  occ. eigenvalues --   -0.10154   0.02548
 Alpha virt. eigenvalues --    0.07207   0.08655   0.09469   0.10267   0.10655
 Alpha virt. eigenvalues --    0.10862   0.11389   0.12242   0.12716   0.13000
 Alpha virt. eigenvalues --    0.13684   0.13977   0.14138   0.14976   0.15561

  Beta  occ. eigenvalues --  -88.97318 -88.73131 -19.02731 -19.02299 -14.24351
  Beta  occ. eigenvalues --  -14.15907 -14.15571 -10.11978 -10.11699 -10.07812
  Beta  occ. eigenvalues --  -10.06878 -10.06733 -10.05420 -10.04201 -10.03356
  Beta  occ. eigenvalues --  -10.03178  -8.03450  -7.81837  -5.99736  -5.99691
  Beta  occ. eigenvalues --   -5.99551  -5.78140  -5.77801  -5.77313  -1.02924
  Beta  occ. eigenvalues --   -0.92057  -0.85093  -0.81512  -0.78236  -0.68248
  Beta  occ. eigenvalues --   -0.67287  -0.65230  -0.62105  -0.59418  -0.54492
  Beta  occ. eigenvalues --   -0.50851  -0.48823  -0.45096  -0.44027  -0.42742
  Beta  occ. eigenvalues --   -0.39908  -0.38396  -0.37516  -0.36584  -0.35500
  Beta  occ. eigenvalues --   -0.34233  -0.34207  -0.33465  -0.30957  -0.28618
  Beta  occ. eigenvalues --   -0.27942  -0.26548  -0.25827  -0.25353  -0.23655
  Beta  occ. eigenvalues --   -0.23471  -0.22433  -0.21855  -0.21501  -0.20454
  Beta  occ. eigenvalues --   -0.15702  -0.13639  -0.13457  -0.13150  -0.10809
  Beta  occ. eigenvalues --   -0.08748
  Beta virt. eigenvalues --    0.07191   0.08255   0.08639   0.09464   0.10290
  Beta virt. eigenvalues --    0.10638   0.10926   0.11470   0.12239   0.12931
  Beta virt. eigenvalues --    0.13694   0.13915   0.14136   0.14218   0.15017

 Mulliken charges and spin densities:
               1          2
     1  C   -0.543742  -0.019533
     2  S    0.192316   0.032065
     3  O   -0.171891  -0.010684
     4  O   -0.214034   0.005445
     5  N   -0.220939  -0.005355
     6  C   -0.653564  -0.027411
     7  N   -0.149204   0.182161
     8  C   -0.478352   0.019649
     9  C    0.132780   0.117463
    10  C    0.514335   0.117949
    11  C   -0.352638   0.132482
    12  C   -0.232575   0.077474
    13  N    0.017538   0.153695
    14  C   -0.050270  -0.061711
    15  C   -0.215417   0.191311
    16  S   -0.301458   0.114456
    17  H    0.204272   0.000543
    18  H    0.200274  -0.001345
    19  H    0.204169   0.016913
    20  H    0.328437  -0.001586
    21  H    0.136865  -0.005203
    22  H    0.181460  -0.002297
    23  H    0.188453  -0.017152
    24  H    0.116801   0.004131
    25  H    0.166383  -0.013460
 Sum of Mulliken charges =  -1.00000   1.00000

 Dipole moment (field-independent basis, Debye):
    X=             -2.7518    Y=             -0.9875    Z=              3.2001  Tot=              4.3345
 Quadrupole moment (field-independent basis, Debye-Ang):
   XX=           -157.5260   YY=           -131.0157   ZZ=           -114.3964
   XY=             -5.8275   XZ=            -10.0919   YZ=             -3.1588

 Summary of Natural Population Analysis:

                                       Natural Population
                Natural  -----------------------------------------------
    Atom  No    Charge         Core      Valence    Rydberg      Total
 -----------------------------------------------------------------------
      C    1   -0.39620      0.99961     2.38960    0.00699     3.39620
      S    2    1.09748      4.99936     1.80004    0.10313     6.90252
      O    3   -0.45655      0.99990     3.45036    0.00629     4.45655
      O    4   -0.46845      0.99990     3.46284    0.00570     4.46845
      N    5   -0.42952      0.99967     2.91279    0.01706     3.92952
      C    6    0.16820      0.99953     1.81607    0.01620     2.83180
      N    7   -0.21602      0.99966     2.70420    0.01216     3.71602
      C    8    0.02652      0.99960     1.95953    0.01435     2.97348
      C    9   -0.10911      0.99954     2.10091    0.00865     3.10911
      C   10    0.02959      0.99936     1.96084    0.01021     2.97041
      C   11   -0.11557      0.99949     2.10816    0.00792     3.11557
      C   12    0.05757      0.99956     1.92569    0.01717     2.94243
      N   13   -0.20627      0.99965     2.69372    0.01290     3.70627
      C   14   -0.05080      0.99955     2.03682    0.01442     3.05080
      C   15   -0.16866      0.99956     2.15862    0.01048     3.16866
      S   16    0.19313      4.99945     2.78559    0.02183     7.80687
      H   17    0.11222      0.00000     0.38667    0.00112     0.38778
      H   18    0.11155      0.00000     0.38748    0.00097     0.38845
      H   19    0.12403      0.00000     0.37485    0.00112     0.37597
      H   20    0.20431      0.00000     0.29374    0.00195     0.29569
      H   21    0.08071      0.00000     0.41796    0.00134     0.41929
      H   22    0.10887      0.00000     0.39011    0.00103     0.39113
      H   23    0.11430      0.00000     0.38428    0.00142     0.38570
      H   24    0.08947      0.00000     0.40934    0.00118     0.41053
      H   25    0.09922      0.00000     0.39971    0.00108     0.40078
 =======================================================================
   * Total *    0.00000     23.99341    41.70991    0.29668    66.00000

 Normal termination of Gaussian 16 at Fri Dec 11 00:57:51 2020.
