 Gaussian 16, Revision A.03,

 -----------------------------------------------------------
 # opt freq B3LYP/6-31G(d) empiricaldispersion=gd3bj scf=xqc
 -----------------------------------------------------------

 ------------------------------
 CID_54388135_JID_4002_neutraal
 ------------------------------
 Symbolic Z-matrix:
 Charge =  0 Multiplicity = 1

 SCF Done:  E(RB3LYP) =  -546.797002910     A.U. after   13 cycles
 SCF Done:  E(RB3LYP) =  -546.800725000     A.U. after   11 cycles
 SCF Done:  E(RB3LYP) =  -546.801118092     A.U. after   10 cycles
 SCF Done:  E(RB3LYP) =  -546.801450095     A.U. after   10 cycles
 SCF Done:  E(RB3LYP) =  -546.801612855     A.U. after   10 cycles
 SCF Done:  E(RB3LYP) =  -546.801708397     A.U. after    9 cycles
 SCF Done:  E(RB3LYP) =  -546.801857936     A.U. after    9 cycles
 SCF Done:  E(RB3LYP) =  -546.802060104     A.U. after   10 cycles
 SCF Done:  E(RB3LYP) =  -546.802113804     A.U. after    9 cycles
 SCF Done:  E(RB3LYP) =  -546.802183969     A.U. after   10 cycles
 SCF Done:  E(RB3LYP) =  -546.806259379     A.U. after    7 cycles
 SCF Done:  E(RB3LYP) =  -546.806259728     A.U. after    7 cycles
 SCF Done:  E(RB3LYP) =  -546.806259990     A.U. after    7 cycles
 SCF Done:  E(RB3LYP) =  -546.806260095     A.U. after    6 cycles
 SCF Done:  E(RB3LYP) =  -546.806260129     A.U. after    6 cycles
 Optimization completed.
    -- Stationary point found.
 Normal termination of Gaussian 16 at Thu Dec 10 10:00:01 2020.

 --------------------------------------------------------------------
 #N Geom=AllCheck Guess=TCheck SCRF=Check GenChk RB3LYP/6-31G(d) Freq
 --------------------------------------------------------------------

 Structure from the checkpoint file:  "JID_4002.chk"
 ------------------------------
 CID_54388135_JID_4002_neutraal
 ------------------------------
 Charge =  0 Multiplicity = 1

 SCF Done:  E(RB3LYP) =  -546.806260129     A.U. after    1 cycles

  Exact polarizability: 158.277  28.959 153.707 -20.414  15.143 124.049
 Approx polarizability: 239.259  49.646 228.066 -46.968  28.325 196.604

                      1                      2                      3
                      A                      A                      A
 Frequencies --     19.3648                27.1690                38.9231
 Red. masses --      3.6129                 3.4949                 2.8641
 Frc consts  --      0.0008                 0.0015                 0.0026
 IR Inten    --      0.0462                 0.1099                 0.0218

                      4                      5                      6
                      A                      A                      A
 Frequencies --     45.8749                68.9321                76.4908
 Red. masses --      2.6658                 2.6809                 1.7710
 Frc consts  --      0.0033                 0.0075                 0.0061
 IR Inten    --      0.0209                 0.0185                 0.0215

                      7                      8                      9
                      A                      A                      A
 Frequencies --     80.3818                90.6393                91.7375
 Red. masses --      2.6326                 2.0327                 3.0811
 Frc consts  --      0.0100                 0.0098                 0.0153
 IR Inten    --      0.0452                 0.0260                 0.0849

                     10                     11                     12
                      A                      A                      A
 Frequencies --    102.5422               107.5252               126.0824
 Red. masses --      2.2182                 1.2596                 2.0533
 Frc consts  --      0.0137                 0.0086                 0.0192
 IR Inten    --      0.0677                 0.0116                 0.8197

                     13                     14                     15
                      A                      A                      A
 Frequencies --    131.0815               162.0104               222.0059
 Red. masses --      1.6575                 1.1043                 2.3312
 Frc consts  --      0.0168                 0.0171                 0.0677
 IR Inten    --      0.2312                 0.1168                 2.3498

                     16                     17                     18
                      A                      A                      A
 Frequencies --    248.5364               302.2020               326.7095
 Red. masses --      2.8850                 3.4942                 1.0108
 Frc consts  --      0.1050                 0.1880                 0.0636
 IR Inten    --      0.6663                 0.0257                 0.1643

                     19                     20                     21
                      A                      A                      A
 Frequencies --    331.0056               419.7635               431.9466
 Red. masses --      1.0105                 1.9835                 2.8783
 Frc consts  --      0.0652                 0.2059                 0.3164
 IR Inten    --      0.2736                 9.1633                 4.0547

                     22                     23                     24
                      A                      A                      A
 Frequencies --    440.3655               480.5904               566.0045
 Red. masses --      3.0399                 5.3740                 3.3044
 Frc consts  --      0.3473                 0.7313                 0.6237
 IR Inten    --      0.9759                 0.0749                 2.0479

                     25                     26                     27
                      A                      A                      A
 Frequencies --    609.7258               656.8577               737.1104
 Red. masses --      6.3372                 5.0818                 1.9426
 Frc consts  --      1.3881                 1.2919                 0.6219
 IR Inten    --      0.9896                 2.4297                21.6062

                     28                     29                     30
                      A                      A                      A
 Frequencies --    769.7934               810.2959               832.5120
 Red. masses --      1.6862                 3.2132                 1.0576
 Frc consts  --      0.5887                 1.2430                 0.4319
 IR Inten    --     23.4718                 0.1872                10.4051

                     31                     32                     33
                      A                      A                      A
 Frequencies --    835.4891               837.2618               839.3868
 Red. masses --      1.0579                 1.0564                 1.0572
 Frc consts  --      0.4351                 0.4363                 0.4389
 IR Inten    --      4.5947                 6.9526                 3.4696

                     34                     35                     36
                      A                      A                      A
 Frequencies --    860.2856               876.2338               884.8775
 Red. masses --      1.4683                 1.3320                 4.2168
 Frc consts  --      0.6402                 0.6025                 1.9454
 IR Inten    --     16.6649                 1.9442                 0.0639

                     37                     38                     39
                      A                      A                      A
 Frequencies --    898.2720               934.9238               955.4652
 Red. masses --      4.2710                 1.4309                 1.5831
 Frc consts  --      2.0304                 0.7369                 0.8515
 IR Inten    --      0.1240                10.2538                 1.7226

                     40                     41                     42
                      A                      A                      A
 Frequencies --    977.8164              1012.4152              1013.6348
 Red. masses --      1.2607                 3.2449                 3.2710
 Frc consts  --      0.7102                 1.9596                 1.9801
 IR Inten    --      0.5304                 0.1784                 0.1682

                     43                     44                     45
                      A                      A                      A
 Frequencies --   1024.1075              1053.2073              1068.3212
 Red. masses --      1.5524                 2.1837                 1.4706
 Frc consts  --      0.9593                 1.4272                 0.9889
 IR Inten    --      2.4862                 1.7204                 3.1665

                     46                     47                     48
                      A                      A                      A
 Frequencies --   1126.5017              1169.6166              1171.5598
 Red. masses --      1.9555                 1.4777                 1.2407
 Frc consts  --      1.4621                 1.1911                 1.0033
 IR Inten    --      0.5036                 0.8516                 0.6175

                     49                     50                     51
                      A                      A                      A
 Frequencies --   1189.7234              1197.1403              1235.8763
 Red. masses --      1.2269                 1.7851                 1.4641
 Frc consts  --      1.0232                 1.5073                 1.3176
 IR Inten    --      0.0722                 0.6981                 0.3508

                     52                     53                     54
                      A                      A                      A
 Frequencies --   1236.8574              1238.3298              1238.5879
 Red. masses --      1.4624                 1.4609                 1.4601
 Frc consts  --      1.3181                 1.3199                 1.3197
 IR Inten    --      0.1308                 0.1014                 0.7309

                     55                     56                     57
                      A                      A                      A
 Frequencies --   1244.4127              1257.9072              1344.0780
 Red. masses --      1.7287                 2.9765                 1.6133
 Frc consts  --      1.5773                 2.7750                 1.7171
 IR Inten    --      4.1170                 4.1602                 0.5854

                     58                     59                     60
                      A                      A                      A
 Frequencies --   1348.2536              1401.0416              1431.2731
 Red. masses --      3.2188                 3.8847                 1.1987
 Frc consts  --      3.4473                 4.4927                 1.4467
 IR Inten    --      1.1459                 1.0118                 1.7209

                     61                     62                     63
                      A                      A                      A
 Frequencies --   1433.5252              1444.0256              1452.4521
 Red. masses --      1.1982                 1.3086                 1.2567
 Frc consts  --      1.4507                 1.6077                 1.5620
 IR Inten    --      1.0030                 1.2898                 1.5959

                     64                     65                     66
                      A                      A                      A
 Frequencies --   1457.3800              1467.9380              1507.9243
 Red. masses --      1.2492                 1.1307                 1.5384
 Frc consts  --      1.5632                 1.4355                 2.0610
 IR Inten    --      1.4227                 8.6944                 9.2978

                     67                     68                     69
                      A                      A                      A
 Frequencies --   1508.1695              1511.1163              1519.9087
 Red. masses --      1.2286                 2.4600                 1.2260
 Frc consts  --      1.6464                 3.3097                 1.6686
 IR Inten    --      8.2494                12.4055                 2.9111

                     70                     71                     72
                      A                      A                      A
 Frequencies --   1525.1134              1529.0196              1530.9520
 Red. masses --      1.0348                 1.0343                 1.0373
 Frc consts  --      1.4181                 1.4247                 1.4324
 IR Inten    --      2.9500                 3.5813                10.8683

                     73                     74                     75
                      A                      A                      A
 Frequencies --   1533.5784              1536.0451              1536.9675
 Red. masses --      1.0371                 1.0590                 1.0404
 Frc consts  --      1.4371                 1.4721                 1.4480
 IR Inten    --      2.6249                 9.8839                 1.3752

                     76                     77                     78
                      A                      A                      A
 Frequencies --   1542.5452              1545.0917              1638.6337
 Red. masses --      1.0525                 1.0478                 5.6160
 Frc consts  --      1.4756                 1.4738                 8.8846
 IR Inten    --      4.7650                 5.3398                 0.0866

                     79                     80                     81
                      A                      A                      A
 Frequencies --   1669.9974              1682.7967              3027.4084
 Red. masses --      6.5569                 6.2500                 1.0444
 Frc consts  --     10.7741                10.4278                 5.6395
 IR Inten    --      2.4326                15.1037                19.3220

                     82                     83                     84
                      A                      A                      A
 Frequencies --   3032.8032              3047.3849              3048.5334
 Red. masses --      1.0541                 1.0378                 1.0372
 Frc consts  --      5.7123                 5.6784                 5.6790
 IR Inten    --     45.1640                14.6941                32.4962

                     85                     86                     87
                      A                      A                      A
 Frequencies --   3050.6522              3052.7532              3057.8932
 Red. masses --      1.0361                 1.0386                 1.1008
 Frc consts  --      5.6814                 5.7029                 6.0647
 IR Inten    --     19.7019                32.7436                11.2575

                     88                     89                     90
                      A                      A                      A
 Frequencies --   3072.7965              3096.5024              3099.8655
 Red. masses --      1.0998                 1.1011                 1.1013
 Frc consts  --      6.1181                 6.2202                 6.2350
 IR Inten    --     26.3532                13.6226                13.1431

                     91                     92                     93
                      A                      A                      A
 Frequencies --   3106.5885              3107.8828              3123.8147
 Red. masses --      1.0992                 1.1003                 1.0993
 Frc consts  --      6.2502                 6.2619                 6.3203
 IR Inten    --      8.1981                30.0245                18.1995

                     94                     95                     96
                      A                      A                      A
 Frequencies --   3126.1947              3129.1499              3135.5976
 Red. masses --      1.1019                 1.1020                 1.1012
 Frc consts  --      6.3452                 6.3572                 6.3789
 IR Inten    --     28.0833                80.0798                74.0356

                     97                     98                     99
                      A                      A                      A
 Frequencies --   3140.2565              3177.9909              3185.9728
 Red. masses --      1.1009                 1.0862                 1.0884
 Frc consts  --      6.3961                 6.4636                 6.5090
 IR Inten    --     24.7013                 4.0651                 7.4942

                    100                    101                    102
                      A                      A                      A
 Frequencies --   3198.8369              3208.8124              3214.6182
 Red. masses --      1.0923                 1.0969                 1.0943
 Frc consts  --      6.5851                 6.6542                 6.6627
 IR Inten    --     30.8511                28.8330                15.3513

 - Thermochemistry -
 -------------------
 Temperature   298.150 Kelvin.  Pressure   1.00000 Atm.
 Atom     1 has atomic number  6 and mass  12.00000

 Molecular mass:   190.17215 amu.
 Principal axes and moments of inertia in atomic units:
                           1         2         3
     Eigenvalues --  2860.020513420.351344237.09638
           X            0.99991  -0.00706  -0.01116
           Y            0.00726   0.99982   0.01772
           Z            0.01103  -0.01780   0.99978
 This molecule is an asymmetric top.
 Rotational symmetry number  1.
 Warning -- assumption of classical behavior for rotation
           may cause significant error
 Rotational temperatures (Kelvin)      0.03028     0.02532     0.02044
 Rotational constants (GHZ):           0.63102     0.52765     0.42594
 Zero-point vibrational energy     844997.4 (Joules/Mol)
                                  201.95922 (Kcal/Mol)
 Warning -- explicit consideration of  25 degrees of freedom as
           vibrations may cause significant error
 Vibrational temperatures:     27.86    39.09    56.00    66.00    99.18
          (Kelvin)            110.05   115.65   130.41   131.99   147.54
                              154.70   181.40   188.60   233.10   319.42
                              357.59   434.80   470.06   476.24   603.95
                              621.47   633.59   691.46   814.35   877.26
                              945.07  1060.54  1107.56  1165.84  1197.80
                             1202.08  1204.63  1207.69  1237.76  1260.71
                             1273.14  1292.41  1345.15  1374.70  1406.86
                             1456.64  1458.39  1473.46  1515.33  1537.08
                             1620.78  1682.82  1685.61  1711.75  1722.42
                             1778.15  1779.56  1781.68  1782.05  1790.43
                             1809.85  1933.83  1939.84  2015.79  2059.28
                             2062.52  2077.63  2089.75  2096.84  2112.04
                             2169.57  2169.92  2174.16  2186.81  2194.30
                             2199.92  2202.70  2206.48  2210.03  2211.35
                             2219.38  2223.04  2357.63  2402.75  2421.17
                             4355.77  4363.53  4384.51  4386.16  4389.21
                             4392.23  4399.63  4421.07  4455.18  4460.02
                             4469.69  4471.55  4494.47  4497.90  4502.15
                             4511.43  4518.13  4572.42  4583.90  4602.41
                             4616.77  4625.12

 Zero-point correction=                           0.321842 (Hartree/Particle)
 Thermal correction to Energy=                    0.340564
 Thermal correction to Enthalpy=                  0.341509
 Thermal correction to Gibbs Free Energy=         0.271685
 Sum of electronic and zero-point Energies=           -546.484418
 Sum of electronic and thermal Energies=              -546.465696
 Sum of electronic and thermal Enthalpies=            -546.464752
 Sum of electronic and thermal Free Energies=         -546.534575

                     E (Thermal)             CV                S
                      KCal/Mol        Cal/Mol-Kelvin    Cal/Mol-Kelvin
 Total                  213.707             63.959            146.957
 Electronic               0.000              0.000              0.000
 Translational            0.889              2.981             41.634
 Rotational               0.889              2.981             32.094
 Vibrational            211.930             57.997             73.228
 Vibration     1          0.593              1.986              6.698
 Vibration     2          0.593              1.984              6.026
 Vibration     3          0.594              1.981              5.313
 Vibration     4          0.595              1.979              4.988
 Vibration     5          0.598              1.969              4.184
 Vibration     6          0.599              1.965              3.979
 Vibration     7          0.600              1.962              3.882
 Vibration     8          0.602              1.956              3.646
 Vibration     9          0.602              1.955              3.623
 Vibration    10          0.605              1.947              3.405
 Vibration    11          0.606              1.943              3.313
 Vibration    12          0.611              1.927              3.005
 Vibration    13          0.612              1.922              2.930
 Vibration    14          0.622              1.889              2.526
 Vibration    15          0.648              1.808              1.943
 Vibration    16          0.662              1.765              1.741
 Vibration    17          0.694              1.670              1.405
 Vibration    18          0.710              1.622              1.276
 Vibration    19          0.713              1.614              1.255
 Vibration    20          0.782              1.427              0.893
 Vibration    21          0.793              1.401              0.852
 Vibration    22          0.800              1.382              0.825
 Vibration    23          0.837              1.293              0.708
 Vibration    24          0.922              1.105              0.512
 Vibration    25          0.969              1.011              0.433

                           ! Non-Optimized Parameters !
 Normal termination of Gaussian 16 at Thu Dec 10 10:11:49 2020.

 ----------------------------------------------------------------------
 # B3LYP/6-311++G(d,p) empiricaldispersion=gd3bj scf=xqc pop=npa geom=c
 heck
 ----------------------------------------------------------------------

 --------------------------------------
 CID_54388135_JID_4002_Energie_neutraal
 --------------------------------------
 Structure from the checkpoint file:  "JID_4002.chk"
 Charge =  0 Multiplicity = 1

 SCF Done:  E(RB3LYP) =  -546.953546271     A.U. after   14 cycles
 Normal termination of Gaussian 16 at Thu Dec 10 10:17:09 2020.

 ----------------------------------------------------------------------
 # B3LYP/6-311++G(d,p) empiricaldispersion=gd3bj scf=xqc pop=npa geom=c
 heck
 ----------------------------------------------------------------------

 ------------------------------------
 CID_54388135_JID_4002_Energie_kation
 ------------------------------------
 Structure from the checkpoint file:  "JID_4002.chk"
 Charge =  1 Multiplicity = 2

 SCF Done:  E(UB3LYP) =  -546.671945376     A.U. after   21 cycles
 Normal termination of Gaussian 16 at Thu Dec 10 10:27:54 2020.
 Gaussian 16:  ES64L-G16RevA.03 25-Dec-2016

 ----------------------------------------------------------------------
 # B3LYP/6-311++G(d,p) empiricaldispersion=gd3bj scf=xqc pop=npa geom=c
 heck
 ----------------------------------------------------------------------

 -----------------------------------
 CID_54388135_JID_4002_Energie_anion
 -----------------------------------
 Structure from the checkpoint file:  "JID_4002.chk"
 Charge = -1 Multiplicity = 2

                         Standard orientation:
 ---------------------------------------------------------------------
 Center     Atomic      Atomic             Coordinates (Angstroms)
 Number     Number       Type             X           Y           Z
 ---------------------------------------------------------------------
      1          6           0       -1.069754    0.283703   -2.454194
      2          6           0       -0.539647    1.682498   -2.135609
      3          6           0       -3.457490    1.107730    0.377876
      4          6           0       -2.464112    1.971431    1.156096
      5          6           0        3.181457    2.024173    0.554015
      6          6           0        2.217801    0.883096    0.517024
      7          6           0        1.134329    0.688782    1.300288
      8          6           0        0.451120   -0.551001    0.926034
      9          6           0       -0.702408   -1.156090    1.424502
     10          6           0       -1.136217   -2.353652    0.846523
     11          6           0       -0.425864   -2.938952   -0.205383
     12          6           0        0.736732   -2.334477   -0.702396
     13          6           0        1.166420   -1.143709   -0.137351
     14          6           0        2.345323   -0.260675   -0.472420
     15          1           0       -0.276161   -0.364026   -2.841848
     16          1           0       -1.866350    0.322313   -3.206703
     17          1           0       -1.471714   -0.201632   -1.560097
     18          1           0        0.226314    1.647775   -1.353675
     19          1           0       -0.098536    2.156296   -3.020811
     20          1           0       -1.340926    2.338214   -1.776392
     21          1           0       -3.167357    0.052255    0.408097
     22          1           0       -3.501001    1.405901   -0.675557
     23          1           0       -4.470038    1.192137    0.789497
     24          1           0       -1.453857    1.876063    0.746558
     25          1           0       -2.741703    3.031445    1.120723
     26          1           0       -2.423011    1.677256    2.211842
     27          1           0        4.207138    1.677251    0.739879
     28          1           0        3.200819    2.559734   -0.405019
     29          1           0        2.919471    2.742569    1.336923
     30          1           0        0.803893    1.352409    2.092987
     31          1           0       -1.257474   -0.705104    2.242029
     32          1           0       -2.035143   -2.835407    1.221369
     33          1           0       -0.778027   -3.869189   -0.641889
     34          1           0        1.283785   -2.792024   -1.523152
     35          1           0        2.306850    0.101743   -1.509956
     36          1           0        3.306883   -0.783126   -0.364832
 ---------------------------------------------------------------------

 SCF Done:  E(UB3LYP) =  -546.937766758     A.U. after   33 cycles
 SCF Done:  E(UB3LYP) =  -546.937766758     a.u. after    1 cycles

 The electronic state is 2-A.
 Alpha  occ. eigenvalues --  -10.08688 -10.08129 -10.08107 -10.08057 -10.07915
 Alpha  occ. eigenvalues --  -10.07842 -10.07735 -10.07716 -10.07080 -10.07029
 Alpha  occ. eigenvalues --  -10.06397 -10.06301 -10.05486 -10.05413  -0.78463
 Alpha  occ. eigenvalues --   -0.72752  -0.66278  -0.65905  -0.65107  -0.64984
 Alpha  occ. eigenvalues --   -0.59739  -0.58683  -0.52281  -0.51338  -0.50196
 Alpha  occ. eigenvalues --   -0.48438  -0.44408  -0.41223  -0.36628  -0.36243
 Alpha  occ. eigenvalues --   -0.35928  -0.34863  -0.34435  -0.33436  -0.32984
 Alpha  occ. eigenvalues --   -0.32619  -0.32130  -0.30663  -0.30565  -0.28038
 Alpha  occ. eigenvalues --   -0.27620  -0.26962  -0.26396  -0.26079  -0.25410
 Alpha  occ. eigenvalues --   -0.25085  -0.24647  -0.24297  -0.23808  -0.23772
 Alpha  occ. eigenvalues --   -0.19728  -0.15474  -0.12079   0.04385
 Alpha virt. eigenvalues --    0.06088   0.06256   0.06536   0.07280   0.07954
 Alpha virt. eigenvalues --    0.08161   0.08424   0.08766   0.09389   0.09741
 Alpha virt. eigenvalues --    0.10578   0.10964   0.11301   0.11861   0.12352

  Beta  occ. eigenvalues --  -10.08680 -10.08123 -10.08082 -10.08052 -10.07908
  Beta  occ. eigenvalues --  -10.07831 -10.07728 -10.07705 -10.07070 -10.06985
  Beta  occ. eigenvalues --  -10.06383 -10.06283 -10.05465 -10.05401  -0.78446
  Beta  occ. eigenvalues --   -0.72729  -0.66257  -0.65882  -0.65067  -0.64957
  Beta  occ. eigenvalues --   -0.59698  -0.58634  -0.52226  -0.51282  -0.50155
  Beta  occ. eigenvalues --   -0.48408  -0.44362  -0.41180  -0.36594  -0.36205
  Beta  occ. eigenvalues --   -0.35892  -0.34844  -0.34415  -0.33411  -0.32964
  Beta  occ. eigenvalues --   -0.32601  -0.32102  -0.30620  -0.30521  -0.27997
  Beta  occ. eigenvalues --   -0.27578  -0.26926  -0.26361  -0.26050  -0.25389
  Beta  occ. eigenvalues --   -0.25066  -0.24619  -0.24279  -0.23787  -0.23741
  Beta  occ. eigenvalues --   -0.19697  -0.15457  -0.12041
  Beta virt. eigenvalues --    0.06258   0.06383   0.06999   0.07144   0.07597
  Beta virt. eigenvalues --    0.08083   0.08657   0.08898   0.09145   0.09648
  Beta virt. eigenvalues --    0.10179   0.11091   0.11274   0.11573   0.12205

 Mulliken charges and spin densities:
               1          2
     1  C   -0.327653  -0.048322
     2  C   -0.354388  -0.125743
     3  C   -0.100017  -0.295249
     4  C   -0.056599  -0.399555
     5  C    3.898720  -4.339454
     6  C   -3.250262   3.388099
     7  C    0.830829  -1.147266
     8  C    0.258837   0.191382
     9  C   -1.178361   1.057993
    10  C    0.555833  -0.950324
    11  C    0.353545  -0.746190
    12  C   -1.152544   1.042039
    13  C   -0.811085   1.046649
    14  C    2.031806  -2.788407
    15  H    0.060522   0.058537
    16  H   -0.001270   0.136421
    17  H    0.224819  -0.062174
    18  H    0.942942  -0.736979
    19  H   -0.267255   0.404666
    20  H    0.002385   0.111439
    21  H    0.073671   0.059639
    22  H    0.100577   0.026266
    23  H   -0.112671   0.244162
    24  H   -0.156717   0.337294
    25  H   -0.117629   0.243709
    26  H    0.061257   0.061151
    27  H   -0.289898   0.443990
    28  H   -0.419394   0.589050
    29  H   -0.345655   0.500309
    30  H   -0.146572   0.312210
    31  H   -0.072815   0.234193
    32  H   -0.216399   0.384029
    33  H   -0.194583   0.358012
    34  H   -0.545701   0.722006
    35  H   -0.199262   0.412202
    36  H   -0.079011   0.274216
 Sum of Mulliken charges =  -1.00000   1.00000

 Dipole moment (field-independent basis, Debye):
    X=             -3.3743    Y=             -2.1935    Z=              1.0957  Tot=              4.1711
 Quadrupole moment (field-independent basis, Debye-Ang):
   XX=           -155.7236   YY=           -146.5372   ZZ=           -132.1164
   XY=             -8.4303   XZ=              4.0946   YZ=             -1.0302

 Summary of Natural Population Analysis:

                                       Natural Population
                Natural  -----------------------------------------------
    Atom  No    Charge         Core      Valence    Rydberg      Total
 -----------------------------------------------------------------------
      C    1   -0.28706      0.99968     2.28240    0.00498     3.28706
      C    2   -0.28727      0.99967     2.28269    0.00490     3.28727
      C    3   -0.28662      0.99968     2.28282    0.00412     3.28662
      C    4   -0.28761      0.99968     2.28337    0.00456     3.28761
      C    5   -0.29951      0.99961     2.29363    0.00627     3.29951
      C    6    0.01845      0.99952     1.97161    0.01043     2.98155
      C    7   -0.11408      0.99942     2.10453    0.01013     3.11408
      C    8   -0.03034      0.99946     2.02028    0.01060     3.03034
      C    9   -0.10371      0.99951     2.09480    0.00939     3.10371
      C   10   -0.10450      0.99957     2.09449    0.01044     3.10450
      C   11   -0.10680      0.99957     2.09713    0.01011     3.10680
      C   12   -0.09900      0.99950     2.08990    0.00960     3.09900
      C   13   -0.00321      0.99949     1.99295    0.01077     3.00321
      C   14   -0.21587      0.99956     2.20736    0.00895     3.21587
      H   15    0.09656      0.00000     0.40236    0.00108     0.40344
      H   16    0.09037      0.00000     0.40880    0.00083     0.40963
      H   17    0.10025      0.00000     0.39759    0.00217     0.39975
      H   18    0.09883      0.00000     0.39892    0.00225     0.40117
      H   19    0.09354      0.00000     0.40542    0.00104     0.40646
      H   20    0.09357      0.00000     0.40545    0.00098     0.40643
      H   21    0.09971      0.00000     0.39900    0.00129     0.40029
      H   22    0.09581      0.00000     0.40318    0.00101     0.40419
      H   23    0.09150      0.00000     0.40750    0.00100     0.40850
      H   24    0.10215      0.00000     0.39622    0.00163     0.39785
      H   25    0.09360      0.00000     0.40549    0.00091     0.40640
      H   26    0.09286      0.00000     0.40602    0.00111     0.40714
      H   27    0.10550      0.00000     0.39307    0.00142     0.39450
      H   28    0.10865      0.00000     0.38928    0.00207     0.39135
      H   29    0.10526      0.00000     0.39350    0.00124     0.39474
      H   30    0.10352      0.00000     0.39543    0.00105     0.39648
      H   31    0.10146      0.00000     0.39692    0.00162     0.39854
      H   32    0.09954      0.00000     0.39956    0.00090     0.40046
      H   33    0.09941      0.00000     0.39972    0.00087     0.40059
      H   34    0.10130      0.00000     0.39715    0.00155     0.39870
      H   35    0.11801      0.00000     0.38029    0.00169     0.38199
      H   36    0.11574      0.00000     0.38314    0.00112     0.38426
 =======================================================================
   * Total *   -0.00000     13.99392    38.86200    0.14409    53.00000

 Normal termination of Gaussian 16 at Thu Dec 10 10:47:14 2020.
