 Gaussian 16, Revision A.03,

 -----------------------------------------------------------
 # opt freq B3LYP/6-31G(d) empiricaldispersion=gd3bj scf=xqc
 -----------------------------------------------------------

 -------------------------------
 CID_136922634_JID_6752_neutraal
 -------------------------------
 Symbolic Z-matrix:
 Charge =  0 Multiplicity = 1

 SCF Done:  E(RB3LYP) =  -1079.60039562     A.U. after   15 cycles
 SCF Done:  E(RB3LYP) =  -1079.60683368     A.U. after   12 cycles
 SCF Done:  E(RB3LYP) =  -1079.60734604     A.U. after   12 cycles
 SCF Done:  E(RB3LYP) =  -1079.60744867     A.U. after   11 cycles
 SCF Done:  E(RB3LYP) =  -1079.60748491     A.U. after   10 cycles
 SCF Done:  E(RB3LYP) =  -1079.60750331     A.U. after   10 cycles
 SCF Done:  E(RB3LYP) =  -1079.60750927     A.U. after    9 cycles
 SCF Done:  E(RB3LYP) =  -1079.60751133     A.U. after    9 cycles
 SCF Done:  E(RB3LYP) =  -1079.60751191     A.U. after    8 cycles
 Optimization completed.
    -- Stationary point found.
 Normal termination of Gaussian 16 at Thu Dec 10 23:17:39 2020.

 --------------------------------------------------------------------
 #N Geom=AllCheck Guess=TCheck SCRF=Check GenChk RB3LYP/6-31G(d) Freq
 --------------------------------------------------------------------

 Structure from the checkpoint file:  "JID_6752.chk"
 -------------------------------
 CID_136922634_JID_6752_neutraal
 -------------------------------
 Charge =  0 Multiplicity = 1

 SCF Done:  E(RB3LYP) =  -1079.60751191     A.U. after    1 cycles

  Exact polarizability: 219.188   7.252 155.653   1.060   0.431  72.492
 Approx polarizability: 307.295  12.879 294.407  -0.343   1.307 119.183

                      1                      2                      3
                      A                      A                      A
 Frequencies --     45.5744                81.7090               105.2621
 Red. masses --      6.6492                 3.9718                 4.1736
 Frc consts  --      0.0081                 0.0156                 0.0272
 IR Inten    --      2.2198                 1.4749                 6.7196

                      4                      5                      6
                      A                      A                      A
 Frequencies --    146.3879               178.7669               198.0518
 Red. masses --      6.9404                 5.0404                 5.6144
 Frc consts  --      0.0876                 0.0949                 0.1298
 IR Inten    --      2.2919                 3.6603                 2.1267

                      7                      8                      9
                      A                      A                      A
 Frequencies --    254.7451               266.9495               305.8694
 Red. masses --      3.0424                 2.6708                 3.9836
 Frc consts  --      0.1163                 0.1121                 0.2196
 IR Inten    --      2.4017                 1.3328                 1.5852

                     10                     11                     12
                      A                      A                      A
 Frequencies --    347.4321               350.1011               362.7038
 Red. masses --      1.7907                 1.6704                 6.0043
 Frc consts  --      0.1274                 0.1206                 0.4654
 IR Inten    --     84.8690                32.1492                 5.3357

                     13                     14                     15
                      A                      A                      A
 Frequencies --    377.8378               416.0253               467.9350
 Red. masses --      5.9739                 3.9837                 7.3045
 Frc consts  --      0.5025                 0.4062                 0.9423
 IR Inten    --      2.6218                 6.5629                 0.7318

                     16                     17                     18
                      A                      A                      A
 Frequencies --    483.9779               533.0140               564.8675
 Red. masses --      3.2882                 8.2154                 4.1219
 Frc consts  --      0.4538                 1.3752                 0.7749
 IR Inten    --      9.2739                 3.6594                 5.6399

                     19                     20                     21
                      A                      A                      A
 Frequencies --    593.5795               609.0312               616.2820
 Red. masses --      1.9624                 2.0515                 2.7851
 Frc consts  --      0.4074                 0.4483                 0.6232
 IR Inten    --    137.6825                31.8712               152.4463

                     22                     23                     24
                      A                      A                      A
 Frequencies --    633.6059               658.4281               675.1303
 Red. masses --      2.3739                 3.9679                 4.2986
 Frc consts  --      0.5615                 1.0135                 1.1544
 IR Inten    --    107.5589                25.1646                 6.3935

                     25                     26                     27
                      A                      A                      A
 Frequencies --    701.0511               736.4177               745.5034
 Red. masses --      4.5137                 5.0972                 6.2941
 Frc consts  --      1.3070                 1.6287                 2.0610
 IR Inten    --      0.1275                75.9733                 6.1479

                     28                     29                     30
                      A                      A                      A
 Frequencies --    772.6768               802.5453               815.8792
 Red. masses --      4.0093                 4.9747                 8.3569
 Frc consts  --      1.4103                 1.8878                 3.2775
 IR Inten    --      3.7115                 1.9355                15.1554

                     31                     32                     33
                      A                      A                      A
 Frequencies --    863.3337               890.3279               947.7281
 Red. masses --      1.9189                 2.2032                 3.9135
 Frc consts  --      0.8427                 1.0290                 2.0710
 IR Inten    --      3.0820                 6.8495                10.5595

                     34                     35                     36
                      A                      A                      A
 Frequencies --    975.8702               991.7895              1029.8233
 Red. masses --      1.4903                 2.2466                 2.5423
 Frc consts  --      0.8362                 1.3020                 1.5886
 IR Inten    --      4.2994                 0.4893                 3.4404

                     37                     38                     39
                      A                      A                      A
 Frequencies --   1062.8129              1080.2384              1153.7781
 Red. masses --      2.7761                 2.9016                 2.0291
 Frc consts  --      1.8475                 1.9949                 1.5915
 IR Inten    --     19.1491                 3.3013                 9.5448

                     40                     41                     42
                      A                      A                      A
 Frequencies --   1179.3673              1196.1627              1221.5128
 Red. masses --      1.4068                 2.6431                 1.2568
 Frc consts  --      1.1529                 2.2281                 1.1049
 IR Inten    --      9.5670                 9.9021                13.5754

                     43                     44                     45
                      A                      A                      A
 Frequencies --   1246.9754              1251.8040              1260.1897
 Red. masses --      1.7982                 1.7390                 2.8105
 Frc consts  --      1.6474                 1.6056                 2.6297
 IR Inten    --      5.5478                 6.3697                22.5904

                     46                     47                     48
                      A                      A                      A
 Frequencies --   1302.4425              1331.1123              1342.9494
 Red. masses --      2.1622                 3.2305                 1.7356
 Frc consts  --      2.1610                 3.3724                 1.8442
 IR Inten    --     55.0853                35.1248                26.9694

                     49                     50                     51
                      A                      A                      A
 Frequencies --   1349.6319              1366.6077              1402.2666
 Red. masses --      1.2732                 2.1446                 2.5198
 Frc consts  --      1.3664                 2.3598                 2.9193
 IR Inten    --     19.3959                 0.7856                 1.1826

                     52                     53                     54
                      A                      A                      A
 Frequencies --   1424.9926              1463.9222              1490.3854
 Red. masses --      2.6441                 1.1386                 1.1137
 Frc consts  --      3.1634                 1.4377                 1.4576
 IR Inten    --     51.0874                 6.6556                 4.1721

                     55                     56                     57
                      A                      A                      A
 Frequencies --   1503.6145              1516.0433              1544.8661
 Red. masses --      1.0978                 3.6335                 3.9120
 Frc consts  --      1.4624                 4.9204                 5.5008
 IR Inten    --     10.4638               245.5302                47.9307

                     58                     59                     60
                      A                      A                      A
 Frequencies --   1596.0097              1628.8948              1653.2543
 Red. masses --      5.7940                 6.1948                 1.5537
 Frc consts  --      8.6956                 9.6842                 2.5020
 IR Inten    --    148.0667               279.1456                45.0988

                     61                     62                     63
                      A                      A                      A
 Frequencies --   1711.4741              1776.2141              3037.1516
 Red. masses --      3.1026                 8.7892                 1.0680
 Frc consts  --      5.3544                16.3377                 5.8044
 IR Inten    --    685.9257               377.9719                25.3647

                     64                     65                     66
                      A                      A                      A
 Frequencies --   3058.4706              3073.0949              3109.9027
 Red. masses --      1.0674                 1.0652                 1.0955
 Frc consts  --      5.8830                 5.9272                 6.2427
 IR Inten    --     24.3079                 5.5428                 5.3806

                     67                     68                     69
                      A                      A                      A
 Frequencies --   3114.5383              3129.8661              3142.2025
 Red. masses --      1.0946                 1.1007                 1.0897
 Frc consts  --      6.2559                 6.3528                 6.3391
 IR Inten    --      4.1557                10.9734                38.5714

                     70                     71                     72
                      A                      A                      A
 Frequencies --   3561.0632              3588.2446              3669.1628
 Red. masses --      1.0477                 1.0773                 1.1000
 Frc consts  --      7.8281                 8.1723                 8.7250
 IR Inten    --     52.7769                47.2405                32.2658

 - Thermochemistry -
 -------------------
 Temperature   298.150 Kelvin.  Pressure   1.00000 Atm.
 Atom     1 has atomic number  6 and mass  12.00000

 Molecular mass:   234.05753 amu.
 Principal axes and moments of inertia in atomic units:
                           1         2         3
     Eigenvalues --  1615.110715840.802267321.01430
           X            0.99997   0.00182   0.00792
           Y           -0.00180   0.99999  -0.00274
           Z           -0.00792   0.00272   0.99996
 This molecule is an asymmetric top.
 Rotational symmetry number  1.
 Warning -- assumption of classical behavior for rotation
           may cause significant error
 Rotational temperatures (Kelvin)      0.05363     0.01483     0.01183
 Rotational constants (GHZ):           1.11741     0.30899     0.24652
 Zero-point vibrational energy     526879.9 (Joules/Mol)
                                  125.92731 (Kcal/Mol)
 Warning -- explicit consideration of  21 degrees of freedom as
           vibrations may cause significant error
 Vibrational temperatures:     65.57   117.56   151.45   210.62   257.21
          (Kelvin)            284.95   366.52   384.08   440.08   499.88
                              503.72   521.85   543.62   598.57   673.25
                              696.34   766.89   812.72   854.03   876.26
                              886.69   911.62   947.33   971.36  1008.66
                             1059.54  1072.61  1111.71  1154.68  1173.87
                             1242.14  1280.98  1363.57  1404.06  1426.96
                             1481.69  1529.15  1554.22  1660.03  1696.85
                             1721.01  1757.48  1794.12  1801.07  1813.13
                             1873.92  1915.17  1932.20  1941.82  1966.24
                             2017.55  2050.25  2106.26  2144.33  2163.37
                             2181.25  2222.72  2296.30  2343.62  2378.66
                             2462.43  2555.58  4369.78  4400.46  4421.50
                             4474.46  4481.13  4503.18  4520.93  5123.58
                             5162.68  5279.11

 Zero-point correction=                           0.200678 (Hartree/Particle)
 Thermal correction to Energy=                    0.213529
 Thermal correction to Enthalpy=                  0.214473
 Thermal correction to Gibbs Free Energy=         0.161193
 Sum of electronic and zero-point Energies=          -1079.406834
 Sum of electronic and thermal Energies=             -1079.393983
 Sum of electronic and thermal Enthalpies=           -1079.393038
 Sum of electronic and thermal Free Energies=        -1079.446319

                     E (Thermal)             CV                S
                      KCal/Mol        Cal/Mol-Kelvin    Cal/Mol-Kelvin
 Total                  133.992             51.329            112.138
 Electronic               0.000              0.000              0.000
 Translational            0.889              2.981             42.253
 Rotational               0.889              2.981             32.601
 Vibrational            132.214             45.367             37.283
 Vibration     1          0.595              1.979              5.001
 Vibration     2          0.600              1.962              3.849
 Vibration     3          0.605              1.945              3.354
 Vibration     4          0.617              1.907              2.719
 Vibration     5          0.629              1.868              2.341
 Vibration     6          0.637              1.843              2.151
 Vibration     7          0.665              1.755              1.698
 Vibration     8          0.672              1.734              1.616
 Vibration     9          0.696              1.663              1.385
 Vibration    10          0.725              1.580              1.178
 Vibration    11          0.727              1.575              1.166
 Vibration    12          0.737              1.549              1.110
 Vibration    13          0.748              1.517              1.048
 Vibration    14          0.779              1.435              0.906
 Vibration    15          0.825              1.321              0.743
 Vibration    16          0.840              1.286              0.699
 Vibration    17          0.888              1.177              0.581
 Vibration    18          0.921              1.107              0.514
 Vibration    19          0.951              1.045              0.461
 Vibration    20          0.968              1.013              0.434
 Vibration    21          0.976              0.997              0.422

                           ! Non-Optimized Parameters !
 Normal termination of Gaussian 16 at Thu Dec 10 23:26:41 2020.

 ----------------------------------------------------------------------
 # B3LYP/6-311++G(d,p) empiricaldispersion=gd3bj scf=xqc pop=npa geom=c
 heck
 ----------------------------------------------------------------------

 ---------------------------------------
 CID_136922634_JID_6752_Energie_neutraal
 ---------------------------------------
 Structure from the checkpoint file:  "JID_6752.chk"
 Charge =  0 Multiplicity = 1

 SCF Done:  E(RB3LYP) =  -1079.82119890     A.U. after   15 cycles
 Normal termination of Gaussian 16 at Thu Dec 10 23:30:45 2020.

 ----------------------------------------------------------------------
 # B3LYP/6-311++G(d,p) empiricaldispersion=gd3bj scf=xqc pop=npa geom=c
 heck
 ----------------------------------------------------------------------

 -------------------------------------
 CID_136922634_JID_6752_Energie_kation
 -------------------------------------
 Structure from the checkpoint file:  "JID_6752.chk"
 Charge =  1 Multiplicity = 2

 SCF Done:  E(UB3LYP) =  -1079.52878395     A.U. after   26 cycles
 Normal termination of Gaussian 16 at Thu Dec 10 23:40:38 2020.
 Gaussian 16:  ES64L-G16RevA.03 25-Dec-2016

 ----------------------------------------------------------------------
 # B3LYP/6-311++G(d,p) empiricaldispersion=gd3bj scf=xqc pop=npa geom=c
 heck
 ----------------------------------------------------------------------

 ------------------------------------
 CID_136922634_JID_6752_Energie_anion
 ------------------------------------
 Structure from the checkpoint file:  "JID_6752.chk"
 Charge = -1 Multiplicity = 2

                         Standard orientation:
 ---------------------------------------------------------------------
 Center     Atomic      Atomic             Coordinates (Angstroms)
 Number     Number       Type             X           Y           Z
 ---------------------------------------------------------------------
      1          6           0        1.518220   -1.485541    0.145588
      2          6           0        3.008741   -1.403184    0.464973
      3         16           0        3.867136   -0.131417   -0.528746
      4          6           0        2.924201    1.246959    0.209294
      5          6           0        1.424430    1.068692    0.142285
      6          6           0        0.637334    2.234103    0.105095
      7          7           0       -0.682978    2.280796    0.057485
      8          6           0       -1.338840    1.103011    0.028636
      9          6           0       -0.648759   -0.143992    0.046690
     10          6           0        0.770056   -0.166665    0.120394
     11          6           0       -1.448175   -1.373088   -0.009250
     12          8           0       -1.055133   -2.534194   -0.016534
     13          7           0       -2.831395   -1.136472   -0.051295
     14          6           0       -3.400264    0.112826   -0.063778
     15          7           0       -2.710823    1.210907   -0.036338
     16          7           0       -4.775573    0.159101   -0.054481
     17          1           0        1.377105   -1.974055   -0.825158
     18          1           0        1.035471   -2.153577    0.864165
     19          1           0        3.487707   -2.361802    0.249734
     20          1           0        3.176579   -1.180764    1.525423
     21          1           0        3.254373    1.371742    1.249074
     22          1           0        3.213543    2.155325   -0.327501
     23          1           0        1.141532    3.201821    0.112990
     24          1           0       -3.398792   -1.975744   -0.017811
     25          1           0       -5.270019   -0.560339   -0.566896
     26          1           0       -5.126888    1.094573   -0.218975
 ---------------------------------------------------------------------

 SCF Done:  E(UB3LYP) =  -1079.82949847     A.U. after   33 cycles
 SCF Done:  E(UB3LYP) =  -1079.83036518     a.u. after   11 cycles

 The electronic state is 2-A.
 Alpha  occ. eigenvalues --  -88.73294 -18.95431 -14.23871 -14.22902 -14.17007
 Alpha  occ. eigenvalues --  -14.15526 -10.17244 -10.13943 -10.10651 -10.09550
 Alpha  occ. eigenvalues --  -10.09388 -10.05787 -10.05436 -10.05407 -10.05353
 Alpha  occ. eigenvalues --  -10.04751  -7.81942  -5.78304  -5.78007  -5.77309
 Alpha  occ. eigenvalues --   -0.92205  -0.88216  -0.81765  -0.78988  -0.75898
 Alpha  occ. eigenvalues --   -0.72849  -0.66976  -0.65324  -0.61795  -0.55102
 Alpha  occ. eigenvalues --   -0.54198  -0.52184  -0.50352  -0.46612  -0.44682
 Alpha  occ. eigenvalues --   -0.42158  -0.40899  -0.38644  -0.37389  -0.35261
 Alpha  occ. eigenvalues --   -0.34395  -0.34016  -0.33073  -0.31877  -0.30535
 Alpha  occ. eigenvalues --   -0.28835  -0.27907  -0.27203  -0.26665  -0.25512
 Alpha  occ. eigenvalues --   -0.25095  -0.22664  -0.21140  -0.17837  -0.16697
 Alpha  occ. eigenvalues --   -0.16132  -0.14721  -0.14246  -0.12075  -0.11504
 Alpha  occ. eigenvalues --   -0.09803   0.03846
 Alpha virt. eigenvalues --    0.05461   0.08010   0.08685   0.09239   0.09637
 Alpha virt. eigenvalues --    0.10165   0.11183   0.11552   0.12293   0.12525
 Alpha virt. eigenvalues --    0.12858   0.14048   0.14205   0.14746   0.15077

  Beta  occ. eigenvalues --  -88.73294 -18.95198 -14.23815 -14.22861 -14.16975
  Beta  occ. eigenvalues --  -14.15371 -10.17250 -10.13755 -10.10639 -10.09538
  Beta  occ. eigenvalues --  -10.09384 -10.05509 -10.05456 -10.05439 -10.05043
  Beta  occ. eigenvalues --  -10.04717  -7.81942  -5.78305  -5.78007  -5.77309
  Beta  occ. eigenvalues --   -0.91909  -0.88023  -0.81496  -0.78836  -0.75713
  Beta  occ. eigenvalues --   -0.72710  -0.66618  -0.65265  -0.61547  -0.54807
  Beta  occ. eigenvalues --   -0.53967  -0.52065  -0.50194  -0.46436  -0.44504
  Beta  occ. eigenvalues --   -0.42005  -0.40726  -0.38557  -0.37281  -0.35076
  Beta  occ. eigenvalues --   -0.34172  -0.33663  -0.33055  -0.31721  -0.30373
  Beta  occ. eigenvalues --   -0.28538  -0.27643  -0.27067  -0.25785  -0.25310
  Beta  occ. eigenvalues --   -0.24641  -0.22517  -0.21084  -0.17410  -0.16068
  Beta  occ. eigenvalues --   -0.15950  -0.14217  -0.13172  -0.11979  -0.11356
  Beta  occ. eigenvalues --   -0.09174
  Beta virt. eigenvalues --    0.06635   0.07959   0.08637   0.08901   0.09683
  Beta virt. eigenvalues --    0.09919   0.10218   0.11237   0.11789   0.12354
  Beta virt. eigenvalues --    0.12551   0.12902   0.14052   0.14423   0.14973

 Mulliken charges and spin densities:
               1          2
     1  C   -0.567043   0.071748
     2  C   -0.403935  -0.187273
     3  S    0.148540  -0.039207
     4  C   -0.957722  -0.051619
     5  C    0.072483  -0.187398
     6  C   -0.072160   0.165138
     7  N   -0.035280   0.028912
     8  C   -0.759953  -0.364738
     9  C    0.465073  -0.064202
    10  C    0.710245   0.251337
    11  C    0.357101   0.245262
    12  O   -0.389838   0.075323
    13  N   -0.344749  -0.028400
    14  C    0.283466  -0.022782
    15  N   -0.179294  -0.017873
    16  N   -0.392152   0.132200
    17  H    0.140228   0.035094
    18  H    0.182526   0.014151
    19  H    0.183470   0.014725
    20  H    0.159705   0.003767
    21  H    0.197145  -0.003797
    22  H    0.144154   0.003464
    23  H    0.152802  -0.020253
    24  H    0.080018   0.252598
    25  H   -0.293770   0.531451
    26  H    0.118940   0.162373
 Sum of Mulliken charges =  -1.00000   1.00000

 Dipole moment (field-independent basis, Debye):
    X=              4.2757    Y=             -0.6913    Z=              1.1879  Tot=              4.4912
 Quadrupole moment (field-independent basis, Debye-Ang):
   XX=           -154.2410   YY=           -132.4549   ZZ=           -111.2406
   XY=              0.2151   XZ=              3.3193   YZ=             -1.4309

 Summary of Natural Population Analysis:

                                       Natural Population
                Natural  -----------------------------------------------
    Atom  No    Charge         Core      Valence    Rydberg      Total
 -----------------------------------------------------------------------
      C    1   -0.21339      0.99959     2.20420    0.00959     3.21339
      C    2   -0.24288      0.99960     2.23495    0.00834     3.24288
      S    3    0.07408      4.99964     2.90581    0.02047     7.92592
      C    4   -0.24475      0.99955     2.23601    0.00919     3.24475
      C    5   -0.08872      0.99946     2.07975    0.00952     3.08872
      C    6    0.10263      0.99955     1.88411    0.01370     2.89737
      N    7   -0.22606      0.99968     2.71455    0.01183     3.72606
      C    8    0.20152      0.99950     1.78027    0.01871     2.79848
      C    9   -0.10168      0.99941     2.09468    0.00758     3.10168
      C   10    0.09234      0.99946     1.89857    0.00963     2.90766
      C   11    0.35629      0.99963     1.62073    0.02336     2.64371
      O   12   -0.31108      0.99988     3.30561    0.00559     4.31108
      N   13   -0.30803      0.99964     2.79955    0.00885     3.80803
      C   14    0.30757      0.99963     1.67555    0.01726     2.69243
      N   15   -0.28435      0.99962     2.77425    0.01047     3.78435
      N   16   -0.40095      0.99971     2.89146    0.00979     3.90095
      H   17    0.11296      0.00000     0.38480    0.00224     0.38704
      H   18    0.12055      0.00000     0.37809    0.00136     0.37945
      H   19    0.10224      0.00000     0.39675    0.00101     0.39776
      H   20    0.09447      0.00000     0.40410    0.00143     0.40553
      H   21    0.09681      0.00000     0.40165    0.00153     0.40319
      H   22    0.10617      0.00000     0.39266    0.00117     0.39383
      H   23    0.07370      0.00000     0.42472    0.00158     0.42630
      H   24    0.19725      0.00000     0.29977    0.00298     0.30275
      H   25    0.18846      0.00000     0.30696    0.00458     0.31154
      H   26    0.19486      0.00000     0.30257    0.00257     0.30514
 =======================================================================
   * Total *   -0.00000     19.99355    40.79211    0.21433    61.00000

 Normal termination of Gaussian 16 at Fri Dec 11 01:43:56 2020.
