 Gaussian 16, Revision A.03,

 -----------------------------------------------------------
 # opt freq B3LYP/6-31G(d) empiricaldispersion=gd3bj scf=xqc
 -----------------------------------------------------------

 ------------------------------
 CID_133625280_JID_219_neutraal
 ------------------------------
 Symbolic Z-matrix:
 Charge =  0 Multiplicity = 1

 SCF Done:  E(RB3LYP) =  -819.880382435     A.U. after   15 cycles
 SCF Done:  E(RB3LYP) =  -819.887674215     A.U. after   12 cycles
 SCF Done:  E(RB3LYP) =  -819.889158453     A.U. after   12 cycles
 SCF Done:  E(RB3LYP) =  -819.890430615     A.U. after   13 cycles
 SCF Done:  E(RB3LYP) =  -819.891090853     A.U. after   12 cycles
 SCF Done:  E(RB3LYP) =  -819.891636920     A.U. after   12 cycles
 SCF Done:  E(RB3LYP) =  -819.891582099     A.U. after   12 cycles
 SCF Done:  E(RB3LYP) =  -819.891725358     A.U. after   12 cycles
 SCF Done:  E(RB3LYP) =  -819.891961379     A.U. after   12 cycles
 SCF Done:  E(RB3LYP) =  -819.892015019     A.U. after   11 cycles
 SCF Done:  E(RB3LYP) =  -819.892032700     A.U. after   10 cycles
 SCF Done:  E(RB3LYP) =  -819.892035509     A.U. after    9 cycles
 SCF Done:  E(RB3LYP) =  -819.892036124     A.U. after    8 cycles
 SCF Done:  E(RB3LYP) =  -819.892036307     A.U. after    8 cycles
 SCF Done:  E(RB3LYP) =  -819.892036376     A.U. after    7 cycles
 Optimization completed.
    -- Stationary point found.
 Normal termination of Gaussian 16 at Tue Dec  8 10:23:07 2020.

 --------------------------------------------------------------------
 #N Geom=AllCheck Guess=TCheck SCRF=Check GenChk RB3LYP/6-31G(d) Freq
 --------------------------------------------------------------------

 Structure from the checkpoint file:  "JID_219.chk"
 ------------------------------
 CID_133625280_JID_219_neutraal
 ------------------------------
 Charge =  0 Multiplicity = 1

 SCF Done:  E(RB3LYP) =  -819.892036376     A.U. after    1 cycles

  Exact polarizability: 114.123   5.039  98.719  -2.188  -2.433  82.842
 Approx polarizability: 149.339  17.507 155.093  -7.010  -3.831 133.330

                      1                      2                      3
                      A                      A                      A
 Frequencies --     71.3896                78.2008               102.2943
 Red. masses --      3.8077                 4.3849                 2.9769
 Frc consts  --      0.0114                 0.0158                 0.0184
 IR Inten    --      7.0557                 5.0519                 6.3769

                      4                      5                      6
                      A                      A                      A
 Frequencies --    137.3380               161.0415               181.1734
 Red. masses --      2.8050                 3.8404                 1.2070
 Frc consts  --      0.0312                 0.0587                 0.0233
 IR Inten    --      2.4191                 1.6985                 0.5419

                      7                      8                      9
                      A                      A                      A
 Frequencies --    189.1814               218.7604               266.0714
 Red. masses --      2.0183                 1.1995                 2.2413
 Frc consts  --      0.0426                 0.0338                 0.0935
 IR Inten    --      3.1316                 4.0763                 5.1679

                     10                     11                     12
                      A                      A                      A
 Frequencies --    274.5597               303.7074               340.1616
 Red. masses --      2.2625                 3.0692                 3.4958
 Frc consts  --      0.1005                 0.1668                 0.2383
 IR Inten    --      4.4365                 2.3393                 0.9419

                     13                     14                     15
                      A                      A                      A
 Frequencies --    386.7303               416.5453               431.1653
 Red. masses --      3.0250                 1.2651                 3.9361
 Frc consts  --      0.2666                 0.1293                 0.4311
 IR Inten    --     14.6543                62.0466                48.6376

                     16                     17                     18
                      A                      A                      A
 Frequencies --    450.2758               500.1843               591.1456
 Red. masses --      2.9528                 2.9703                 3.7125
 Frc consts  --      0.3527                 0.4378                 0.7644
 IR Inten    --     30.6984                 6.5978                 9.0982

                     19                     20                     21
                      A                      A                      A
 Frequencies --    637.3470               745.4258               810.2556
 Red. masses --      5.0395                 3.4920                 3.7107
 Frc consts  --      1.2061                 1.1432                 1.4353
 IR Inten    --      9.6100                38.5465                42.2485

                     22                     23                     24
                      A                      A                      A
 Frequencies --    853.5991               908.9971               930.0510
 Red. masses --      1.9340                 1.5865                 1.4927
 Frc consts  --      0.8302                 0.7723                 0.7607
 IR Inten    --      6.7738                13.9826                90.2391

                     25                     26                     27
                      A                      A                      A
 Frequencies --    956.6471               969.8324               994.6780
 Red. masses --      1.3493                 1.3783                 1.4816
 Frc consts  --      0.7276                 0.7638                 0.8636
 IR Inten    --     13.1238                21.4882                13.6493

                     28                     29                     30
                      A                      A                      A
 Frequencies --   1006.0919              1019.1481              1028.6795
 Red. masses --      1.5819                 1.2896                 2.4173
 Frc consts  --      0.9434                 0.7892                 1.5071
 IR Inten    --     11.9258                36.4591                 2.8256

                     31                     32                     33
                      A                      A                      A
 Frequencies --   1047.2800              1097.5433              1137.1244
 Red. masses --      1.4600                 2.9897                 5.3151
 Frc consts  --      0.9435                 2.1219                 4.0493
 IR Inten    --     33.9519                23.1428               149.4702

                     34                     35                     36
                      A                      A                      A
 Frequencies --   1149.1155              1190.4034              1223.9561
 Red. masses --      1.6807                 1.2902                 6.9093
 Frc consts  --      1.3075                 1.0772                 6.0984
 IR Inten    --     18.8958                 2.7665               268.8983

                     37                     38                     39
                      A                      A                      A
 Frequencies --   1257.2164              1312.2380              1339.5338
 Red. masses --      1.2038                 1.2493                 1.2846
 Frc consts  --      1.1211                 1.2675                 1.3581
 IR Inten    --      7.5746                16.5161                 0.5892

                     40                     41                     42
                      A                      A                      A
 Frequencies --   1351.3656              1361.4103              1380.1638
 Red. masses --      1.2021                 1.1951                 1.2028
 Frc consts  --      1.2934                 1.3050                 1.3499
 IR Inten    --      3.9115                 6.8809                 8.2377

                     43                     44                     45
                      A                      A                      A
 Frequencies --   1393.9319              1434.3800              1478.2286
 Red. masses --      1.2971                 1.4060                 1.0519
 Frc consts  --      1.4849                 1.7044                 1.3542
 IR Inten    --      6.9105                 8.6767                 8.5303

                     46                     47                     48
                      A                      A                      A
 Frequencies --   1482.9948              1488.3328              1500.8054
 Red. masses --      1.0504                 1.0476                 1.0531
 Frc consts  --      1.3610                 1.3672                 1.3976
 IR Inten    --      2.5273                 0.4648                13.4900

                     49                     50                     51
                      A                      A                      A
 Frequencies --   1532.0137              1539.6112              1698.6192
 Red. masses --      1.0917                 1.0965                 1.0966
 Frc consts  --      1.5096                 1.5314                 1.8642
 IR Inten    --      3.1170                 0.9482                27.2463

                     52                     53                     54
                      A                      A                      A
 Frequencies --   1754.0416              2979.0976              2998.0975
 Red. masses --      5.6955                 1.0709                 1.0703
 Frc consts  --     10.3243                 5.5998                 5.6680
 IR Inten    --      0.5057                81.2501                64.0879

                     55                     56                     57
                      A                      A                      A
 Frequencies --   3066.0689              3069.6467              3071.6482
 Red. masses --      1.0909                 1.0922                 1.0287
 Frc consts  --      6.0424                 6.0633                 5.7184
 IR Inten    --     53.2608                36.4182                11.8460

                     58                     59                     60
                      A                      A                      A
 Frequencies --   3091.2765              3146.4439              3164.6720
 Red. masses --      1.0292                 1.0899                 1.0885
 Frc consts  --      5.7943                 6.3573                 6.4231
 IR Inten    --      2.0359                19.2969                15.6813

                     61                     62                     63
                      A                      A                      A
 Frequencies --   3172.6130              3182.7041              3194.2642
 Red. masses --      1.1064                 1.1087                 1.1081
 Frc consts  --      6.5616                 6.6167                 6.6617
 IR Inten    --      5.8291                 5.3504                 2.3823

                     64                     65                     66
                      A                      A                      A
 Frequencies --   3199.8517              3445.4338              3537.7433
 Red. masses --      1.1064                 1.0501                 1.0934
 Frc consts  --      6.6748                 7.3445                 8.0630
 IR Inten    --      0.7785                26.4371                 4.5504

 - Thermochemistry -
 -------------------
 Temperature   298.150 Kelvin.  Pressure   1.00000 Atm.
 Atom     1 has atomic number  6 and mass  12.00000

 Molecular mass:   162.08268 amu.
 Principal axes and moments of inertia in atomic units:
                           1         2         3
     Eigenvalues --  1000.388082227.615222714.19354
           X            0.99995  -0.00162   0.01013
           Y            0.00177   0.99989  -0.01497
           Z           -0.01010   0.01499   0.99984
 This molecule is an asymmetric top.
 Rotational symmetry number  1.
 Warning -- assumption of classical behavior for rotation
           may cause significant error
 Rotational temperatures (Kelvin)      0.08658     0.03888     0.03191
 Rotational constants (GHZ):           1.80404     0.81017     0.66493
 Zero-point vibrational energy     540894.8 (Joules/Mol)
                                  129.27696 (Kcal/Mol)
 Warning -- explicit consideration of  18 degrees of freedom as
           vibrations may cause significant error
 Vibrational temperatures:    102.71   112.51   147.18   197.60   231.70
          (Kelvin)            260.67   272.19   314.75   382.82   395.03
                              436.97   489.42   556.42   599.32   620.35
                              647.85   719.65   850.53   917.00  1072.50
                             1165.78  1228.14  1307.84  1338.14  1376.40
                             1395.37  1431.12  1447.54  1466.33  1480.04
                             1506.80  1579.12  1636.07  1653.32  1712.72
                             1761.00  1808.85  1888.02  1927.29  1944.31
                             1958.77  1985.75  2005.56  2063.75  2126.84
                             2133.70  2141.38  2159.32  2204.23  2215.16
                             2443.93  2523.67  4286.26  4313.59  4411.39
                             4416.54  4419.42  4447.66  4527.03  4553.26
                             4564.68  4579.20  4595.83  4603.87  4957.21
                             5090.02

 Zero-point correction=                           0.206016 (Hartree/Particle)
 Thermal correction to Energy=                    0.218330
 Thermal correction to Enthalpy=                  0.219275
 Thermal correction to Gibbs Free Energy=         0.168144
 Sum of electronic and zero-point Energies=           -819.686020
 Sum of electronic and thermal Energies=              -819.673706
 Sum of electronic and thermal Enthalpies=            -819.672762
 Sum of electronic and thermal Free Energies=         -819.723892

                     E (Thermal)             CV                S
                      KCal/Mol        Cal/Mol-Kelvin    Cal/Mol-Kelvin
 Total                  137.004             45.054            107.613
 Electronic               0.000              0.000              0.000
 Translational            0.889              2.981             41.158
 Rotational               0.889              2.981             30.182
 Vibrational            135.227             39.092             36.274
 Vibration     1          0.598              1.968              4.115
 Vibration     2          0.599              1.964              3.936
 Vibration     3          0.604              1.947              3.410
 Vibration     4          0.614              1.916              2.841
 Vibration     5          0.622              1.890              2.538
 Vibration     6          0.630              1.865              2.316
 Vibration     7          0.633              1.855              2.236
 Vibration     8          0.647              1.812              1.969
 Vibration     9          0.672              1.735              1.622
 Vibration    10          0.677              1.720              1.567
 Vibration    11          0.695              1.667              1.396
 Vibration    12          0.720              1.595              1.211
 Vibration    13          0.755              1.499              1.013
 Vibration    14          0.780              1.434              0.904
 Vibration    15          0.792              1.402              0.855
 Vibration    16          0.809              1.360              0.795
 Vibration    17          0.856              1.250              0.658
 Vibration    18          0.949              1.051              0.465

 Optimization completed.
    -- Stationary point found.
 Normal termination of Gaussian 16 at Tue Dec  8 10:27:45 2020.

 ----------------------------------------------------------------------
 # B3LYP/6-311++G(d,p) empiricaldispersion=gd3bj scf=xqc pop=npa geom=c
 heck
 ----------------------------------------------------------------------

 --------------------------------------
 CID_133625280_JID_219_Energie_neutraal
 --------------------------------------
 Structure from the checkpoint file:  "JID_219.chk"
 Charge =  0 Multiplicity = 1

 SCF Done:  E(RB3LYP) =  -820.052048065     A.U. after   15 cycles
 Normal termination of Gaussian 16 at Tue Dec  8 10:29:59 2020.

 ----------------------------------------------------------------------
 # B3LYP/6-311++G(d,p) empiricaldispersion=gd3bj scf=xqc pop=npa geom=c
 heck
 ----------------------------------------------------------------------

 ------------------------------------
 CID_133625280_JID_219_Energie_kation
 ------------------------------------
 Structure from the checkpoint file:  "JID_219.chk"
 Charge =  1 Multiplicity = 2

 SCF Done:  E(UB3LYP) =  -819.747808429     A.U. after   32 cycles
 Normal termination of Gaussian 16 at Tue Dec  8 10:37:26 2020.
 Gaussian 16:  ES64L-G16RevA.03 25-Dec-2016

 ----------------------------------------------------------------------
 # B3LYP/6-311++G(d,p) empiricaldispersion=gd3bj scf=xqc pop=npa geom=c
 heck
 ----------------------------------------------------------------------

 -----------------------------------
 CID_133625280_JID_219_Energie_anion
 -----------------------------------
 Structure from the checkpoint file:  "JID_219.chk"
 Charge = -1 Multiplicity = 2

                         Standard orientation:
 ---------------------------------------------------------------------
 Center     Atomic      Atomic             Coordinates (Angstroms)
 Number     Number       Type             X           Y           Z
 ---------------------------------------------------------------------
      1          6           0        0.809329   -0.973212    1.466913
      2         16           0        1.293836   -0.200465   -0.119191
      3          7           0        1.286614    1.349313   -0.109615
      4          6           0        0.035391    2.071114    0.197702
      5          6           0       -1.184371    1.399105   -0.366866
      6          6           0       -2.087768    0.761416    0.379283
      7          6           0       -3.060250   -0.237727   -0.180038
      8          7           0       -2.457539   -1.567577    0.028432
      9          8           0        0.614422   -1.029879   -1.156834
     10          6           0        3.059810   -0.537381   -0.199489
     11          1           0        1.229232   -1.981398    1.500178
     12          1           0        1.176939   -0.365935    2.296725
     13          1           0       -0.281361   -1.037389    1.465009
     14          1           0       -0.083697    2.187677    1.286461
     15          1           0        0.169634    3.077368   -0.216131
     16          1           0       -1.217612    1.304117   -1.451868
     17          1           0       -2.020974    0.808424    1.466957
     18          1           0       -4.014829   -0.208439    0.359900
     19          1           0       -3.272512    0.000032   -1.236192
     20          1           0       -3.094917   -2.296541   -0.290115
     21          1           0       -1.615670   -1.629037   -0.546699
     22          1           0        3.426163   -0.029245   -1.092525
     23          1           0        3.550460   -0.138298    0.689124
     24          1           0        3.196024   -1.616907   -0.285829
 ---------------------------------------------------------------------

 SCF Done:  E(UB3LYP) =  -820.036911709     A.U. after   30 cycles

 The electronic state is 2-A.
 Alpha  occ. eigenvalues --  -88.91907 -18.99267 -14.18938 -14.17996 -10.10303
 Alpha  occ. eigenvalues --  -10.09705 -10.09492 -10.08742 -10.07140 -10.07037
 Alpha  occ. eigenvalues --   -7.98568  -5.94795  -5.94702  -5.94665  -0.95175
 Alpha  occ. eigenvalues --   -0.80643  -0.78200  -0.70225  -0.66554  -0.62621
 Alpha  occ. eigenvalues --   -0.59979  -0.54120  -0.47183  -0.45356  -0.39922
 Alpha  occ. eigenvalues --   -0.38557  -0.37745  -0.37385  -0.35800  -0.34171
 Alpha  occ. eigenvalues --   -0.32810  -0.32439  -0.31777  -0.30770  -0.29842
 Alpha  occ. eigenvalues --   -0.29050  -0.27098  -0.25524  -0.21994  -0.19101
 Alpha  occ. eigenvalues --   -0.16372  -0.15304  -0.14522  -0.13232   0.04743
 Alpha virt. eigenvalues --    0.06418   0.07858   0.08483   0.08951   0.09691
 Alpha virt. eigenvalues --    0.09969   0.10312   0.10938   0.11319   0.12471
 Alpha virt. eigenvalues --    0.12939   0.13522   0.14582   0.14869   0.15416

  Beta  occ. eigenvalues --  -88.91901 -18.99251 -14.18913 -14.17986 -10.10296
  Beta  occ. eigenvalues --  -10.09690 -10.09426 -10.08671 -10.07133 -10.07032
  Beta  occ. eigenvalues --   -7.98560  -5.94790  -5.94697  -5.94658  -0.95137
  Beta  occ. eigenvalues --   -0.80614  -0.78166  -0.70191  -0.66504  -0.62520
  Beta  occ. eigenvalues --   -0.59926  -0.54071  -0.47127  -0.45312  -0.39883
  Beta  occ. eigenvalues --   -0.38493  -0.37708  -0.37354  -0.35768  -0.34130
  Beta  occ. eigenvalues --   -0.32758  -0.32379  -0.31724  -0.30712  -0.29785
  Beta  occ. eigenvalues --   -0.29019  -0.27071  -0.25496  -0.21954  -0.19079
  Beta  occ. eigenvalues --   -0.16345  -0.15279  -0.14489  -0.13216
  Beta virt. eigenvalues --    0.06933   0.07732   0.08337   0.08808   0.09311
  Beta virt. eigenvalues --    0.10337   0.10530   0.11062   0.11458   0.11716
  Beta virt. eigenvalues --    0.12925   0.13091   0.14090   0.14649   0.15067

 Mulliken charges and spin densities:
               1          2
     1  C    0.344746  -0.921706
     2  S    0.659356  -0.776277
     3  N   -0.175779   0.191580
     4  C    0.113804  -0.769592
     5  C   -0.024723   0.291286
     6  C   -0.463923   0.474830
     7  C    0.666838  -1.284291
     8  N   -0.411176   0.016721
     9  O   -0.179450   0.037688
    10  C    0.368310  -0.872329
    11  H   -0.348194   0.565357
    12  H   -0.366178   0.576052
    13  H    0.045083   0.206581
    14  H   -0.065625   0.210701
    15  H    0.143372   0.041082
    16  H    0.065561   0.100457
    17  H   -0.061023   0.210174
    18  H   -0.291772   0.429679
    19  H   -0.073972   0.190795
    20  H   -0.045871   0.287790
    21  H    0.300985  -0.031964
    22  H   -0.267505   0.464468
    23  H   -0.636166   0.872133
    24  H   -0.296699   0.488785
 Sum of Mulliken charges =  -1.00000   1.00000

 Dipole moment (field-independent basis, Debye):
    X=             -3.5917    Y=              3.3524    Z=             -2.8559  Tot=              5.6829
 Quadrupole moment (field-independent basis, Debye-Ang):
   XX=           -135.0135   YY=           -106.1796   ZZ=           -105.3841
   XY=              0.1133   XZ=             -6.0809   YZ=              2.0737

 Summary of Natural Population Analysis:

                                       Natural Population
                Natural  -----------------------------------------------
    Atom  No    Charge         Core      Valence    Rydberg      Total
 -----------------------------------------------------------------------
      C    1   -0.39157      0.99961     2.38420    0.00776     3.39157
      S    2    0.94052      4.99909     1.97523    0.08517     7.05948
      N    3   -0.47338      0.99976     2.96252    0.01110     3.97338
      C    4   -0.10813      0.99960     2.09477    0.01376     3.10813
      C    5   -0.10029      0.99949     2.09143    0.00936     3.10029
      C    6   -0.09640      0.99950     2.08614    0.01076     3.09640
      C    7   -0.10419      0.99962     2.09224    0.01234     3.10419
      N    8   -0.42706      0.99977     2.91707    0.01022     3.92706
      O    9   -0.48674      0.99991     3.48157    0.00526     4.48674
      C   10   -0.36947      0.99962     2.36197    0.00789     3.36947
      H   11    0.11746      0.00000     0.38016    0.00238     0.38254
      H   12    0.11326      0.00000     0.38381    0.00293     0.38674
      H   13    0.12605      0.00000     0.37186    0.00209     0.37395
      H   14    0.08818      0.00000     0.41042    0.00140     0.41182
      H   15    0.09644      0.00000     0.40212    0.00144     0.40356
      H   16    0.09676      0.00000     0.40191    0.00133     0.40324
      H   17    0.09302      0.00000     0.40556    0.00142     0.40698
      H   18    0.09127      0.00000     0.40734    0.00139     0.40873
      H   19    0.07948      0.00000     0.41904    0.00148     0.42052
      H   20    0.17389      0.00000     0.32409    0.00202     0.32611
      H   21    0.18717      0.00000     0.31042    0.00241     0.31283
      H   22    0.11895      0.00000     0.37955    0.00150     0.38105
      H   23    0.12009      0.00000     0.37562    0.00429     0.37991
      H   24    0.11469      0.00000     0.38328    0.00203     0.38531
 =======================================================================
   * Total *   -0.00000     13.99596    29.80233    0.20171    44.00000

 Normal termination of Gaussian 16 at Tue Dec  8 10:44:41 2020.
