 Gaussian 16, Revision A.03,

 -----------------------------------------------------------
 # opt freq B3LYP/6-31G(d) empiricaldispersion=gd3bj scf=xqc
 -----------------------------------------------------------

 -----------------------------
 CID_19766156_JID_747_neutraal
 -----------------------------
 Symbolic Z-matrix:
 Charge =  0 Multiplicity = 1

 SCF Done:  E(RB3LYP) =  -764.391331296     A.U. after   15 cycles
 SCF Done:  E(RB3LYP) =  -764.395448608     A.U. after   13 cycles
 SCF Done:  E(RB3LYP) =  -764.395853631     A.U. after   12 cycles
 SCF Done:  E(RB3LYP) =  -764.395958410     A.U. after   12 cycles
 SCF Done:  E(RB3LYP) =  -764.396391197     A.U. after   13 cycles
 SCF Done:  E(RB3LYP) =  -764.368951459     A.U. after   15 cycles
 SCF Done:  E(RB3LYP) =  -764.397480168     A.U. after   14 cycles
 SCF Done:  E(RB3LYP) =  -764.397718890     A.U. after   13 cycles
 SCF Done:  E(RB3LYP) =  -764.398065053     A.U. after   13 cycles
 SCF Done:  E(RB3LYP) =  -764.398280366     A.U. after   12 cycles
 SCF Done:  E(RB3LYP) =  -764.398316363     A.U. after   12 cycles
 SCF Done:  E(RB3LYP) =  -764.398324989     A.U. after   11 cycles
 SCF Done:  E(RB3LYP) =  -764.398326430     A.U. after    9 cycles
 SCF Done:  E(RB3LYP) =  -764.398327356     A.U. after    8 cycles
 SCF Done:  E(RB3LYP) =  -764.398327545     A.U. after    8 cycles
 Optimization completed.
    -- Stationary point found.
 Normal termination of Gaussian 16 at Tue Dec  8 12:32:23 2020.

 --------------------------------------------------------------------
 #N Geom=AllCheck Guess=TCheck SCRF=Check GenChk RB3LYP/6-31G(d) Freq
 --------------------------------------------------------------------

 Structure from the checkpoint file:  "JID_747.chk"
 -----------------------------
 CID_19766156_JID_747_neutraal
 -----------------------------
 Charge =  0 Multiplicity = 1

 SCF Done:  E(RB3LYP) =  -764.398327545     A.U. after    1 cycles

  Exact polarizability: 135.841  -6.632 102.955  -4.298  -6.573  72.681
 Approx polarizability: 198.221 -17.099 182.182  -7.983 -19.928 114.982

                      1                      2                      3
                      A                      A                      A
 Frequencies --     64.3556                89.4189               171.3351
 Red. masses --      3.0263                 4.0490                 3.7068
 Frc consts  --      0.0074                 0.0191                 0.0641
 IR Inten    --      0.2602                 2.0855                 0.9165

                      4                      5                      6
                      A                      A                      A
 Frequencies --    217.4777               233.1321               266.0168
 Red. masses --      3.1796                 1.8451                 1.5470
 Frc consts  --      0.0886                 0.0591                 0.0645
 IR Inten    --      1.8203                 0.5037                 0.3407

                      7                      8                      9
                      A                      A                      A
 Frequencies --    271.1971               299.8085               347.1326
 Red. masses --      4.3784                 1.1215                 3.3911
 Frc consts  --      0.1897                 0.0594                 0.2408
 IR Inten    --      1.7651                 0.0163                 0.8509

                     10                     11                     12
                      A                      A                      A
 Frequencies --    362.4940               378.7643               432.0589
 Red. masses --      3.4969                 3.5132                 2.9549
 Frc consts  --      0.2707                 0.2970                 0.3250
 IR Inten    --      4.1650                 1.1206                 0.9227

                     13                     14                     15
                      A                      A                      A
 Frequencies --    543.7247               595.3706               622.9792
 Red. masses --      4.3461                 3.1696                 2.9590
 Frc consts  --      0.7570                 0.6619                 0.6766
 IR Inten    --      5.8151                 2.3930                 1.9384

                     16                     17                     18
                      A                      A                      A
 Frequencies --    667.7658               721.2198               726.6629
 Red. masses --      5.3808                 2.8932                 2.1452
 Frc consts  --      1.4137                 0.8867                 0.6674
 IR Inten    --      4.6949                25.1219                41.1937

                     19                     20                     21
                      A                      A                      A
 Frequencies --    860.0060               880.6639               893.7204
 Red. masses --      3.2248                 2.7373                 1.6080
 Frc consts  --      1.4053                 1.2508                 0.7567
 IR Inten    --      5.2407                 6.7210                 7.3643

                     22                     23                     24
                      A                      A                      A
 Frequencies --    931.0921               943.2516               966.3013
 Red. masses --      1.9825                 1.1728                 1.3256
 Frc consts  --      1.0126                 0.6148                 0.7292
 IR Inten    --     11.8053                 1.2980                 4.9102

                     25                     26                     27
                      A                      A                      A
 Frequencies --    977.9949              1000.3611              1038.2882
 Red. masses --      1.4631                 2.1823                 2.3776
 Frc consts  --      0.8245                 1.2867                 1.5102
 IR Inten    --      0.0166                 2.3840                25.1111

                     28                     29                     30
                      A                      A                      A
 Frequencies --   1077.8003              1146.4132              1152.6724
 Red. masses --      2.9587                 2.0969                 2.0320
 Frc consts  --      2.0250                 1.6238                 1.5907
 IR Inten    --      9.9753                 1.0914                 6.0279

                     31                     32                     33
                      A                      A                      A
 Frequencies --   1213.6077              1216.5459              1344.6670
 Red. masses --      1.1080                 1.8002                 1.3794
 Frc consts  --      0.9615                 1.5698                 1.4694
 IR Inten    --      1.1165                 0.2652                 6.3721

                     34                     35                     36
                      A                      A                      A
 Frequencies --   1354.1655              1371.6348              1386.8652
 Red. masses --      1.3038                 1.3855                 1.3812
 Frc consts  --      1.4086                 1.5358                 1.5652
 IR Inten    --     12.0350                 6.2273                 8.9844

                     37                     38                     39
                      A                      A                      A
 Frequencies --   1425.7692              1445.6805              1450.2172
 Red. masses --      1.2393                 1.2218                 1.3382
 Frc consts  --      1.4843                 1.5045                 1.6582
 IR Inten    --      4.3915                 3.4583                 7.7288

                     40                     41                     42
                      A                      A                      A
 Frequencies --   1519.6878              1521.9014              1535.7413
 Red. masses --      1.0462                 1.0482                 1.0435
 Frc consts  --      1.4236                 1.4304                 1.4501
 IR Inten    --      0.1040                 4.2385                 8.1714

                     43                     44                     45
                      A                      A                      A
 Frequencies --   1543.1198              1638.1865              1659.0306
 Red. masses --      1.0532                 9.0990                 6.6474
 Frc consts  --      1.4776                14.3870                10.7798
 IR Inten    --      6.3845                 4.3381                10.4660

                     46                     47                     48
                      A                      A                      A
 Frequencies --   1692.9210              3025.0475              3047.6125
 Red. masses --      6.7264                 1.0828                 1.0345
 Frc consts  --     11.3582                 5.8377                 5.6610
 IR Inten    --     30.2878                 9.9049                24.0215

                     49                     50                     51
                      A                      A                      A
 Frequencies --   3052.2384              3108.0791              3114.8934
 Red. masses --      1.0355                 1.0862                 1.1025
 Frc consts  --      5.6835                 6.1825                 6.3026
 IR Inten    --     22.7785                44.8139                 2.0506

                     52                     53                     54
                      A                      A                      A
 Frequencies --   3120.7271              3123.8438              3125.6602
 Red. masses --      1.1022                 1.1027                 1.1029
 Frc consts  --      6.3242                 6.3398                 6.3487
 IR Inten    --     54.2071                23.7876                35.9046

                     55                     56                     57
                      A                      A                      A
 Frequencies --   3151.3356              3176.6327              3185.0646
 Red. masses --      1.0855                 1.0862                 1.0953
 Frc consts  --      6.3513                 6.4578                 6.5465
 IR Inten    --     10.0845                11.9113                23.8726

 - Thermochemistry -
 -------------------
 Temperature   298.150 Kelvin.  Pressure   1.00000 Atm.
 Atom     1 has atomic number  6 and mass  12.00000

 Molecular mass:   153.06122 amu.
 Principal axes and moments of inertia in atomic units:
                           1         2         3
     Eigenvalues --   899.606082082.073052574.08096
           X            0.99995   0.00869  -0.00552
           Y           -0.00864   0.99992   0.00911
           Z            0.00560  -0.00906   0.99994
 This molecule is an asymmetric top.
 Rotational symmetry number  1.
 Warning -- assumption of classical behavior for rotation
           may cause significant error
 Rotational temperatures (Kelvin)      0.09628     0.04160     0.03365
 Rotational constants (GHZ):           2.00615     0.86680     0.70112
 Zero-point vibrational energy     457155.1 (Joules/Mol)
                                  109.26268 (Kcal/Mol)
 Warning -- explicit consideration of  14 degrees of freedom as
           vibrations may cause significant error
 Vibrational temperatures:     92.59   128.65   246.51   312.90   335.43
          (Kelvin)            382.74   390.19   431.36   499.45   521.55
                              544.96   621.64   782.30   856.61   896.33
                              960.77  1037.67  1045.51  1237.36  1267.08
                             1285.86  1339.63  1357.13  1390.29  1407.12
                             1439.30  1493.87  1550.71  1649.43  1658.44
                             1746.11  1750.34  1934.68  1948.34  1973.48
                             1995.39  2051.36  2080.01  2086.54  2186.49
                             2189.68  2209.59  2220.21  2356.98  2386.98
                             2435.74  4352.37  4384.83  4391.49  4471.83
                             4481.64  4490.03  4494.51  4497.13  4534.07
                             4570.47  4582.60

 Zero-point correction=                           0.174121 (Hartree/Particle)
 Thermal correction to Energy=                    0.184265
 Thermal correction to Enthalpy=                  0.185210
 Thermal correction to Gibbs Free Energy=         0.138716
 Sum of electronic and zero-point Energies=           -764.224206
 Sum of electronic and thermal Energies=              -764.214062
 Sum of electronic and thermal Enthalpies=            -764.213118
 Sum of electronic and thermal Free Energies=         -764.259612

                     E (Thermal)             CV                S
                      KCal/Mol        Cal/Mol-Kelvin    Cal/Mol-Kelvin
 Total                  115.628             38.542             97.854
 Electronic               0.000              0.000              0.000
 Translational            0.889              2.981             40.987
 Rotational               0.889              2.981             29.957
 Vibrational            113.851             32.580             26.911
 Vibration     1          0.597              1.971              4.319
 Vibration     2          0.602              1.957              3.673
 Vibration     3          0.626              1.878              2.421
 Vibration     4          0.646              1.814              1.980
 Vibration     5          0.654              1.790              1.855
 Vibration     6          0.672              1.735              1.622
 Vibration     7          0.675              1.726              1.589
 Vibration     8          0.692              1.674              1.418
 Vibration     9          0.725              1.581              1.179
 Vibration    10          0.736              1.550              1.111
 Vibration    11          0.749              1.515              1.044
 Vibration    12          0.793              1.400              0.852
 Vibration    13          0.899              1.153              0.557
 Vibration    14          0.953              1.042              0.458

 Optimization completed.
    -- Stationary point found.
 Normal termination of Gaussian 16 at Tue Dec  8 12:42:22 2020.

 ----------------------------------------------------------------------
 # B3LYP/6-311++G(d,p) empiricaldispersion=gd3bj scf=xqc pop=npa geom=c
 heck
 ----------------------------------------------------------------------

 -------------------------------------
 CID_19766156_JID_747_Energie_neutraal
 -------------------------------------
 Structure from the checkpoint file:  "JID_747.chk"
 Charge =  0 Multiplicity = 1

 SCF Done:  E(RB3LYP) =  -764.523394961     A.U. after   16 cycles
 Normal termination of Gaussian 16 at Tue Dec  8 12:49:40 2020.

 ----------------------------------------------------------------------
 # B3LYP/6-311++G(d,p) empiricaldispersion=gd3bj scf=xqc pop=npa geom=c
 heck
 ----------------------------------------------------------------------

 -----------------------------------
 CID_19766156_JID_747_Energie_kation
 -----------------------------------
 Structure from the checkpoint file:  "JID_747.chk"
 Charge =  1 Multiplicity = 2

 SCF Done:  E(UB3LYP) =  -764.231141483     A.U. after   24 cycles
 Normal termination of Gaussian 16 at Tue Dec  8 13:04:06 2020.
 Gaussian 16:  ES64L-G16RevA.03 25-Dec-2016

 ----------------------------------------------------------------------
 # B3LYP/6-311++G(d,p) empiricaldispersion=gd3bj scf=xqc pop=npa geom=c
 heck
 ----------------------------------------------------------------------

 ----------------------------------
 CID_19766156_JID_747_Energie_anion
 ----------------------------------
 Structure from the checkpoint file:  "JID_747.chk"
 Charge = -1 Multiplicity = 2

                         Standard orientation:
 ---------------------------------------------------------------------
 Center     Atomic      Atomic             Coordinates (Angstroms)
 Number     Number       Type             X           Y           Z
 ---------------------------------------------------------------------
      1          6           0        2.752948   -0.774961   -0.718356
      2          6           0        1.933387   -0.095088    0.395559
      3          6           0        2.616489    1.199106    0.852994
      4          6           0        0.494308    0.092824   -0.040221
      5          6           0       -0.092432    1.284839   -0.264961
      6          7           0       -1.355480    1.579061   -0.764805
      7          6           0       -2.434720    1.003318   -0.365771
      8          6           0       -2.595719   -0.052357    0.635647
      9          6           0       -1.789504   -1.118182    0.764687
     10         16           0       -0.420634   -1.436880   -0.330055
     11          1           0        2.805977   -0.127774   -1.601169
     12          1           0        2.307837   -1.728521   -1.021330
     13          1           0        3.774305   -0.975194   -0.375577
     14          1           0        1.907151   -0.784142    1.251775
     15          1           0        2.727733    1.907793    0.024253
     16          1           0        2.053966    1.691334    1.653056
     17          1           0        3.619932    0.974785    1.229943
     18          1           0        0.504869    2.182237   -0.117600
     19          1           0       -3.362605    1.392672   -0.795237
     20          1           0       -3.459847    0.032496    1.294929
     21          1           0       -1.969360   -1.866026    1.534006
 ---------------------------------------------------------------------

 SCF Done:  E(UB3LYP) =  -764.530821774     A.U. after   29 cycles

 The electronic state is 2-A.
 Alpha  occ. eigenvalues --  -88.69088 -14.12635 -10.05276 -10.04394 -10.03866
 Alpha  occ. eigenvalues --  -10.03687 -10.03187 -10.03138 -10.02415 -10.00891
 Alpha  occ. eigenvalues --   -7.77637  -5.74001  -5.73659  -5.73075  -0.75883
 Alpha  occ. eigenvalues --   -0.68859  -0.64386  -0.60775  -0.56905  -0.52647
 Alpha  occ. eigenvalues --   -0.50583  -0.45243  -0.39069  -0.36198  -0.34290
 Alpha  occ. eigenvalues --   -0.33082  -0.31601  -0.28708  -0.27940  -0.26801
 Alpha  occ. eigenvalues --   -0.25694  -0.25470  -0.22700  -0.21787  -0.20914
 Alpha  occ. eigenvalues --   -0.20306  -0.16658  -0.12880  -0.11883  -0.08399
 Alpha  occ. eigenvalues --   -0.05300   0.05202
 Alpha virt. eigenvalues --    0.07964   0.09982   0.10178   0.10759   0.11659
 Alpha virt. eigenvalues --    0.12281   0.13092   0.13524   0.13711   0.14422
 Alpha virt. eigenvalues --    0.15131   0.15810   0.16312   0.17151   0.18162

  Beta  occ. eigenvalues --  -88.69100 -14.12251 -10.05297 -10.04387 -10.03839
  Beta  occ. eigenvalues --  -10.03720 -10.02925 -10.02851 -10.01960 -10.00856
  Beta  occ. eigenvalues --   -7.77648  -5.74018  -5.73686  -5.73080  -0.75192
  Beta  occ. eigenvalues --   -0.68630  -0.63830  -0.60401  -0.56867  -0.52489
  Beta  occ. eigenvalues --   -0.49967  -0.44817  -0.38593  -0.35823  -0.34108
  Beta  occ. eigenvalues --   -0.32978  -0.31435  -0.28615  -0.27695  -0.26619
  Beta  occ. eigenvalues --   -0.25405  -0.24968  -0.22600  -0.21599  -0.20452
  Beta  occ. eigenvalues --   -0.19613  -0.15843  -0.11634  -0.10790  -0.07614
  Beta  occ. eigenvalues --   -0.04823
  Beta virt. eigenvalues --    0.07975   0.09952   0.10053   0.10653   0.11596
  Beta virt. eigenvalues --    0.11809   0.12299   0.13023   0.13498   0.13764
  Beta virt. eigenvalues --    0.14397   0.15435   0.16158   0.16451   0.17407

 Mulliken charges and spin densities:
               1          2
     1  C   -0.325899  -0.376613
     2  C   -0.146184   0.268630
     3  C   -0.473435  -0.171036
     4  C    0.958212   0.018011
     5  C   -0.703950  -0.036949
     6  N   -0.021796   0.158523
     7  C   -0.486804   0.218252
     8  C    0.012937   0.090761
     9  C   -0.429005   0.310050
    10  S   -0.276640  -0.041020
    11  H    0.121210   0.027235
    12  H    0.101038   0.026446
    13  H   -0.082301   0.183259
    14  H    0.000902   0.182581
    15  H    0.118114   0.007821
    16  H    0.126596   0.007144
    17  H    0.005826   0.121294
    18  H    0.144006   0.009580
    19  H    0.117966  -0.016019
    20  H    0.086350   0.019883
    21  H    0.152857  -0.007833
 Sum of Mulliken charges =  -1.00000   1.00000

 Dipole moment (field-independent basis, Debye):
    X=              2.4859    Y=             -0.1048    Z=              1.2575  Tot=              2.7879
 Quadrupole moment (field-independent basis, Debye-Ang):
   XX=            -97.8598   YY=            -87.9424   ZZ=            -82.2370
   XY=              4.7648   XZ=             -3.6810   YZ=              2.4027

 Summary of Natural Population Analysis:

                                       Natural Population
                Natural  -----------------------------------------------
    Atom  No    Charge         Core      Valence    Rydberg      Total
 -----------------------------------------------------------------------
      C    1   -0.28187      0.99965     2.27565    0.00657     3.28187
      C    2   -0.13251      0.99956     2.12069    0.01225     3.13251
      C    3   -0.28577      0.99966     2.27896    0.00714     3.28577
      C    4   -0.05043      0.99940     2.03224    0.01879     3.05043
      C    5   -0.02099      0.99938     2.00903    0.01257     3.02099
      N    6   -0.19668      0.99967     2.68346    0.01355     3.69668
      C    7    0.09188      0.99961     1.89225    0.01626     2.90812
      C    8   -0.14499      0.99950     2.13579    0.00971     3.14499
      C    9   -0.06676      0.99944     2.05565    0.01166     3.06676
      S   10    0.07777      4.99949     2.90068    0.02206     7.92223
      H   11    0.09478      0.00000     0.40432    0.00090     0.40522
      H   12    0.10340      0.00000     0.39576    0.00084     0.39660
      H   13    0.09085      0.00000     0.40789    0.00125     0.40915
      H   14    0.10205      0.00000     0.39574    0.00221     0.39795
      H   15    0.09497      0.00000     0.40396    0.00108     0.40503
      H   16    0.10066      0.00000     0.39847    0.00087     0.39934
      H   17    0.09370      0.00000     0.40545    0.00085     0.40630
      H   18    0.08820      0.00000     0.41014    0.00166     0.41180
      H   19    0.06776      0.00000     0.43054    0.00170     0.43224
      H   20    0.09158      0.00000     0.40616    0.00226     0.40842
      H   21    0.08240      0.00000     0.41562    0.00198     0.41760
 =======================================================================
   * Total *   -0.00000     13.99535    26.85850    0.14616    41.00000

 Normal termination of Gaussian 16 at Tue Dec  8 13:09:37 2020.
