 Gaussian 16, Revision A.03,

 -----------------------------------------------------------
 # opt freq B3LYP/6-31G(d) empiricaldispersion=gd3bj scf=xqc
 -----------------------------------------------------------

 -----------------------------
 CID_55265585_JID_647_neutraal
 -----------------------------
 Symbolic Z-matrix:
 Charge =  0 Multiplicity = 1

 SCF Done:  E(RB3LYP) =  -421.619656421     A.U. after   14 cycles
 SCF Done:  E(RB3LYP) =  -421.623639869     A.U. after   12 cycles
 SCF Done:  E(RB3LYP) =  -421.624052134     A.U. after   11 cycles
 SCF Done:  E(RB3LYP) =  -421.624280273     A.U. after   11 cycles
 SCF Done:  E(RB3LYP) =  -421.624391849     A.U. after   11 cycles
 SCF Done:  E(RB3LYP) =  -421.624474242     A.U. after   11 cycles
 SCF Done:  E(RB3LYP) =  -421.624510566     A.U. after   11 cycles
 SCF Done:  E(RB3LYP) =  -421.624535673     A.U. after   10 cycles
 SCF Done:  E(RB3LYP) =  -421.624560247     A.U. after   10 cycles
 SCF Done:  E(RB3LYP) =  -421.624575322     A.U. after   10 cycles
 SCF Done:  E(RB3LYP) =  -421.624590921     A.U. after    8 cycles
 SCF Done:  E(RB3LYP) =  -421.624594151     A.U. after    9 cycles
 SCF Done:  E(RB3LYP) =  -421.624594785     A.U. after    7 cycles
 SCF Done:  E(RB3LYP) =  -421.624595114     A.U. after    8 cycles
 SCF Done:  E(RB3LYP) =  -421.624595161     A.U. after    7 cycles
 Optimization completed.
    -- Stationary point found.

 1\1\GINC-NODE311\FOpt\RB3LYP\6-31G(d)\C8H12N2\VSC10255\08-Dec-2020\0\\
 # opt freq B3LYP/6-31G(d) empiricaldispersion=gd3bj scf=xqc\\CID_55265
 585_JID_647_neutraal\\0,1\C,2.6028347519,1.1369186927,-0.1182436311\C,
 1.2524279242,0.4712995963,-0.1752546298\C,0.067305233,1.2031422868,-0.
 3192268914\C,-1.1768244392,0.5819658378,-0.3690403967\C,-1.1891695648,
 -0.8276047399,-0.232647012\N,-0.065580022,-1.5493339094,-0.121932429\C
 ,1.1096626388,-0.9133614321,-0.1083233148\N,-2.3727797934,-1.578938536
 7,-0.2826690082\C,-3.4403607617,-1.3191326928,0.6849146462\C,-2.425915

 Normal termination of Gaussian 16 at Tue Dec  8 12:41:06 2020.

 --------------------------------------------------------------------
 #N Geom=AllCheck Guess=TCheck SCRF=Check GenChk RB3LYP/6-31G(d) Freq
 --------------------------------------------------------------------

 Structure from the checkpoint file:  "JID_647.chk"
 -----------------------------
 CID_55265585_JID_647_neutraal
 -----------------------------
 Charge =  0 Multiplicity = 1

 SCF Done:  E(RB3LYP) =  -421.624595161     A.U. after    1 cycles

  Exact polarizability: 138.169  -0.226  98.987   2.057   2.070  54.485
 Approx polarizability: 195.691   1.030 162.333   8.161   6.692  81.116

                      1                      2                      3
                      A                      A                      A
 Frequencies --     58.6189                66.6836               101.1493
 Red. masses --      1.7357                 1.0772                 2.0432
 Frc consts  --      0.0035                 0.0028                 0.0123
 IR Inten    --      3.5557                 0.4431                 1.6038

                      4                      5                      6
                      A                      A                      A
 Frequencies --    178.8685               199.5584               232.4394
 Red. masses --      1.8464                 2.8678                 1.8087
 Frc consts  --      0.0348                 0.0673                 0.0576
 IR Inten    --      4.5079                 1.4097                 1.4222

                      7                      8                      9
                      A                      A                      A
 Frequencies --    257.6869               297.3587               320.2677
 Red. masses --      1.4541                 2.2623                 2.6187
 Frc consts  --      0.0569                 0.1179                 0.1583
 IR Inten    --      0.5173                 0.8483                 1.1292

                     10                     11                     12
                      A                      A                      A
 Frequencies --    389.7158               456.7985               463.3527
 Red. masses --      4.2144                 4.1760                 3.3174
 Frc consts  --      0.3771                 0.5134                 0.4196
 IR Inten    --      1.5272                 0.7881                 1.0235

                     13                     14                     15
                      A                      A                      A
 Frequencies --    516.1576               577.3144               591.4046
 Red. masses --      3.7850                 3.5355                 3.1935
 Frc consts  --      0.5941                 0.6943                 0.6581
 IR Inten    --      8.9769                 5.6546                 7.8451

                     16                     17                     18
                      A                      A                      A
 Frequencies --    722.1670               747.7352               788.4984
 Red. masses --      6.0534                 4.4000                 6.1349
 Frc consts  --      1.8600                 1.4494                 2.2473
 IR Inten    --      6.5380                17.1901                11.0818

                     19                     20                     21
                      A                      A                      A
 Frequencies --    834.4535               912.6563               950.0179
 Red. masses --      1.3327                 1.3296                 1.3371
 Frc consts  --      0.5467                 0.6525                 0.7110
 IR Inten    --     95.0532                 9.0917                 0.2410

                     22                     23                     24
                      A                      A                      A
 Frequencies --    992.7612              1014.6517              1048.5270
 Red. masses --      3.4032                 1.4830                 1.5229
 Frc consts  --      1.9762                 0.8996                 0.9864
 IR Inten    --      2.1190                 4.8311                 5.0275

                     25                     26                     27
                      A                      A                      A
 Frequencies --   1077.5177              1079.1199              1080.0046
 Red. masses --      1.4972                 2.1839                 1.6574
 Frc consts  --      1.0242                 1.4984                 1.1390
 IR Inten    --      2.1612                 2.7455                11.1927

                     28                     29                     30
                      A                      A                      A
 Frequencies --   1157.3451              1162.1173              1198.2906
 Red. masses --      1.3737                 2.2568                 1.7028
 Frc consts  --      1.0841                 1.7958                 1.4406
 IR Inten    --     16.2355                61.1934                 0.8724

                     31                     32                     33
                      A                      A                      A
 Frequencies --   1262.8121              1304.0039              1334.3331
 Red. masses --      2.8868                 3.4930                 1.7287
 Frc consts  --      2.7123                 3.4995                 1.8134
 IR Inten    --      7.3731                17.5531                 2.1652

                     34                     35                     36
                      A                      A                      A
 Frequencies --   1344.5517              1441.2449              1445.5631
 Red. masses --      3.7764                 1.2676                 1.2476
 Frc consts  --      4.0224                 1.5513                 1.5361
 IR Inten    --     58.6632                 1.2457                 2.5655

                     37                     38                     39
                      A                      A                      A
 Frequencies --   1451.6862              1469.6953              1500.1273
 Red. masses --      2.7655                 1.4804                 1.4176
 Frc consts  --      3.4338                 1.8840                 1.8796
 IR Inten    --     54.5962                56.6546                 2.1109

                     40                     41                     42
                      A                      A                      A
 Frequencies --   1514.9588              1515.4770              1520.3080
 Red. masses --      1.0480                 1.0467                 1.1745
 Frc consts  --      1.4171                 1.4163                 1.5995
 IR Inten    --     12.5528                 1.6928                53.0117

                     43                     44                     45
                      A                      A                      A
 Frequencies --   1524.9652              1533.3876              1546.1642
 Red. masses --      1.4002                 1.1447                 1.1342
 Frc consts  --      1.9185                 1.5858                 1.5976
 IR Inten    --     57.8446                 4.5373                 7.4431

                     46                     47                     48
                      A                      A                      A
 Frequencies --   1556.2126              1636.6127              1669.5096
 Red. masses --      1.2507                 4.1119                 5.5473
 Frc consts  --      1.7845                 6.4891                 9.1099
 IR Inten    --    105.6934                16.1958                38.5568

                     49                     50                     51
                      A                      A                      A
 Frequencies --   3006.1480              3040.1182              3042.3438
 Red. masses --      1.0566                 1.0375                 1.0388
 Frc consts  --      5.6257                 5.6498                 5.6650
 IR Inten    --     80.9444                50.0154                25.4370

                     52                     53                     54
                      A                      A                      A
 Frequencies --   3091.0395              3098.4287              3113.5943
 Red. masses --      1.1009                 1.0971                 1.0804
 Frc consts  --      6.1972                 6.2056                 6.1713
 IR Inten    --     22.9110                20.8109                39.8538

                     55                     56                     57
                      A                      A                      A
 Frequencies --   3121.1351              3125.0703              3155.4829
 Red. masses --      1.1006                 1.1028                 1.0925
 Frc consts  --      6.3169                 6.3454                 6.4093
 IR Inten    --     14.7720                19.2860                54.4436

                     58                     59                     60
                      A                      A                      A
 Frequencies --   3155.7073              3164.8860              3535.8821
 Red. masses --      1.0983                 1.0902                 1.0738
 Frc consts  --      6.4444                 6.4340                 7.9099
 IR Inten    --      6.7938                19.1806                11.0593

 - Thermochemistry -
 -------------------
 Temperature   298.150 Kelvin.  Pressure   1.00000 Atm.
 Atom     1 has atomic number  6 and mass  12.00000

 Molecular mass:   136.10005 amu.
 Principal axes and moments of inertia in atomic units:
                           1         2         3
     Eigenvalues --   670.602961941.597382494.74823
           X            0.99997  -0.00569  -0.00502
           Y            0.00566   0.99996  -0.00741
           Z            0.00506   0.00738   0.99996
 This molecule is an asymmetric top.
 Rotational symmetry number  1.
 Warning -- assumption of classical behavior for rotation
           may cause significant error
 Rotational temperatures (Kelvin)      0.12916     0.04461     0.03472
 Rotational constants (GHZ):           2.69122     0.92951     0.72342
 Zero-point vibrational energy     500605.4 (Joules/Mol)
                                  119.64756 (Kcal/Mol)
 Warning -- explicit consideration of  15 degrees of freedom as
           vibrations may cause significant error
 Vibrational temperatures:     84.34    95.94   145.53   257.35   287.12
          (Kelvin)            334.43   370.75   427.83   460.79   560.71
                              657.23   666.66   742.64   830.63   850.90
                             1039.04  1075.82  1134.47  1200.59  1313.11
                             1366.86  1428.36  1459.86  1508.60  1550.31
                             1552.61  1553.89  1665.16  1672.03  1724.07
                             1816.90  1876.17  1919.81  1934.51  2073.63
                             2079.84  2088.65  2114.56  2158.35  2179.69
                             2180.43  2187.38  2194.08  2206.20  2224.59
                             2239.04  2354.72  2402.05  4325.18  4374.05
                             4377.25  4447.32  4457.95  4479.77  4490.62
                             4496.28  4540.04  4540.36  4553.57  5087.35

 Zero-point correction=                           0.190671 (Hartree/Particle)
 Thermal correction to Energy=                    0.200990
 Thermal correction to Enthalpy=                  0.201934
 Thermal correction to Gibbs Free Energy=         0.154757
 Sum of electronic and zero-point Energies=           -421.433925
 Sum of electronic and thermal Energies=              -421.423605
 Sum of electronic and thermal Enthalpies=            -421.422661
 Sum of electronic and thermal Free Energies=         -421.469838

                     E (Thermal)             CV                S
                      KCal/Mol        Cal/Mol-Kelvin    Cal/Mol-Kelvin
 Total                  126.123             37.847             99.292
 Electronic               0.000              0.000              0.000
 Translational            0.889              2.981             40.637
 Rotational               0.889              2.981             29.564
 Vibrational            124.345             31.885             29.091
 Vibration     1          0.596              1.974              4.503
 Vibration     2          0.598              1.970              4.249
 Vibration     3          0.604              1.948              3.432
 Vibration     4          0.629              1.868              2.340
 Vibration     5          0.638              1.840              2.137
 Vibration     6          0.653              1.791              1.860
 Vibration     7          0.667              1.750              1.677
 Vibration     8          0.691              1.679              1.432
 Vibration     9          0.706              1.635              1.309
 Vibration    10          0.758              1.492              1.001
 Vibration    11          0.815              1.346              0.775
 Vibration    12          0.821              1.331              0.756
 Vibration    13          0.871              1.214              0.619
 Vibration    14          0.934              1.080              0.490
 Vibration    15          0.949              1.050              0.465

 Optimization completed.
    -- Stationary point found.

 1\1\GINC-NODE311\Freq\RB3LYP\6-31G(d)\C8H12N2\VSC10255\08-Dec-2020\0\\
 #N Geom=AllCheck Guess=TCheck SCRF=Check GenChk RB3LYP/6-31G(d) Freq\\
 CID_55265585_JID_647_neutraal\\0,1\C,2.6028347519,1.1369186927,-0.1182
 436311\C,1.2524279242,0.4712995963,-0.1752546298\C,0.067305233,1.20314
 22868,-0.3192268914\C,-1.1768244392,0.5819658378,-0.3690403967\C,-1.18
 91695648,-0.8276047399,-0.232647012\N,-0.065580022,-1.5493339094,-0.12
 1932429\C,1.1096626388,-0.9133614321,-0.1083233148\N,-2.3727797934,-1.
 5789385367,-0.2826690082\C,-3.4403607617,-1.3191326928,0.6849146462\C,

 Normal termination of Gaussian 16 at Tue Dec  8 12:49:36 2020.

 ----------------------------------------------------------------------
 # B3LYP/6-311++G(d,p) empiricaldispersion=gd3bj scf=xqc pop=npa geom=c
 heck
 ----------------------------------------------------------------------

 -------------------------------------
 CID_55265585_JID_647_Energie_neutraal
 -------------------------------------
 Structure from the checkpoint file:  "JID_647.chk"
 Charge =  0 Multiplicity = 1

 SCF Done:  E(RB3LYP) =  -421.739420269     A.U. after   15 cycles
 Normal termination of Gaussian 16 at Tue Dec  8 12:51:57 2020.

 ----------------------------------------------------------------------
 # B3LYP/6-311++G(d,p) empiricaldispersion=gd3bj scf=xqc pop=npa geom=c
 heck
 ----------------------------------------------------------------------

 -----------------------------------
 CID_55265585_JID_647_Energie_kation
 -----------------------------------
 Structure from the checkpoint file:  "JID_647.chk"
 Charge =  1 Multiplicity = 2

 SCF Done:  E(UB3LYP) =  -421.456329323     A.U. after   21 cycles
 Normal termination of Gaussian 16 at Tue Dec  8 13:04:40 2020.
 Gaussian 16:  ES64L-G16RevA.03 25-Dec-2016

 ----------------------------------
 CID_55265585_JID_647_Energie_anion
 ----------------------------------
 Structure from the checkpoint file:  "JID_647.chk"
 Charge = -1 Multiplicity = 2

                         Standard orientation:
 ---------------------------------------------------------------------
 Center     Atomic      Atomic             Coordinates (Angstroms)
 Number     Number       Type             X           Y           Z
 ---------------------------------------------------------------------
      1          6           0        3.457785    0.150281    0.245525
      2          6           0        1.972942   -0.039568    0.074950
      3          6           0        1.082515    1.040846    0.048875
      4          6           0       -0.288080    0.858081   -0.106908
      5          6           0       -0.743792   -0.479278   -0.204078
      6          7           0        0.093190   -1.525718   -0.209371
      7          6           0        1.404971   -1.301824   -0.087121
      8          7           0       -2.097230   -0.802942   -0.381235
      9          6           0       -3.083514   -0.373727    0.611974
     10          6           0       -1.211747    2.040270   -0.244333
     11          1           0        3.864165    0.844851   -0.499823
     12          1           0        3.702052    0.559092    1.234247
     13          1           0        3.990568   -0.800298    0.140501
     14          1           0        1.469830    2.055970    0.122710
     15          1           0        2.041053   -2.186482   -0.113028
     16          1           0       -2.141562   -1.808747   -0.519027
     17          1           0       -3.270014    0.699661    0.546348
     18          1           0       -4.026723   -0.883045    0.396070
     19          1           0       -2.788724   -0.609877    1.646549
     20          1           0       -1.748844    2.266634    0.685433
     21          1           0       -0.647183    2.936950   -0.518929
     22          1           0       -1.962819    1.855430   -1.020113
 ---------------------------------------------------------------------

 SCF Done:  E(UB3LYP) =  -421.722744188     A.U. after   33 cycles
 SCF Done:  E(UB3LYP) =  -421.722744188     a.u. after    1 cycles

 The electronic state is 2-A.
 Alpha  occ. eigenvalues --  -14.21001 -14.19472 -10.12620 -10.09271 -10.08736
 Alpha  occ. eigenvalues --  -10.07908 -10.07317 -10.07261 -10.06601 -10.06275
 Alpha  occ. eigenvalues --   -0.85737  -0.79084  -0.71030  -0.67722  -0.60664
 Alpha  occ. eigenvalues --   -0.59282  -0.55318  -0.51851  -0.47823  -0.42079
 Alpha  occ. eigenvalues --   -0.40141  -0.35282  -0.33789  -0.33643  -0.32267
 Alpha  occ. eigenvalues --   -0.31786  -0.31336  -0.29644  -0.29205  -0.28524
 Alpha  occ. eigenvalues --   -0.27338  -0.26522  -0.24739  -0.18430  -0.16623
 Alpha  occ. eigenvalues --   -0.15597  -0.10862   0.04695
 Alpha virt. eigenvalues --    0.06462   0.07451   0.07625   0.09087   0.09291
 Alpha virt. eigenvalues --    0.09539   0.09613   0.11068   0.11456   0.11746
 Alpha virt. eigenvalues --    0.12296   0.13397   0.13929   0.15251   0.15414

  Beta  occ. eigenvalues --  -14.21000 -14.19432 -10.12601 -10.09269 -10.08681
  Beta  occ. eigenvalues --  -10.07912 -10.07295 -10.07230 -10.06566 -10.06238
  Beta  occ. eigenvalues --   -0.85690  -0.79049  -0.70977  -0.67680  -0.60598
  Beta  occ. eigenvalues --   -0.59212  -0.55244  -0.51782  -0.47769  -0.42039
  Beta  occ. eigenvalues --   -0.40098  -0.35229  -0.33721  -0.33593  -0.32216
  Beta  occ. eigenvalues --   -0.31735  -0.31291  -0.29598  -0.29153  -0.28471
  Beta  occ. eigenvalues --   -0.27262  -0.26452  -0.24701  -0.18354  -0.16519
  Beta  occ. eigenvalues --   -0.15529  -0.10797
  Beta virt. eigenvalues --    0.07022   0.07555   0.07740   0.08484   0.09617
  Beta virt. eigenvalues --    0.09738   0.09936   0.10254   0.11553   0.11985
  Beta virt. eigenvalues --    0.12383   0.12734   0.13645   0.14447   0.15371

 Mulliken charges and spin densities:
               1          2
     1  C    2.830117  -3.473149
     2  C   -0.659195   1.018478
     3  C    1.195947  -1.518014
     4  C   -1.744393   3.074663
     5  C   -1.211532   0.046882
     6  N   -0.182896   0.106493
     7  C   -0.347163  -0.165504
     8  N   -0.205885   0.134283
     9  C    1.298667  -1.653340
    10  C    1.026114  -1.530163
    11  H   -0.383748   0.541094
    12  H   -0.107063   0.258879
    13  H   -0.286807   0.419524
    14  H   -0.409859   0.575613
    15  H   -0.111859   0.281228
    16  H    0.201144   0.055146
    17  H   -0.354241   0.497752
    18  H   -0.672705   0.824656
    19  H   -0.233612   0.369591
    20  H   -0.052563   0.224471
    21  H   -0.473623   0.615005
    22  H   -0.114845   0.296410
 Sum of Mulliken charges =  -1.00000   1.00000

 Dipole moment (field-independent basis, Debye):
    X=              1.2505    Y=             -2.0343    Z=             -0.0350  Tot=              2.3882
 Quadrupole moment (field-independent basis, Debye-Ang):
   XX=           -137.7163   YY=           -100.1993   ZZ=            -88.7717
   XY=             -2.8259   XZ=              4.7272   YZ=              2.7829

 Summary of Natural Population Analysis:

                                       Natural Population
                Natural  -----------------------------------------------
    Atom  No    Charge         Core      Valence    Rydberg      Total
 -----------------------------------------------------------------------
      C    1   -0.29176      0.99964     2.28629    0.00583     3.29176
      C    2   -0.04665      0.99951     2.03667    0.01047     3.04665
      C    3   -0.07134      0.99948     2.06206    0.00980     3.07134
      C    4   -0.04325      0.99948     2.03379    0.00997     3.04325
      C    5    0.20193      0.99947     1.78397    0.01463     2.79807
      N    6   -0.25185      0.99967     2.74112    0.01105     3.75185
      C    7    0.02778      0.99952     1.95949    0.01320     2.97222
      N    8   -0.32449      0.99969     2.81310    0.01169     3.82449
      C    9   -0.17738      0.99964     2.16987    0.00787     3.17738
      C   10   -0.29603      0.99964     2.29013    0.00626     3.29603
      H   11    0.10599      0.00000     0.39184    0.00217     0.39401
      H   12    0.10213      0.00000     0.39680    0.00107     0.39787
      H   13    0.10142      0.00000     0.39723    0.00135     0.39858
      H   14    0.09928      0.00000     0.39940    0.00132     0.40072
      H   15    0.08659      0.00000     0.41205    0.00136     0.41341
      H   16    0.18317      0.00000     0.31283    0.00400     0.31683
      H   17    0.09532      0.00000     0.40288    0.00181     0.40468
      H   18    0.09776      0.00000     0.40006    0.00218     0.40224
      H   19    0.08449      0.00000     0.41373    0.00179     0.41551
      H   20    0.10494      0.00000     0.39370    0.00137     0.39506
      H   21    0.10406      0.00000     0.39455    0.00140     0.39594
      H   22    0.10791      0.00000     0.39069    0.00141     0.39209
 =======================================================================
   * Total *    0.00000      9.99575    26.88224    0.12201    37.00000

 Normal termination of Gaussian 16 at Tue Dec  8 13:11:17 2020.
