 Gaussian 16, Revision A.03,

 -----------------------------------------------------------
 # opt freq B3LYP/6-31G(d) empiricaldispersion=gd3bj scf=xqc
 -----------------------------------------------------------

 -------------------------------
 CID_152043382_JID_2226_neutraal
 -------------------------------
 Symbolic Z-matrix:
 Charge =  0 Multiplicity = 1

 SCF Done:  E(RB3LYP) =  -581.761893734     A.U. after   16 cycles
 SCF Done:  E(RB3LYP) =  -581.763699239     A.U. after   15 cycles
 SCF Done:  E(RB3LYP) =  -581.765739399     A.U. after   15 cycles
 SCF Done:  E(RB3LYP) =  -581.765907108     A.U. after   14 cycles
 SCF Done:  E(RB3LYP) =  -581.766197081     A.U. after   13 cycles
 SCF Done:  E(RB3LYP) =  -581.766351469     A.U. after   13 cycles
 SCF Done:  E(RB3LYP) =  -581.766543505     A.U. after   14 cycles
 SCF Done:  E(RB3LYP) =  -581.766633069     A.U. after   14 cycles
 SCF Done:  E(RB3LYP) =  -581.766682205     A.U. after   13 cycles
 SCF Done:  E(RB3LYP) =  -581.766615903     A.U. after   17 cycles
 SCF Done:  E(RB3LYP) =  -581.766925515     A.U. after   12 cycles
 SCF Done:  E(RB3LYP) =  -581.766926784     A.U. after   13 cycles
 SCF Done:  E(RB3LYP) =  -581.766929070     A.U. after   12 cycles
 SCF Done:  E(RB3LYP) =  -581.766929191     A.U. after    9 cycles
 Optimization completed.
    -- Stationary point found.
 Normal termination of Gaussian 16 at Wed Dec  9 16:57:13 2020.

 --------------------------------------------------------------------
 #N Geom=AllCheck Guess=TCheck SCRF=Check GenChk RB3LYP/6-31G(d) Freq
 --------------------------------------------------------------------

 Structure from the checkpoint file:  "JID_2226.chk"
 -------------------------------
 CID_152043382_JID_2226_neutraal
 -------------------------------
 Charge =  0 Multiplicity = 1

 SCF Done:  E(RB3LYP) =  -581.766929191     A.U. after    1 cycles

  Exact polarizability: 120.991 -27.656  79.182   2.777   9.310  76.283
 Approx polarizability: 208.005 -75.305 140.302   6.081  17.972 127.273

                      1                      2                      3
                      A                      A                      A
 Frequencies --     35.0091                68.1400                76.8531
 Red. masses --      8.2866                 5.0905                 6.9609
 Frc consts  --      0.0060                 0.0139                 0.0242
 IR Inten    --      0.4837                 3.1860                 1.4267

                      4                      5                      6
                      A                      A                      A
 Frequencies --    102.5506               154.2200               176.2153
 Red. masses --      8.4237                 5.2946                 5.3571
 Frc consts  --      0.0522                 0.0742                 0.0980
 IR Inten    --      0.1877                 4.6495                 3.0874

                      7                      8                      9
                      A                      A                      A
 Frequencies --    252.7080               265.7988               301.1440
 Red. masses --      3.5593                 2.8942                 5.4481
 Frc consts  --      0.1339                 0.1205                 0.2911
 IR Inten    --      8.0733                 2.1400                 1.9936

                     10                     11                     12
                      A                      A                      A
 Frequencies --    378.7700               465.8119               507.1686
 Red. masses --      2.3589                 5.0454                 3.4482
 Frc consts  --      0.1994                 0.6450                 0.5226
 IR Inten    --      3.6558                 9.8625                 2.8409

                     13                     14                     15
                      A                      A                      A
 Frequencies --    566.8031               632.1761               657.9969
 Red. masses --     13.3704                 3.0856                 4.3176
 Frc consts  --      2.5308                 0.7265                 1.1014
 IR Inten    --     13.7206                13.9235                 5.6099

                     16                     17                     18
                      A                      A                      A
 Frequencies --    674.5578               700.6551               770.8408
 Red. masses --      5.3298                 3.6288                 4.8553
 Frc consts  --      1.4289                 1.0496                 1.6998
 IR Inten    --      4.1781                 3.4605                73.9265

                     19                     20                     21
                      A                      A                      A
 Frequencies --    805.5222               856.7607               896.7789
 Red. masses --      1.3641                 3.2153                 1.3422
 Frc consts  --      0.5215                 1.3906                 0.6360
 IR Inten    --     13.0661                10.7902                11.8867

                     22                     23                     24
                      A                      A                      A
 Frequencies --    960.9935               983.3782              1002.7340
 Red. masses --      2.3754                 3.9257                 3.1592
 Frc consts  --      1.2925                 2.2367                 1.8715
 IR Inten    --      1.4773                 8.3708                22.3773

                     25                     26                     27
                      A                      A                      A
 Frequencies --   1024.7761              1046.5557              1090.5788
 Red. masses --      1.7788                 3.8745                 2.0291
 Frc consts  --      1.1006                 2.5003                 1.4219
 IR Inten    --      0.1949                 3.8835                 3.9474

                     28                     29                     30
                      A                      A                      A
 Frequencies --   1177.1128              1197.8264              1233.9266
 Red. masses --      1.9558                 1.5317                 1.5519
 Frc consts  --      1.5966                 1.2948                 1.3922
 IR Inten    --     51.9913                 2.9802                23.6282

                     31                     32                     33
                      A                      A                      A
 Frequencies --   1274.8058              1339.7546              1355.2172
 Red. masses --      1.4529                 2.7635                 2.2337
 Frc consts  --      1.3912                 2.9225                 2.4171
 IR Inten    --      1.5834                58.8782                61.5163

                     34                     35                     36
                      A                      A                      A
 Frequencies --   1392.1540              1402.8280              1418.2377
 Red. masses --      1.4645                 1.4491                 1.8335
 Frc consts  --      1.6723                 1.6802                 2.1729
 IR Inten    --      8.6942                31.4734                19.6245

                     37                     38                     39
                      A                      A                      A
 Frequencies --   1441.1635              1464.5847              1481.8804
 Red. masses --      4.3150                 2.4315                 2.0433
 Frc consts  --      5.2803                 3.0729                 2.6437
 IR Inten    --      8.7311                 1.3408                39.6950

                     40                     41                     42
                      A                      A                      A
 Frequencies --   1507.2210              1515.3252              1603.1839
 Red. masses --      1.5157                 1.1008                 4.8231
 Frc consts  --      2.0287                 1.4893                 7.3037
 IR Inten    --     17.6190                 6.1392               101.8644

                     43                     44                     45
                      A                      A                      A
 Frequencies --   1794.5641              2267.4137              2905.6134
 Red. masses --      9.5597                13.6337                 1.0834
 Frc consts  --     18.1390                41.2977                 5.3893
 IR Inten    --    278.4395               339.8774               140.4768

                     46                     47                     48
                      A                      A                      A
 Frequencies --   3039.5947              3081.3500              3134.2204
 Red. masses --      1.0695                 1.0667                 1.0964
 Frc consts  --      5.8217                 5.9674                 6.3455
 IR Inten    --     29.7835                29.2072                19.4457

                     49                     50                     51
                      A                      A                      A
 Frequencies --   3166.7191              3269.4401              3283.2773
 Red. masses --      1.0998                 1.0974                 1.0971
 Frc consts  --      6.4982                 6.9116                 6.9679
 IR Inten    --      2.3451                 0.1013                 0.6024

 - Thermochemistry -
 -------------------
 Temperature   298.150 Kelvin.  Pressure   1.00000 Atm.
 Atom     1 has atomic number  6 and mass  12.00000

 Molecular mass:   165.06506 amu.
 Principal axes and moments of inertia in atomic units:
                           1         2         3
     Eigenvalues --   987.997442867.658463286.38025
           X            0.99976  -0.02131  -0.00402
           Y            0.02145   0.99899   0.03956
           Z            0.00317  -0.03964   0.99921
 This molecule is an asymmetric top.
 Rotational symmetry number  1.
 Warning -- assumption of classical behavior for rotation
           may cause significant error
 Rotational temperatures (Kelvin)      0.08767     0.03020     0.02636
 Rotational constants (GHZ):           1.82667     0.62934     0.54916
 Zero-point vibrational energy     372056.0 (Joules/Mol)
                                   88.92353 (Kcal/Mol)
 Warning -- explicit consideration of  13 degrees of freedom as
           vibrations may cause significant error
 Vibrational temperatures:     50.37    98.04   110.57   147.55   221.89
          (Kelvin)            253.53   363.59   382.43   433.28   544.97
                              670.20   729.70   815.50   909.56   946.71
                              970.54  1008.09  1109.07  1158.97  1232.69
                             1290.26  1382.66  1414.86  1442.71  1474.42
                             1505.76  1569.10  1693.60  1723.41  1775.35
                             1834.16  1927.61  1949.86  2003.00  2018.36
                             2040.53  2073.51  2107.21  2132.10  2168.55
                             2180.22  2306.62  2581.98  3262.30  4180.53
                             4373.30  4433.38  4509.44  4556.20  4704.00
                             4723.90

 Zero-point correction=                           0.141709 (Hartree/Particle)
 Thermal correction to Energy=                    0.152430
 Thermal correction to Enthalpy=                  0.153374
 Thermal correction to Gibbs Free Energy=         0.103674
 Sum of electronic and zero-point Energies=           -581.625221
 Sum of electronic and thermal Energies=              -581.614499
 Sum of electronic and thermal Enthalpies=            -581.613555
 Sum of electronic and thermal Free Energies=         -581.663255

                     E (Thermal)             CV                S
                      KCal/Mol        Cal/Mol-Kelvin    Cal/Mol-Kelvin
 Total                   95.651             37.910            104.603
 Electronic               0.000              0.000              0.000
 Translational            0.889              2.981             41.212
 Rotational               0.889              2.981             30.611
 Vibrational             93.874             31.948             32.780
 Vibration     1          0.594              1.982              5.523
 Vibration     2          0.598              1.969              4.206
 Vibration     3          0.599              1.965              3.970
 Vibration     4          0.605              1.947              3.405
 Vibration     5          0.620              1.898              2.620
 Vibration     6          0.628              1.872              2.368
 Vibration     7          0.664              1.758              1.712
 Vibration     8          0.672              1.736              1.623
 Vibration     9          0.693              1.672              1.411
 Vibration    10          0.749              1.515              1.044
 Vibration    11          0.823              1.326              0.749
 Vibration    12          0.862              1.234              0.640
 Vibration    13          0.923              1.103              0.510

 Optimization completed.
    -- Stationary point found.
 Normal termination of Gaussian 16 at Wed Dec  9 17:01:20 2020.

 ----------------------------------------------------------------------
 # B3LYP/6-311++G(d,p) empiricaldispersion=gd3bj scf=xqc pop=npa geom=c
 heck
 ----------------------------------------------------------------------

 ---------------------------------------
 CID_152043382_JID_2226_Energie_neutraal
 ---------------------------------------
 Structure from the checkpoint file:  "JID_2226.chk"
 Charge =  0 Multiplicity = 1

 SCF Done:  E(RB3LYP) =  -581.928106824     A.U. after   16 cycles
 Normal termination of Gaussian 16 at Wed Dec  9 17:03:14 2020.

 ----------------------------------------------------------------------
 # B3LYP/6-311++G(d,p) empiricaldispersion=gd3bj scf=xqc pop=npa geom=c
 heck
 ----------------------------------------------------------------------

 -------------------------------------
 CID_152043382_JID_2226_Energie_kation
 -------------------------------------
 Structure from the checkpoint file:  "JID_2226.chk"
 Charge =  1 Multiplicity = 2

 SCF Done:  E(UB3LYP) =  -581.592402196     A.U. after   33 cycles
 SCF Done:  E(UB3LYP) =  -581.592402196     a.u. after    1 cycles
 Normal termination of Gaussian 16 at Wed Dec  9 17:09:01 2020.
 Gaussian 16:  ES64L-G16RevA.03 25-Dec-2016

 ----------------------------------------------------------------------
 # B3LYP/6-311++G(d,p) empiricaldispersion=gd3bj scf=xqc pop=npa geom=c
 heck
 ----------------------------------------------------------------------

 ------------------------------------
 CID_152043382_JID_2226_Energie_anion
 ------------------------------------
 Structure from the checkpoint file:  "JID_2226.chk"
 Charge = -1 Multiplicity = 2

                         Standard orientation:
 ---------------------------------------------------------------------
 Center     Atomic      Atomic             Coordinates (Angstroms)
 Number     Number       Type             X           Y           Z
 ---------------------------------------------------------------------
      1          6           0       -0.621090   -0.967473   -0.701802
      2          6           0       -1.695168   -0.302227   -0.122353
      3          6           0       -1.254891   -0.010654    1.198474
      4          7           0       -0.026867   -0.454748    1.416863
      5          7           0        0.345516   -1.044516    0.241612
      6          6           0        1.707268   -1.524878    0.091217
      7          6           0        2.588960   -0.528620   -0.675882
      8          7           0        2.729002    0.757838    0.020145
      9          7           0        1.766293    1.530411   -0.090920
     10          7           0        0.965600    2.341465   -0.126903
     11          6           0       -2.982151    0.011664   -0.732723
     12          8           0       -3.889119    0.588466   -0.159890
     13          1           0       -0.489679   -1.382422   -1.691648
     14          1           0       -1.803573    0.500268    1.976854
     15          1           0        2.092920   -1.675210    1.100227
     16          1           0        1.694360   -2.485763   -0.434625
     17          1           0        3.598435   -0.939046   -0.755440
     18          1           0        2.199436   -0.388307   -1.693555
     19          1           0       -3.093313   -0.317266   -1.789863
 ---------------------------------------------------------------------

 SCF Done:  E(UB3LYP) =  -581.934409894     A.U. after   33 cycles
 SCF Done:  E(UB3LYP) =  -581.934409894     a.u. after    1 cycles

 The electronic state is 2-A.
 Alpha  occ. eigenvalues --  -18.96419 -14.35704 -14.27806 -14.25885 -14.24232
 Alpha  occ. eigenvalues --  -14.21972 -10.11366 -10.11184 -10.10642 -10.08852
 Alpha  occ. eigenvalues --  -10.07795 -10.04975  -1.02095  -0.93921  -0.89811
 Alpha  occ. eigenvalues --   -0.86418  -0.74387  -0.68293  -0.65382  -0.57266
 Alpha  occ. eigenvalues --   -0.52539  -0.46485  -0.45574  -0.43239  -0.41196
 Alpha  occ. eigenvalues --   -0.39910  -0.38899  -0.35559  -0.34659  -0.33713
 Alpha  occ. eigenvalues --   -0.33135  -0.30565  -0.30281  -0.29244  -0.28367
 Alpha  occ. eigenvalues --   -0.27152  -0.25682  -0.19235  -0.18788  -0.15252
 Alpha  occ. eigenvalues --   -0.14390  -0.13579  -0.12108   0.03963
 Alpha virt. eigenvalues --    0.06442   0.07273   0.08817   0.09395   0.10491
 Alpha virt. eigenvalues --    0.10967   0.11457   0.11887   0.12141   0.13356
 Alpha virt. eigenvalues --    0.14104   0.14915   0.16098   0.16589   0.17430

  Beta  occ. eigenvalues --  -18.96084 -14.35583 -14.27781 -14.25715 -14.24259
  Beta  occ. eigenvalues --  -14.22015 -10.11289 -10.11154 -10.10416 -10.08615
  Beta  occ. eigenvalues --  -10.07776 -10.04982  -1.01852  -0.93864  -0.89194
  Beta  occ. eigenvalues --   -0.86293  -0.74330  -0.68047  -0.65240  -0.57027
  Beta  occ. eigenvalues --   -0.52182  -0.46324  -0.45360  -0.43102  -0.40855
  Beta  occ. eigenvalues --   -0.39734  -0.38555  -0.35302  -0.34477  -0.33506
  Beta  occ. eigenvalues --   -0.32874  -0.30295  -0.30038  -0.29134  -0.28195
  Beta  occ. eigenvalues --   -0.26963  -0.24136  -0.18989  -0.18749  -0.14938
  Beta  occ. eigenvalues --   -0.14029  -0.13035  -0.11828
  Beta virt. eigenvalues --    0.07341   0.08509   0.09040   0.09331   0.10024
  Beta virt. eigenvalues --    0.10779   0.11089   0.11624   0.12152   0.12543
  Beta virt. eigenvalues --    0.13655   0.14235   0.14938   0.16164   0.16705

 Mulliken charges and spin densities:
               1          2
     1  C   -0.387132   0.039606
     2  C    0.779697  -0.189936
     3  C   -0.066326   0.001089
     4  N   -0.275039  -0.009545
     5  N    0.303695   0.057076
     6  C   -0.184178  -0.089051
     7  C    0.949609  -1.387864
     8  N   -0.618527   0.179379
     9  N    0.406584   0.013697
    10  N   -0.015868   0.062299
    11  C   -0.469188   0.102825
    12  O   -0.365272   0.106509
    13  H   -0.220173   0.365836
    14  H    0.148808   0.001452
    15  H    0.129068   0.065071
    16  H   -0.576597   0.748380
    17  H   -0.605916   0.788546
    18  H    0.018342   0.159442
    19  H    0.048414  -0.014812
 Sum of Mulliken charges =  -1.00000   1.00000

 Dipole moment (field-independent basis, Debye):
    X=              0.5187    Y=              0.4023    Z=              0.3832  Tot=              0.7601
 Quadrupole moment (field-independent basis, Debye-Ang):
   XX=           -132.7614   YY=            -98.6501   ZZ=            -84.7917
   XY=             11.6860   XZ=              3.9963   YZ=             -4.4801

 Summary of Natural Population Analysis:

                                       Natural Population
                Natural  -----------------------------------------------
    Atom  No    Charge         Core      Valence    Rydberg      Total
 -----------------------------------------------------------------------
      C    1    0.05229      0.99952     1.93619    0.01201     2.94771
      C    2   -0.12974      0.99951     2.11935    0.01088     3.12974
      C    3    0.01513      0.99960     1.97161    0.01366     2.98487
      N    4   -0.16474      0.99974     2.65349    0.01152     3.66474
      N    5   -0.11378      0.99966     2.60003    0.01409     3.61378
      C    6   -0.08808      0.99960     2.07609    0.01239     3.08808
      C    7   -0.09520      0.99959     2.08376    0.01185     3.09520
      N    8   -0.19675      0.99970     2.68334    0.01371     3.69675
      N    9    0.12329      0.99970     2.36103    0.01597     3.37671
      N   10   -0.02297      0.99982     2.51006    0.01309     3.52297
      C   11    0.23206      0.99967     1.74899    0.01927     2.76794
      O   12   -0.26144      0.99988     3.25450    0.00705     4.26144
      H   13    0.10149      0.00000     0.39715    0.00135     0.39851
      H   14    0.10129      0.00000     0.39786    0.00085     0.39871
      H   15    0.10959      0.00000     0.38866    0.00175     0.39041
      H   16    0.10586      0.00000     0.39056    0.00358     0.39414
      H   17    0.10481      0.00000     0.39204    0.00315     0.39519
      H   18    0.09088      0.00000     0.40744    0.00168     0.40912
      H   19    0.03599      0.00000     0.46183    0.00218     0.46401
 =======================================================================
   * Total *    0.00000     11.99598    30.83398    0.17004    43.00000

 Normal termination of Gaussian 16 at Wed Dec  9 17:14:36 2020.
