 Gaussian 16, Revision A.03,

 -----------------------------------------------------------
 # opt freq B3LYP/6-31G(d) empiricaldispersion=gd3bj scf=xqc
 -----------------------------------------------------------

 -------------------------------
 CID_114677475_JID_7378_neutraal
 -------------------------------
 Symbolic Z-matrix:
 Charge =  0 Multiplicity = 1

 SCF Done:  E(RB3LYP) =  -799.496504220     A.U. after   15 cycles
 SCF Done:  E(RB3LYP) =  -799.503704986     A.U. after   13 cycles
 SCF Done:  E(RB3LYP) =  -799.504395431     A.U. after   13 cycles
 SCF Done:  E(RB3LYP) =  -799.506261108     A.U. after   12 cycles
 SCF Done:  E(RB3LYP) =  -799.507491534     A.U. after   12 cycles
 SCF Done:  E(RB3LYP) =  -799.507986630     A.U. after   12 cycles
 SCF Done:  E(RB3LYP) =  -799.508459148     A.U. after   11 cycles
 SCF Done:  E(RB3LYP) =  -799.508562912     A.U. after   11 cycles
 SCF Done:  E(RB3LYP) =  -799.508573135     A.U. after   11 cycles
 SCF Done:  E(RB3LYP) =  -799.508590640     A.U. after   10 cycles
 SCF Done:  E(RB3LYP) =  -799.508594830     A.U. after    8 cycles
 SCF Done:  E(RB3LYP) =  -799.508595224     A.U. after    8 cycles
 SCF Done:  E(RB3LYP) =  -799.508595553     A.U. after    7 cycles
 SCF Done:  E(RB3LYP) =  -799.508595673     A.U. after    7 cycles
 Optimization completed.
    -- Stationary point found.
 Normal termination of Gaussian 16 at Fri Dec 11 12:15:07 2020.

 --------------------------------------------------------------------
 #N Geom=AllCheck Guess=TCheck SCRF=Check GenChk RB3LYP/6-31G(d) Freq
 --------------------------------------------------------------------

 Structure from the checkpoint file:  "JID_7378.chk"
 -------------------------------
 CID_114677475_JID_7378_neutraal
 -------------------------------
 Charge =  0 Multiplicity = 1

 SCF Done:  E(RB3LYP) =  -799.508595673     A.U. after    1 cycles

  Exact polarizability: 136.650 -12.753 141.767   0.382   3.236 133.835
 Approx polarizability: 182.765 -21.559 219.530   0.987  13.420 227.340

                      1                      2                      3
                      A                      A                      A
 Frequencies --     36.5825                44.3466                61.5579
 Red. masses --      4.6116                 4.5908                 6.1974
 Frc consts  --      0.0036                 0.0053                 0.0138
 IR Inten    --      0.7967                 0.1073                 4.2887

                      4                      5                      6
                      A                      A                      A
 Frequencies --     85.8526               102.0938               119.7238
 Red. masses --      6.6443                 4.1515                 3.4606
 Frc consts  --      0.0289                 0.0255                 0.0292
 IR Inten    --      7.5876                 1.0761                 2.6654

                      7                      8                      9
                      A                      A                      A
 Frequencies --    170.9921               172.9333               210.2373
 Red. masses --      2.5297                 1.1719                 1.6886
 Frc consts  --      0.0436                 0.0206                 0.0440
 IR Inten    --      5.1624                19.6395                 4.1748

                     10                     11                     12
                      A                      A                      A
 Frequencies --    237.2638               257.1969               275.6343
 Red. masses --      1.8327                 4.3058                 3.3215
 Frc consts  --      0.0608                 0.1678                 0.1487
 IR Inten    --      9.3330                 5.9688                 3.9674

                     13                     14                     15
                      A                      A                      A
 Frequencies --    288.9880               326.1291               343.1476
 Red. masses --      3.4143                 1.2965                 4.8882
 Frc consts  --      0.1680                 0.0812                 0.3391
 IR Inten    --      7.5831                43.9966                 3.2161

                     16                     17                     18
                      A                      A                      A
 Frequencies --    369.7268               373.5499               395.1565
 Red. masses --      1.8785                 4.1228                 3.2183
 Frc consts  --      0.1513                 0.3390                 0.2961
 IR Inten    --     34.2536                17.5276                 6.2045

                     19                     20                     21
                      A                      A                      A
 Frequencies --    425.8408               436.1621               466.2702
 Red. masses --      3.1789                 1.9858                 2.8714
 Frc consts  --      0.3396                 0.2226                 0.3678
 IR Inten    --      2.5768                 2.9770                 2.5059

                     22                     23                     24
                      A                      A                      A
 Frequencies --    507.0090               565.7661               586.3635
 Red. masses --      2.8430                 3.7339                 3.4731
 Frc consts  --      0.4306                 0.7042                 0.7036
 IR Inten    --      8.6573                12.1685                 3.8617

                     25                     26                     27
                      A                      A                      A
 Frequencies --    622.4800               631.2291               652.5403
 Red. masses --      4.1698                 4.2408                 3.1865
 Frc consts  --      0.9519                 0.9956                 0.7994
 IR Inten    --     14.5176                10.3642                27.7800

                     28                     29                     30
                      A                      A                      A
 Frequencies --    662.2248               710.2609               736.7802
 Red. masses --      3.3250                 4.0108                 1.7255
 Frc consts  --      0.8591                 1.1921                 0.5519
 IR Inten    --     28.2738                 5.6540                56.4662

                     31                     32                     33
                      A                      A                      A
 Frequencies --    743.4272               778.3514               794.4267
 Red. masses --      2.0648                 1.4487                 2.3479
 Frc consts  --      0.6724                 0.5171                 0.8730
 IR Inten    --     29.4219               131.3712                13.3797

                     34                     35                     36
                      A                      A                      A
 Frequencies --    819.8526               829.0647               879.7608
 Red. masses --      2.2069                 2.2760                 2.3671
 Frc consts  --      0.8740                 0.9217                 1.0794
 IR Inten    --     19.4194                43.9090                 0.5253

                     37                     38                     39
                      A                      A                      A
 Frequencies --    893.4291               944.7943               971.4009
 Red. masses --      1.6535                 2.2412                 2.1158
 Frc consts  --      0.7776                 1.1787                 1.1763
 IR Inten    --     12.9737                 6.4572                 8.5399

                     40                     41                     42
                      A                      A                      A
 Frequencies --    988.8940              1013.8760              1026.2590
 Red. masses --      2.1457                 2.4359                 2.0644
 Frc consts  --      1.2363                 1.4753                 1.2810
 IR Inten    --     13.1839                14.5889                23.6655

                     43                     44                     45
                      A                      A                      A
 Frequencies --   1032.7776              1047.3739              1060.4923
 Red. masses --      2.0256                 3.8220                 1.7927
 Frc consts  --      1.2730                 2.4702                 1.1879
 IR Inten    --      4.6694                 5.7325                22.2671

                     46                     47                     48
                      A                      A                      A
 Frequencies --   1097.7847              1100.7244              1114.8904
 Red. masses --      1.9068                 2.7132                 1.3397
 Frc consts  --      1.3539                 1.9368                 0.9811
 IR Inten    --     30.6435               103.3878                 3.9180

                     49                     50                     51
                      A                      A                      A
 Frequencies --   1138.2192              1153.5024              1171.8549
 Red. masses --      2.1529                 1.7728                 1.6019
 Frc consts  --      1.6433                 1.3898                 1.2961
 IR Inten    --      2.5659                12.3888                 3.9635

                     52                     53                     54
                      A                      A                      A
 Frequencies --   1212.1157              1221.9232              1238.0522
 Red. masses --      1.8181                 1.6574                 1.9452
 Frc consts  --      1.5739                 1.4581                 1.7566
 IR Inten    --      2.4486                 6.5449                11.5005

                     55                     56                     57
                      A                      A                      A
 Frequencies --   1252.9815              1274.0957              1305.4157
 Red. masses --      1.4746                 1.5481                 1.6814
 Frc consts  --      1.3640                 1.4806                 1.6882
 IR Inten    --     13.1515                10.7587                72.1077

                     58                     59                     60
                      A                      A                      A
 Frequencies --   1312.8090              1331.9050              1360.3468
 Red. masses --      1.4145                 1.5335                 1.3784
 Frc consts  --      1.4363                 1.6028                 1.5029
 IR Inten    --     18.9836                 1.3025                 1.9980

                     61                     62                     63
                      A                      A                      A
 Frequencies --   1364.7561              1383.4340              1396.7639
 Red. masses --      1.3770                 1.4531                 1.3631
 Frc consts  --      1.5111                 1.6386                 1.5668
 IR Inten    --      6.9787                 6.2780                 7.9240

                     64                     65                     66
                      A                      A                      A
 Frequencies --   1400.1164              1413.9416              1414.6076
 Red. masses --      2.5436                 1.5504                 1.4222
 Frc consts  --      2.9378                 1.8263                 1.6768
 IR Inten    --     11.8597                23.6596                13.8715

                     67                     68                     69
                      A                      A                      A
 Frequencies --   1417.8511              1441.7166              1446.5004
 Red. masses --      3.0733                 4.1662                 1.3084
 Frc consts  --      3.6402                 5.1021                 1.6130
 IR Inten    --     32.2475                74.0259                23.6664

                     70                     71                     72
                      A                      A                      A
 Frequencies --   1453.8689              1490.6365              1500.2574
 Red. masses --      1.2723                 2.8542                 2.7648
 Frc consts  --      1.5845                 3.7366                 3.6665
 IR Inten    --     38.8829                56.6884                61.8735

                     73                     74                     75
                      A                      A                      A
 Frequencies --   1511.9690              1512.2434              1519.1270
 Red. masses --      1.1446                 1.1107                 1.1623
 Frc consts  --      1.5417                 1.4965                 1.5804
 IR Inten    --      4.1856                18.2216                14.8260

                     76                     77                     78
                      A                      A                      A
 Frequencies --   1535.3452              1538.5562              1543.8118
 Red. masses --      1.0583                 1.0941                 1.0686
 Frc consts  --      1.4698                 1.5260                 1.5006
 IR Inten    --      8.1760                21.4866                 8.7336

                     79                     80                     81
                      A                      A                      A
 Frequencies --   1643.8359              1696.7207              1754.6247
 Red. masses --      4.1482                 1.1980                 9.7242
 Frc consts  --      6.6044                 2.0319                17.6389
 IR Inten    --     35.3310                64.0610               294.8712

                     82                     83                     84
                      A                      A                      A
 Frequencies --   3028.7105              3035.8059              3039.0033
 Red. masses --      1.0742                 1.0739                 1.0841
 Frc consts  --      5.8054                 5.8311                 5.8989
 IR Inten    --     22.2297                34.9981                12.6372

                     85                     86                     87
                      A                      A                      A
 Frequencies --   3053.6700              3058.5966              3063.7368
 Red. masses --      1.0782                 1.0463                 1.0559
 Frc consts  --      5.9236                 5.7672                 5.8392
 IR Inten    --     79.2613                15.7328                25.3837

                     88                     89                     90
                      A                      A                      A
 Frequencies --   3105.0630              3107.2848              3124.1800
 Red. masses --      1.0610                 1.1037                 1.1015
 Frc consts  --      6.0269                 6.2785                 6.3342
 IR Inten    --     19.5262                38.0356                20.5954

                     91                     92                     93
                      A                      A                      A
 Frequencies --   3134.6775              3164.6504              3165.9263
 Red. masses --      1.1015                 1.1055                 1.0924
 Frc consts  --      6.3772                 6.5230                 6.4514
 IR Inten    --     16.6813                 3.6505                 4.1519

                     94                     95                     96
                      A                      A                      A
 Frequencies --   3184.2920              3253.7373              3280.1669
 Red. masses --      1.0910                 1.0958                 1.0976
 Frc consts  --      6.5179                 6.8354                 6.9580
 IR Inten    --      3.1072                 6.1832                 1.3169

                     97                     98                     99
                      A                      A                      A
 Frequencies --   3523.8094              3615.9013              3735.4684
 Red. masses --      1.0489                 1.0959                 1.0657
 Frc consts  --      7.6735                 8.4421                 8.7615
 IR Inten    --      5.3490                 6.2008                 8.1011

 - Thermochemistry -
 -------------------
 Temperature   298.150 Kelvin.  Pressure   1.00000 Atm.
 Atom     1 has atomic number  6 and mass  12.00000

 Molecular mass:   238.14298 amu.
 Principal axes and moments of inertia in atomic units:
                           1         2         3
     Eigenvalues --  2930.928884367.785945459.04085
           X            0.99988  -0.01503   0.00470
           Y            0.01515   0.99953  -0.02677
           Z           -0.00430   0.02684   0.99963
 This molecule is an asymmetric top.
 Rotational symmetry number  1.
 Warning -- assumption of classical behavior for rotation
           may cause significant error
 Rotational temperatures (Kelvin)      0.02955     0.01983     0.01587
 Rotational constants (GHZ):           0.61576     0.41319     0.33060
 Zero-point vibrational energy     789775.8 (Joules/Mol)
                                  188.76095 (Kcal/Mol)
 Warning -- explicit consideration of  24 degrees of freedom as
           vibrations may cause significant error
 Vibrational temperatures:     52.63    63.80    88.57   123.52   146.89
          (Kelvin)            172.26   246.02   248.81   302.48   341.37
                              370.05   396.58   415.79   469.23   493.71
                              531.95   537.45   568.54   612.69   627.54
                              670.86   729.47   814.01   843.65   895.61
                              908.20   938.86   952.79  1021.91  1060.06
                             1069.63  1119.87  1143.00  1179.58  1192.84
                             1265.78  1285.45  1359.35  1397.63  1422.80
                             1458.74  1476.56  1485.94  1506.94  1525.81
                             1579.47  1583.70  1604.08  1637.64  1659.63
                             1686.04  1743.96  1758.08  1781.28  1802.76
                             1833.14  1878.20  1888.84  1916.31  1957.24
                             1963.58  1990.45  2009.63  2014.46  2034.35
                             2035.30  2039.97  2074.31  2081.19  2091.79
                             2144.69  2158.54  2175.39  2175.78  2185.68
                             2209.02  2213.64  2221.20  2365.11  2441.20
                             2524.51  4357.64  4367.85  4372.45  4393.55
                             4400.64  4408.03  4467.49  4470.69  4495.00
                             4510.10  4553.23  4555.06  4581.49  4681.40
                             4719.43  5069.98  5202.48  5374.51

 Zero-point correction=                           0.300810 (Hartree/Particle)
 Thermal correction to Energy=                    0.317026
 Thermal correction to Enthalpy=                  0.317970
 Thermal correction to Gibbs Free Energy=         0.257032
 Sum of electronic and zero-point Energies=           -799.207786
 Sum of electronic and thermal Energies=              -799.191569
 Sum of electronic and thermal Enthalpies=            -799.190625
 Sum of electronic and thermal Free Energies=         -799.251564

                     E (Thermal)             CV                S
                      KCal/Mol        Cal/Mol-Kelvin    Cal/Mol-Kelvin
 Total                  198.937             62.862            128.256
 Electronic               0.000              0.000              0.000
 Translational            0.889              2.981             42.304
 Rotational               0.889              2.981             32.613
 Vibrational            197.160             56.900             53.338
 Vibration     1          0.594              1.982              5.436
 Vibration     2          0.595              1.980              5.055
 Vibration     3          0.597              1.973              4.407
 Vibration     4          0.601              1.959              3.752
 Vibration     5          0.604              1.947              3.414
 Vibration     6          0.609              1.933              3.105
 Vibration     7          0.626              1.878              2.425
 Vibration     8          0.626              1.876              2.403
 Vibration     9          0.642              1.825              2.042
 Vibration    10          0.656              1.784              1.823
 Vibration    11          0.667              1.751              1.681
 Vibration    12          0.677              1.718              1.561
 Vibration    13          0.686              1.694              1.480
 Vibration    14          0.710              1.623              1.279
 Vibration    15          0.722              1.589              1.197
 Vibration    16          0.742              1.534              1.081
 Vibration    17          0.745              1.526              1.065
 Vibration    18          0.762              1.481              0.981
 Vibration    19          0.788              1.414              0.872
 Vibration    20          0.797              1.391              0.839
 Vibration    21          0.824              1.325              0.748
 Vibration    22          0.862              1.234              0.641
 Vibration    23          0.922              1.105              0.512
 Vibration    24          0.943              1.061              0.474

                           ! Non-Optimized Parameters !
 Normal termination of Gaussian 16 at Fri Dec 11 12:32:06 2020.

 ----------------------------------------------------------------------
 # B3LYP/6-311++G(d,p) empiricaldispersion=gd3bj scf=xqc pop=npa geom=c
 heck
 ----------------------------------------------------------------------

 ---------------------------------------
 CID_114677475_JID_7378_Energie_neutraal
 ---------------------------------------
 Structure from the checkpoint file:  "JID_7378.chk"
 Charge =  0 Multiplicity = 1

 SCF Done:  E(RB3LYP) =  -799.746739974     A.U. after   15 cycles
 Normal termination of Gaussian 16 at Fri Dec 11 12:40:11 2020.

 ----------------------------------------------------------------------
 # B3LYP/6-311++G(d,p) empiricaldispersion=gd3bj scf=xqc pop=npa geom=c
 heck
 ----------------------------------------------------------------------

 -------------------------------------
 CID_114677475_JID_7378_Energie_kation
 -------------------------------------
 Structure from the checkpoint file:  "JID_7378.chk"
 Charge =  1 Multiplicity = 2

 SCF Done:  E(UB3LYP) =  -799.457540162     A.U. after   33 cycles
 SCF Done:  E(UB3LYP) =  -799.457559305     a.u. after    5 cycles
 Normal termination of Gaussian 16 at Fri Dec 11 14:32:44 2020.
 Gaussian 16:  ES64L-G16RevA.03 25-Dec-2016

 ----------------------------------------------------------------------
 # B3LYP/6-311++G(d,p) empiricaldispersion=gd3bj scf=xqc pop=npa geom=c
 heck
 ----------------------------------------------------------------------

 ------------------------------------
 CID_114677475_JID_7378_Energie_anion
 ------------------------------------
 Structure from the checkpoint file:  "JID_7378.chk"
 Charge = -1 Multiplicity = 2

                         Standard orientation:
 ---------------------------------------------------------------------
 Center     Atomic      Atomic             Coordinates (Angstroms)
 Number     Number       Type             X           Y           Z
 ---------------------------------------------------------------------
      1          6           0       -1.516874   -0.787912    1.803570
      2          6           0       -2.507352   -0.481078    0.673719
      3          6           0       -2.466601    1.002496    0.262803
      4          7           0       -1.205804    1.325799   -0.406455
      5          6           0       -0.983357    0.556564   -1.631113
      6          6           0       -1.002517   -0.947770   -1.331480
      7          6           0       -2.276416   -1.353983   -0.580571
      8          8           0       -2.292580   -2.747544   -0.288545
      9          6           0       -0.267909    2.050361    0.268612
     10          8           0       -0.471449    2.558331    1.369171
     11          6           0        1.125755    2.190819   -0.365782
     12          7           0        1.851668    0.935794   -0.291923
     13          6           0        2.095782    0.205740    0.840302
     14          6           0        2.699532   -0.971909    0.424788
     15          6           0        2.769985   -0.851543   -0.986279
     16          7           0        2.250826    0.304827   -1.410548
     17          7           0        3.080495   -2.077739    1.203334
     18          1           0       -0.478672   -0.629511    1.495312
     19          1           0       -1.620339   -1.826512    2.135760
     20          1           0       -1.704500   -0.140729    2.665892
     21          1           0       -3.520202   -0.696221    1.038992
     22          1           0       -3.285895    1.219882   -0.436141
     23          1           0       -2.562910    1.659429    1.126710
     24          1           0       -0.039301    0.830270   -2.097072
     25          1           0       -1.791071    0.808076   -2.332953
     26          1           0       -0.115764   -1.200639   -0.737302
     27          1           0       -0.935632   -1.514513   -2.266630
     28          1           0       -3.133528   -1.205764   -1.250588
     29          1           0       -1.473402   -2.949367    0.190843
     30          1           0        1.106314    2.482638   -1.416399
     31          1           0        1.643521    2.960845    0.210514
     32          1           0        1.821419    0.576610    1.816895
     33          1           0        3.178244   -1.555676   -1.699454
     34          1           0        3.878438   -2.567992    0.813235
     35          1           0        3.285034   -1.828606    2.165106
 ---------------------------------------------------------------------

 SCF Done:  E(UB3LYP) =  -799.736692733     A.U. after   33 cycles
 SCF Done:  E(UB3LYP) =  -799.736692733     a.u. after    1 cycles

 The electronic state is 2-A.
 Alpha  occ. eigenvalues --  -19.03467 -19.00381 -14.30054 -14.26008 -14.24113
 Alpha  occ. eigenvalues --  -14.21318 -10.18937 -10.13881 -10.13230 -10.12136
 Alpha  occ. eigenvalues --  -10.11376 -10.11148 -10.10413 -10.09369 -10.08878
 Alpha  occ. eigenvalues --  -10.08073 -10.06816  -0.96724  -0.95314  -0.93770
 Alpha  occ. eigenvalues --   -0.85956  -0.80913  -0.75783  -0.71530  -0.68829
 Alpha  occ. eigenvalues --   -0.68186  -0.63165  -0.60452  -0.58554  -0.54438
 Alpha  occ. eigenvalues --   -0.50859  -0.50388  -0.48932  -0.46340  -0.45029
 Alpha  occ. eigenvalues --   -0.41994  -0.40462  -0.39404  -0.39214  -0.38635
 Alpha  occ. eigenvalues --   -0.37898  -0.36607  -0.35861  -0.35487  -0.35135
 Alpha  occ. eigenvalues --   -0.32550  -0.32287  -0.31889  -0.30947  -0.30125
 Alpha  occ. eigenvalues --   -0.29758  -0.29166  -0.27970  -0.26947  -0.26179
 Alpha  occ. eigenvalues --   -0.25414  -0.23421  -0.22834  -0.20980  -0.18714
 Alpha  occ. eigenvalues --   -0.17940  -0.16256  -0.15904  -0.11181   0.04055
 Alpha virt. eigenvalues --    0.05361   0.07097   0.07474   0.08066   0.08324
 Alpha virt. eigenvalues --    0.08482   0.09099   0.09783   0.10069   0.10396
 Alpha virt. eigenvalues --    0.10924   0.11044   0.12030   0.12503   0.13032

  Beta  occ. eigenvalues --  -19.03459 -19.00361 -14.30046 -14.26014 -14.24109
  Beta  occ. eigenvalues --  -14.21232 -10.18918 -10.13878 -10.13220 -10.12120
  Beta  occ. eigenvalues --  -10.11361 -10.11143 -10.10402 -10.09358 -10.08873
  Beta  occ. eigenvalues --  -10.08067 -10.06801  -0.96710  -0.95287  -0.93754
  Beta  occ. eigenvalues --   -0.85945  -0.80803  -0.75759  -0.71508  -0.68807
  Beta  occ. eigenvalues --   -0.68149  -0.63128  -0.60421  -0.58521  -0.54411
  Beta  occ. eigenvalues --   -0.50806  -0.50355  -0.48905  -0.46307  -0.44991
  Beta  occ. eigenvalues --   -0.41958  -0.40428  -0.39357  -0.39148  -0.38598
  Beta  occ. eigenvalues --   -0.37870  -0.36571  -0.35826  -0.35459  -0.35096
  Beta  occ. eigenvalues --   -0.32528  -0.32265  -0.31871  -0.30926  -0.30083
  Beta  occ. eigenvalues --   -0.29706  -0.29149  -0.27940  -0.26923  -0.26145
  Beta  occ. eigenvalues --   -0.25392  -0.23368  -0.22810  -0.20966  -0.18701
  Beta  occ. eigenvalues --   -0.17922  -0.16232  -0.15888  -0.11132
  Beta virt. eigenvalues --    0.06222   0.07022   0.07259   0.07863   0.08547
  Beta virt. eigenvalues --    0.08682   0.08927   0.09372   0.09950   0.10261
  Beta virt. eigenvalues --    0.10543   0.11192   0.11651   0.12160   0.12709

 Mulliken charges and spin densities:
               1          2
     1  C   -0.104523  -0.527768
     2  C   -0.422491   0.875217
     3  C    0.269879  -0.706027
     4  N    0.116872   0.020579
     5  C    0.045172  -0.413169
     6  C   -0.269116   0.255844
     7  C    0.318299  -1.283470
     8  O   -0.197094   0.029333
     9  C   -0.107927   0.072576
    10  O   -0.306030   0.021392
    11  C   -0.115225  -0.291895
    12  N    0.193687   0.035011
    13  C    0.554285  -0.759605
    14  C    0.155844  -0.237854
    15  C    0.322754  -0.660698
    16  N   -0.245597   0.044199
    17  N   -0.362922   0.104755
    18  H    0.122875   0.052236
    19  H   -0.012744   0.145254
    20  H    0.105783   0.059650
    21  H   -0.040145   0.262855
    22  H   -0.270844   0.440987
    23  H    0.125843   0.088706
    24  H    0.177981  -0.026661
    25  H   -0.506413   0.696905
    26  H    0.055014   0.165422
    27  H    0.075853   0.128126
    28  H   -0.020068   0.223780
    29  H    0.183253   0.065239
    30  H    0.122320   0.082049
    31  H    0.167692   0.049207
    32  H    0.056491   0.134422
    33  H   -0.229501   0.378463
    34  H   -0.519443   0.785744
    35  H   -0.439818   0.689197
 Sum of Mulliken charges =  -1.00000   1.00000

 Dipole moment (field-independent basis, Debye):
    X=             -2.9887    Y=              4.7305    Z=             -2.0798  Tot=              5.9696
 Quadrupole moment (field-independent basis, Debye-Ang):
   XX=           -181.1023   YY=           -154.0308   ZZ=           -145.3873
   XY=             19.0940   XZ=            -15.6841   YZ=              3.5289

 Summary of Natural Population Analysis:

                                       Natural Population
                Natural  -----------------------------------------------
    Atom  No    Charge         Core      Valence    Rydberg      Total
 -----------------------------------------------------------------------
      C    1   -0.29652      0.99964     2.28945    0.00744     3.29652
      C    2   -0.12504      0.99958     2.11446    0.01100     3.12504
      C    3   -0.08713      0.99958     2.07562    0.01193     3.08713
      N    4   -0.25344      0.99963     2.74162    0.01218     3.75344
      C    5   -0.08785      0.99960     2.07758    0.01068     3.08785
      C    6   -0.21144      0.99960     2.20233    0.00952     3.21144
      C    7    0.06765      0.99951     1.91830    0.01454     2.93235
      O    8   -0.36906      0.99990     3.36279    0.00638     4.36906
      C    9    0.34109      0.99963     1.63711    0.02216     2.65891
      O   10   -0.32438      0.99988     3.31909    0.00541     4.32438
      C   11   -0.12007      0.99957     2.11058    0.00992     3.12007
      N   12   -0.10913      0.99966     2.59654    0.01293     3.60913
      C   13   -0.04505      0.99950     2.03336    0.01218     3.04505
      C   14    0.03611      0.99948     1.95158    0.01283     2.96389
      C   15   -0.03162      0.99957     2.01716    0.01489     3.03162
      N   16   -0.15584      0.99973     2.64440    0.01170     3.65584
      N   17   -0.39954      0.99973     2.88867    0.01115     3.89954
      H   18    0.10273      0.00000     0.39579    0.00148     0.39727
      H   19    0.10035      0.00000     0.39869    0.00096     0.39965
      H   20    0.10513      0.00000     0.39410    0.00077     0.39487
      H   21    0.10213      0.00000     0.39678    0.00110     0.39787
      H   22    0.09782      0.00000     0.40068    0.00150     0.40218
      H   23    0.11648      0.00000     0.38240    0.00112     0.38352
      H   24    0.11253      0.00000     0.38574    0.00173     0.38747
      H   25    0.09515      0.00000     0.40324    0.00161     0.40485
      H   26    0.10379      0.00000     0.39343    0.00278     0.39621
      H   27    0.10629      0.00000     0.39272    0.00100     0.39371
      H   28    0.08823      0.00000     0.41015    0.00163     0.41177
      H   29    0.22821      0.00000     0.26888    0.00291     0.27179
      H   30    0.11365      0.00000     0.38513    0.00123     0.38635
      H   31    0.10921      0.00000     0.38969    0.00110     0.39079
      H   32    0.11163      0.00000     0.38710    0.00127     0.38837
      H   33    0.10010      0.00000     0.39890    0.00100     0.39990
      H   34    0.18929      0.00000     0.30053    0.01019     0.31071
      H   35    0.18855      0.00000     0.30322    0.00823     0.31145
 =======================================================================
   * Total *    0.00000     16.99379    46.76778    0.23843    64.00000

 Normal termination of Gaussian 16 at Fri Dec 11 14:56:53 2020.
