 Gaussian 16, Revision A.03,

 -----------------------------------------------------------
 # opt freq B3LYP/6-31G(d) empiricaldispersion=gd3bj scf=xqc
 -----------------------------------------------------------

 ------------------------------
 CID_130556248_JID_490_neutraal
 ------------------------------
 Symbolic Z-matrix:
 Charge =  0 Multiplicity = 1

 SCF Done:  E(RB3LYP) =  -798.887121944     A.U. after   14 cycles
 SCF Done:  E(RB3LYP) =  -798.892162265     A.U. after   12 cycles
 SCF Done:  E(RB3LYP) =  -798.892098024     A.U. after   12 cycles
 SCF Done:  E(RB3LYP) =  -798.893028032     A.U. after   11 cycles
 SCF Done:  E(RB3LYP) =  -798.893234321     A.U. after   11 cycles
 SCF Done:  E(RB3LYP) =  -798.893269837     A.U. after   10 cycles
 SCF Done:  E(RB3LYP) =  -798.893285754     A.U. after   10 cycles
 SCF Done:  E(RB3LYP) =  -798.893288865     A.U. after    9 cycles
 SCF Done:  E(RB3LYP) =  -798.893289904     A.U. after    7 cycles
 SCF Done:  E(RB3LYP) =  -798.893290189     A.U. after    7 cycles
 Optimization completed.
    -- Stationary point found.
 Normal termination of Gaussian 16 at Tue Dec  8 10:45:32 2020.

 --------------------------------------------------------------------
 #N Geom=AllCheck Guess=TCheck SCRF=Check GenChk RB3LYP/6-31G(d) Freq
 --------------------------------------------------------------------

 Structure from the checkpoint file:  "JID_490.chk"
 ------------------------------
 CID_130556248_JID_490_neutraal
 ------------------------------
 Charge =  0 Multiplicity = 1

 SCF Done:  E(RB3LYP) =  -798.893290189     A.U. after    1 cycles

  Exact polarizability: 136.404 -11.662  98.658   0.027   2.377  69.725
 Approx polarizability: 185.863 -24.687 146.514  -0.748   7.835 107.394

                      1                      2                      3
                      A                      A                      A
 Frequencies --     54.2976                74.2548                90.9105
 Red. masses --      4.2421                 2.7934                 3.5712
 Frc consts  --      0.0074                 0.0091                 0.0174
 IR Inten    --      0.8147                 1.0222                 2.3784

                      4                      5                      6
                      A                      A                      A
 Frequencies --    137.0482               188.3042               231.7371
 Red. masses --      2.8217                 3.5362                 1.4729
 Frc consts  --      0.0312                 0.0739                 0.0466
 IR Inten    --     10.7253                 0.2991                 1.9433

                      7                      8                      9
                      A                      A                      A
 Frequencies --    242.3780               246.5246               277.3051
 Red. masses --      2.1933                 2.7642                 1.6558
 Frc consts  --      0.0759                 0.0990                 0.0750
 IR Inten    --      2.3309                 2.9499                11.5111

                     10                     11                     12
                      A                      A                      A
 Frequencies --    317.2869               374.4424               410.9904
 Red. masses --      2.2153                 2.2208                 2.9018
 Frc consts  --      0.1314                 0.1835                 0.2888
 IR Inten    --     10.0845                 2.8870                 7.1041

                     13                     14                     15
                      A                      A                      A
 Frequencies --    462.6108               529.4119               637.4093
 Red. masses --      4.2461                 2.8561                 1.5223
 Frc consts  --      0.5354                 0.4716                 0.3644
 IR Inten    --      7.8971                14.9222                33.7109

                     16                     17                     18
                      A                      A                      A
 Frequencies --    660.3321               699.9276               721.3711
 Red. masses --      7.4934                 1.6683                 1.3520
 Frc consts  --      1.9251                 0.4815                 0.4145
 IR Inten    --     21.2831                26.1006               151.6893

                     19                     20                     21
                      A                      A                      A
 Frequencies --    793.7304               870.7495               896.3777
 Red. masses --      1.9487                 2.0617                 1.9828
 Frc consts  --      0.7233                 0.9210                 0.9387
 IR Inten    --      7.0598                15.4457                11.4076

                     22                     23                     24
                      A                      A                      A
 Frequencies --    899.9585               907.2962               946.0877
 Red. masses --      1.8094                 1.7730                 3.0199
 Frc consts  --      0.8635                 0.8599                 1.5926
 IR Inten    --     44.4541                21.5997                49.0575

                     25                     26                     27
                      A                      A                      A
 Frequencies --    968.5381               982.8066              1054.8321
 Red. masses --      2.4647                 1.4346                 2.5890
 Frc consts  --      1.3622                 0.8164                 1.6973
 IR Inten    --      8.8285                 1.3611                 1.7047

                     28                     29                     30
                      A                      A                      A
 Frequencies --   1086.1264              1094.8750              1132.5347
 Red. masses --      2.3771                 1.7365                 2.2029
 Frc consts  --      1.6522                 1.2265                 1.6647
 IR Inten    --      0.0735                15.6819                81.0384

                     31                     32                     33
                      A                      A                      A
 Frequencies --   1188.1274              1195.0468              1209.5105
 Red. masses --      2.1821                 1.8599                 1.3229
 Frc consts  --      1.8149                 1.5650                 1.1402
 IR Inten    --     35.5775                 0.4108                 9.3203

                     34                     35                     36
                      A                      A                      A
 Frequencies --   1246.1718              1272.9816              1283.1878
 Red. masses --      2.2076                 1.3858                 1.3638
 Frc consts  --      2.0198                 1.3231                 1.3230
 IR Inten    --    151.5981                49.1034                 3.5832

                     37                     38                     39
                      A                      A                      A
 Frequencies --   1292.8192              1305.5504              1339.1693
 Red. masses --      1.4976                 1.4808                 1.1530
 Frc consts  --      1.4747                 1.4871                 1.2183
 IR Inten    --      1.6001                 3.1108                18.0307

                     40                     41                     42
                      A                      A                      A
 Frequencies --   1348.2665              1389.4462              1442.1985
 Red. masses --      1.3610                 1.4101                 1.4052
 Frc consts  --      1.4577                 1.6039                 1.7220
 IR Inten    --      1.5766                 9.7756                40.2631

                     43                     44                     45
                      A                      A                      A
 Frequencies --   1454.6336              1476.1685              1509.1853
 Red. masses --      3.3756                 1.2595                 1.0851
 Frc consts  --      4.2083                 1.6171                 1.4561
 IR Inten    --    228.7590                 1.2390                 3.2541

                     46                     47                     48
                      A                      A                      A
 Frequencies --   1522.0746              1527.1230              1530.9342
 Red. masses --      1.0565                 1.0781                 1.0822
 Frc consts  --      1.4421                 1.4813                 1.4945
 IR Inten    --      4.3526                11.9786                 2.1522

                     49                     50                     51
                      A                      A                      A
 Frequencies --   1576.1188              1722.5235              3040.1252
 Red. masses --      1.5552                 1.0625                 1.0363
 Frc consts  --      2.2763                 1.8574                 5.6433
 IR Inten    --    285.4761                36.3975                23.5680

                     52                     53                     54
                      A                      A                      A
 Frequencies --   3071.7652              3075.8917              3079.6624
 Red. masses --      1.0807                 1.0640                 1.0779
 Frc consts  --      6.0082                 5.9310                 6.0233
 IR Inten    --     18.1192                21.6368                41.7557

                     55                     56                     57
                      A                      A                      A
 Frequencies --   3085.2821              3101.6504              3115.3099
 Red. masses --      1.0726                 1.1007                 1.1015
 Frc consts  --      6.0157                 6.2387                 6.2988
 IR Inten    --      6.5727                46.0972                30.7392

                     58                     59                     60
                      A                      A                      A
 Frequencies --   3120.8951              3138.3847              3463.8770
 Red. masses --      1.1085                 1.1066                 1.0501
 Frc consts  --      6.3613                 6.4215                 7.4238
 IR Inten    --      5.2881                44.6740                 1.8427

                     61                     62                     63
                      A                      A                      A
 Frequencies --   3574.5230              3593.8899              3597.9457
 Red. masses --      1.0920                 1.0760                 1.0781
 Frc consts  --      8.2205                 8.1886                 8.2225
 IR Inten    --      0.4191                67.1167                 5.1784

 - Thermochemistry -
 -------------------
 Temperature   298.150 Kelvin.  Pressure   1.00000 Atm.
 Atom     1 has atomic number  6 and mass  12.00000

 Molecular mass:   159.08302 amu.
 Principal axes and moments of inertia in atomic units:
                           1         2         3
     Eigenvalues --   917.502792652.315203351.63379
           X            0.99997   0.00805  -0.00070
           Y           -0.00805   0.99997  -0.00089
           Z            0.00069   0.00090   1.00000
 This molecule is an asymmetric top.
 Rotational symmetry number  1.
 Warning -- assumption of classical behavior for rotation
           may cause significant error
 Rotational temperatures (Kelvin)      0.09440     0.03266     0.02584
 Rotational constants (GHZ):           1.96701     0.68044     0.53847
 Zero-point vibrational energy     525644.5 (Joules/Mol)
                                  125.63205 (Kcal/Mol)
 Warning -- explicit consideration of  14 degrees of freedom as
           vibrations may cause significant error
 Vibrational temperatures:     78.12   106.84   130.80   197.18   270.93
          (Kelvin)            333.42   348.73   354.69   398.98   456.51
                              538.74   591.32   665.59   761.71   917.09
                              950.07  1007.04  1037.89  1142.00  1252.81
                             1289.69  1294.84  1305.40  1361.21  1393.51
                             1414.04  1517.67  1562.69  1575.28  1629.46
                             1709.45  1719.41  1740.22  1792.96  1831.54
                             1846.22  1860.08  1878.40  1926.77  1939.85
                             1999.10  2075.00  2092.89  2123.88  2171.38
                             2189.93  2197.19  2202.67  2267.68  2478.33
                             4374.06  4419.59  4425.52  4430.95  4439.03
                             4462.58  4482.24  4490.27  4515.44  4983.75
                             5142.94  5170.81  5176.64

 Zero-point correction=                           0.200207 (Hartree/Particle)
 Thermal correction to Energy=                    0.211286
 Thermal correction to Enthalpy=                  0.212231
 Thermal correction to Gibbs Free Energy=         0.162934
 Sum of electronic and zero-point Energies=           -798.693083
 Sum of electronic and thermal Energies=              -798.682004
 Sum of electronic and thermal Enthalpies=            -798.681060
 Sum of electronic and thermal Free Energies=         -798.730356

                     E (Thermal)             CV                S
                      KCal/Mol        Cal/Mol-Kelvin    Cal/Mol-Kelvin
 Total                  132.584             40.797            103.753
 Electronic               0.000              0.000              0.000
 Translational            0.889              2.981             41.102
 Rotational               0.889              2.981             30.479
 Vibrational            130.807             34.835             32.172
 Vibration     1          0.596              1.976              4.654
 Vibration     2          0.599              1.966              4.037
 Vibration     3          0.602              1.956              3.640
 Vibration     4          0.614              1.916              2.845
 Vibration     5          0.633              1.856              2.244
 Vibration     6          0.653              1.792              1.865
 Vibration     7          0.659              1.775              1.785
 Vibration     8          0.661              1.769              1.755
 Vibration     9          0.678              1.715              1.550
 Vibration    10          0.704              1.641              1.324
 Vibration    11          0.746              1.525              1.062
 Vibration    12          0.775              1.446              0.923
 Vibration    13          0.820              1.333              0.759
 Vibration    14          0.884              1.185              0.589

                           ! Non-Optimized Parameters !
 Normal termination of Gaussian 16 at Tue Dec  8 10:50:18 2020.

 ----------------------------------------------------------------------
 # B3LYP/6-311++G(d,p) empiricaldispersion=gd3bj scf=xqc pop=npa geom=c
 heck
 ----------------------------------------------------------------------

 --------------------------------------
 CID_130556248_JID_490_Energie_neutraal
 --------------------------------------
 Structure from the checkpoint file:  "JID_490.chk"
 Charge =  0 Multiplicity = 1

 SCF Done:  E(RB3LYP) =  -799.042934715     A.U. after   14 cycles
 Normal termination of Gaussian 16 at Tue Dec  8 10:52:45 2020.

 ----------------------------------------------------------------------
 # B3LYP/6-311++G(d,p) empiricaldispersion=gd3bj scf=xqc pop=npa geom=c
 heck
 ----------------------------------------------------------------------

 ------------------------------------
 CID_130556248_JID_490_Energie_kation
 ------------------------------------
 Structure from the checkpoint file:  "JID_490.chk"
 Charge =  1 Multiplicity = 2

 SCF Done:  E(UB3LYP) =  -798.750684218     A.U. after   23 cycles
 Normal termination of Gaussian 16 at Tue Dec  8 11:00:10 2020.
 Gaussian 16:  ES64L-G16RevA.03 25-Dec-2016

 ----------------------------------------------------------------------
 # B3LYP/6-311++G(d,p) empiricaldispersion=gd3bj scf=xqc pop=npa geom=c
 heck
 ----------------------------------------------------------------------

 -----------------------------------
 CID_130556248_JID_490_Energie_anion
 -----------------------------------
 Structure from the checkpoint file:  "JID_490.chk"
 Charge = -1 Multiplicity = 2

                         Standard orientation:
 ---------------------------------------------------------------------
 Center     Atomic      Atomic             Coordinates (Angstroms)
 Number     Number       Type             X           Y           Z
 ---------------------------------------------------------------------
      1          6           0       -2.897954    1.229875    0.176996
      2          6           0       -1.975784    0.216327   -0.493134
      3          6           0       -2.570422   -1.220990   -0.552906
      4          6           0       -1.681101   -1.612952    0.653948
      5          6           0       -0.836935   -0.326486    0.437226
      6          7           0        0.431521   -0.622984   -0.228635
      7          6           0        1.620260    0.001252    0.016005
      8         16           0        3.090953   -0.800415   -0.095466
      9          7           0        1.561804    1.329765    0.365854
     10          7           0        0.627671    2.239375   -0.189747
     11          1           0       -3.777086    1.426718   -0.446489
     12          1           0       -3.255465    0.861421    1.146333
     13          1           0       -2.396830    2.189919    0.353377
     14          1           0       -1.608692    0.601372   -1.450267
     15          1           0       -3.652934   -1.303073   -0.416583
     16          1           0       -2.293867   -1.752238   -1.468252
     17          1           0       -1.135015   -2.560330    0.598199
     18          1           0       -2.217155   -1.587075    1.606256
     19          1           0       -0.632880    0.263569    1.336432
     20          1           0        0.574884   -1.592443   -0.482086
     21          1           0        2.482058    1.741849    0.457989
     22          1           0        0.384491    1.941718   -1.134632
     23          1           0       -0.222103    2.229998    0.366059
 ---------------------------------------------------------------------

 SCF Done:  E(UB3LYP) =  -799.033792947     A.U. after   31 cycles

 The electronic state is 2-A.
 Alpha  occ. eigenvalues --  -88.69390 -14.27165 -14.25071 -14.24411 -10.18697
 Alpha  occ. eigenvalues --  -10.12056 -10.07901 -10.07871 -10.06892 -10.05916
 Alpha  occ. eigenvalues --   -7.78170  -5.74582  -5.74003  -5.73702  -0.92039
 Alpha  occ. eigenvalues --   -0.84900  -0.75886  -0.71733  -0.63316  -0.61617
 Alpha  occ. eigenvalues --   -0.56471  -0.53615  -0.52609  -0.45685  -0.44344
 Alpha  occ. eigenvalues --   -0.41697  -0.40829  -0.39545  -0.36588  -0.34689
 Alpha  occ. eigenvalues --   -0.33095  -0.30232  -0.29314  -0.28421  -0.27757
 Alpha  occ. eigenvalues --   -0.25272  -0.23828  -0.21916  -0.20988  -0.19133
 Alpha  occ. eigenvalues --   -0.16579  -0.13046  -0.11625   0.04337
 Alpha virt. eigenvalues --    0.06891   0.07377   0.07607   0.08186   0.09689
 Alpha virt. eigenvalues --    0.10053   0.10526   0.10988   0.11447   0.12349
 Alpha virt. eigenvalues --    0.12577   0.13858   0.14165   0.14813   0.15663

  Beta  occ. eigenvalues --  -88.69387 -14.27157 -14.25038 -14.24356 -10.18658
  Beta  occ. eigenvalues --  -10.12047 -10.07885 -10.07841 -10.06863 -10.05851
  Beta  occ. eigenvalues --   -7.78168  -5.74581  -5.73996  -5.73700  -0.91979
  Beta  occ. eigenvalues --   -0.84843  -0.75834  -0.71652  -0.63247  -0.61566
  Beta  occ. eigenvalues --   -0.56417  -0.53517  -0.52557  -0.45593  -0.44277
  Beta  occ. eigenvalues --   -0.41627  -0.40769  -0.39482  -0.36533  -0.34639
  Beta  occ. eigenvalues --   -0.33021  -0.30165  -0.29220  -0.28362  -0.27673
  Beta  occ. eigenvalues --   -0.25209  -0.23769  -0.21860  -0.20940  -0.19078
  Beta  occ. eigenvalues --   -0.16506  -0.12986  -0.11608
  Beta virt. eigenvalues --    0.06964   0.07260   0.08369   0.08404   0.08629
  Beta virt. eigenvalues --    0.10119   0.10815   0.11145   0.11434   0.12027
  Beta virt. eigenvalues --    0.12551   0.12901   0.14204   0.14748   0.15187

 Mulliken charges and spin densities:
               1          2
     1  C    3.209915  -3.851450
     2  C   -2.869856   3.468851
     3  C    0.582517  -0.946995
     4  C    1.122325  -1.731944
     5  C   -0.174565  -0.577688
     6  N    0.167044   0.072528
     7  C    0.347013  -0.210122
     8  S   -0.752437   0.007297
     9  N   -0.248549   0.055634
    10  N   -0.063310  -0.153550
    11  H   -0.685452   0.845588
    12  H   -0.452950   0.617733
    13  H   -0.213286   0.327644
    14  H   -0.580123   0.816957
    15  H   -0.375176   0.551651
    16  H   -0.225580   0.358347
    17  H    0.052995   0.072216
    18  H   -0.313153   0.483932
    19  H   -0.086358   0.347157
    20  H    0.279948  -0.026075
    21  H    0.234317   0.059865
    22  H    0.058411   0.168594
    23  H   -0.013690   0.243831
 Sum of Mulliken charges =  -1.00000   1.00000

 Dipole moment (field-independent basis, Debye):
    X=              4.8491    Y=             -1.5790    Z=              0.1445  Tot=              5.1017
 Quadrupole moment (field-independent basis, Debye-Ang):
   XX=           -146.8918   YY=           -109.6343   ZZ=           -101.3622
   XY=              8.3012   XZ=              1.5486   YZ=              2.2700

 Summary of Natural Population Analysis:

                                       Natural Population
                Natural  -----------------------------------------------
    Atom  No    Charge         Core      Valence    Rydberg      Total
 -----------------------------------------------------------------------
      C    1   -0.28607      0.99964     2.27972    0.00670     3.28607
      C    2   -0.11194      0.99960     2.10037    0.01197     3.11194
      C    3   -0.18874      0.99963     2.18007    0.00904     3.18874
      C    4   -0.19044      0.99963     2.18187    0.00893     3.19044
      C    5   -0.01261      0.99956     1.99881    0.01424     3.01261
      N    6   -0.31344      0.99962     2.80123    0.01259     3.81344
      C    7    0.15330      0.99965     1.82542    0.02163     2.84670
      S    8   -0.15067      4.99957     3.13758    0.01352     8.15067
      N    9   -0.23530      0.99962     2.72138    0.01430     3.73530
      N   10   -0.31533      0.99978     2.80476    0.01079     3.81533
      H   11    0.10668      0.00000     0.39099    0.00233     0.39332
      H   12    0.10048      0.00000     0.39710    0.00242     0.39952
      H   13    0.09752      0.00000     0.40019    0.00228     0.40248
      H   14    0.09960      0.00000     0.39831    0.00209     0.40040
      H   15    0.10140      0.00000     0.39689    0.00171     0.39860
      H   16    0.09866      0.00000     0.39984    0.00150     0.40134
      H   17    0.09686      0.00000     0.40189    0.00125     0.40314
      H   18    0.10755      0.00000     0.39097    0.00148     0.39245
      H   19    0.09753      0.00000     0.40033    0.00214     0.40247
      H   20    0.19850      0.00000     0.29917    0.00232     0.30150
      H   21    0.19259      0.00000     0.30518    0.00223     0.30741
      H   22    0.17480      0.00000     0.32182    0.00337     0.32520
      H   23    0.17906      0.00000     0.31787    0.00308     0.32094
 =======================================================================
   * Total *    0.00000     13.99632    28.85177    0.15191    43.00000

 Normal termination of Gaussian 16 at Tue Dec  8 11:08:47 2020.
