 Gaussian 16, Revision A.03,

 -----------------------------------------------------------
 # opt freq B3LYP/6-31G(d) empiricaldispersion=gd3bj scf=xqc
 -----------------------------------------------------------

 --------------------------------
 CID_108793139_JID_10684_neutraal
 --------------------------------
 Symbolic Z-matrix:
 Charge =  0 Multiplicity = 1

 SCF Done:  E(RB3LYP) =  -902.881027557     A.U. after   15 cycles
 SCF Done:  E(RB3LYP) =  -902.886346901     A.U. after   12 cycles
 SCF Done:  E(RB3LYP) =  -902.886901939     A.U. after   12 cycles
 SCF Done:  E(RB3LYP) =  -902.887605743     A.U. after   12 cycles
 SCF Done:  E(RB3LYP) =  -902.887875992     A.U. after   12 cycles
 SCF Done:  E(RB3LYP) =  -902.888046166     A.U. after   11 cycles
 SCF Done:  E(RB3LYP) =  -902.888125934     A.U. after   11 cycles
 SCF Done:  E(RB3LYP) =  -902.888194671     A.U. after   11 cycles
 SCF Done:  E(RB3LYP) =  -902.888232310     A.U. after   11 cycles
 SCF Done:  E(RB3LYP) =  -902.888252467     A.U. after   11 cycles
 SCF Done:  E(RB3LYP) =  -902.888266860     A.U. after   10 cycles
 SCF Done:  E(RB3LYP) =  -902.888270552     A.U. after   10 cycles
 SCF Done:  E(RB3LYP) =  -902.888272514     A.U. after   10 cycles
 SCF Done:  E(RB3LYP) =  -902.888272985     A.U. after    9 cycles
 SCF Done:  E(RB3LYP) =  -902.888273019     A.U. after    7 cycles
 Optimization completed.
    -- Stationary point found.
 Normal termination of Gaussian 16 at Thu Dec 17 20:19:30 2020.

 --------------------------------------------------------------------
 #N Geom=AllCheck Guess=TCheck SCRF=Check GenChk RB3LYP/6-31G(d) Freq
 --------------------------------------------------------------------

 Structure from the checkpoint file:  "JID_10684.chk"
 --------------------------------
 CID_108793139_JID_10684_neutraal
 --------------------------------
 Charge =  0 Multiplicity = 1

 SCF Done:  E(RB3LYP) =  -902.888273019     A.U. after    1 cycles

  Exact polarizability: 244.651  -9.016 187.196   8.532  10.346 121.681
 Approx polarizability: 314.695 -10.596 322.141  19.069  27.012 184.321

                      1                      2                      3
                      A                      A                      A
 Frequencies --     10.9994                29.3655                41.8599
 Red. masses --      4.0743                 3.7019                 3.0041
 Frc consts  --      0.0003                 0.0019                 0.0031
 IR Inten    --      0.2592                 0.7876                 0.3906

                      4                      5                      6
                      A                      A                      A
 Frequencies --     56.7128                77.4314                96.7857
 Red. masses --      4.0481                 4.3296                 5.2215
 Frc consts  --      0.0077                 0.0153                 0.0288
 IR Inten    --      1.7145                 2.4450                 3.0637

                      7                      8                      9
                      A                      A                      A
 Frequencies --    107.4094               128.0315               136.7798
 Red. masses --      3.5429                 4.5915                 3.8032
 Frc consts  --      0.0241                 0.0443                 0.0419
 IR Inten    --      2.4904                 0.2310                 2.7842

                     10                     11                     12
                      A                      A                      A
 Frequencies --    161.2506               198.0381               218.8864
 Red. masses --      2.2703                 3.7097                 1.0336
 Frc consts  --      0.0348                 0.0857                 0.0292
 IR Inten    --      0.0886                 0.6918                 0.0318

                     13                     14                     15
                      A                      A                      A
 Frequencies --    243.0658               258.6745               270.2863
 Red. masses --      1.5630                 1.4380                 1.7461
 Frc consts  --      0.0544                 0.0567                 0.0752
 IR Inten    --      0.5418                 0.4277                 0.3266

                     16                     17                     18
                      A                      A                      A
 Frequencies --    280.8728               295.6287               310.7884
 Red. masses --      2.7637                 3.7302                 4.7255
 Frc consts  --      0.1285                 0.1921                 0.2689
 IR Inten    --      1.8083                 0.7518                 2.6702

                     19                     20                     21
                      A                      A                      A
 Frequencies --    323.8542               345.4114               383.3814
 Red. masses --      2.8877                 2.5162                 2.0051
 Frc consts  --      0.1784                 0.1769                 0.1736
 IR Inten    --      1.6849                 0.6729                 1.3630

                     22                     23                     24
                      A                      A                      A
 Frequencies --    402.7597               425.6794               442.6913
 Red. masses --      3.5775                 3.7092                 3.3728
 Frc consts  --      0.3419                 0.3960                 0.3894
 IR Inten    --      4.7215                 0.4909                 5.0827

                     25                     26                     27
                      A                      A                      A
 Frequencies --    471.4625               484.9844               489.0405
 Red. masses --      4.1933                 2.7866                 3.8002
 Frc consts  --      0.5492                 0.3862                 0.5355
 IR Inten    --      4.0841                 4.8666                 2.0342

                     28                     29                     30
                      A                      A                      A
 Frequencies --    543.0693               549.7396               564.5730
 Red. masses --      3.7366                 3.5523                 2.3762
 Frc consts  --      0.6493                 0.6325                 0.4462
 IR Inten    --      6.9454                 6.6537                38.0834

                     31                     32                     33
                      A                      A                      A
 Frequencies --    578.4031               612.4655               636.6578
 Red. masses --      3.6345                 3.1825                 3.0759
 Frc consts  --      0.7164                 0.7034                 0.7346
 IR Inten    --     35.9148                18.9347                 9.8923

                     34                     35                     36
                      A                      A                      A
 Frequencies --    667.0313               702.1773               732.5107
 Red. masses --      2.6600                 4.5724                 4.4218
 Frc consts  --      0.6973                 1.3283                 1.3979
 IR Inten    --     15.7049                 1.7877                11.4504

                     37                     38                     39
                      A                      A                      A
 Frequencies --    755.4417               771.9696               805.3676
 Red. masses --      1.3015                 4.6325                 4.6947
 Frc consts  --      0.4376                 1.6265                 1.7941
 IR Inten    --     18.2514                30.8344                 8.0600

                     40                     41                     42
                      A                      A                      A
 Frequencies --    824.5203               832.9547               862.4255
 Red. masses --      3.1345                 2.5897                 1.6743
 Frc consts  --      1.2555                 1.0586                 0.7337
 IR Inten    --      4.2388                 2.1895                15.9479

                     43                     44                     45
                      A                      A                      A
 Frequencies --    869.9923               893.0982               918.7846
 Red. masses --      1.8928                 2.2190                 2.3437
 Frc consts  --      0.8441                 1.0428                 1.1657
 IR Inten    --      9.3887                 3.5790                15.0804

                     46                     47                     48
                      A                      A                      A
 Frequencies --    952.4058               955.6336               961.8192
 Red. masses --      3.0134                 1.4218                 1.4368
 Frc consts  --      1.6105                 0.7650                 0.7831
 IR Inten    --     41.1202                 1.4421                 8.4374

                     49                     50                     51
                      A                      A                      A
 Frequencies --    979.4100               987.0545               990.3335
 Red. masses --      2.0785                 1.5067                 1.4223
 Frc consts  --      1.1747                 0.8649                 0.8219
 IR Inten    --      4.8250                 1.0948                 2.4883

                     52                     53                     54
                      A                      A                      A
 Frequencies --    994.3812              1044.9226              1059.3842
 Red. masses --      1.7094                 1.4246                 1.6162
 Frc consts  --      0.9958                 0.9165                 1.0687
 IR Inten    --      4.7817                 2.0383                 7.1792

                     55                     56                     57
                      A                      A                      A
 Frequencies --   1083.6436              1096.1359              1135.0020
 Red. masses --      2.4775                 2.5594                 1.6346
 Frc consts  --      1.7141                 1.8118                 1.2407
 IR Inten    --      2.2290                 6.7091                 5.0022

                     58                     59                     60
                      A                      A                      A
 Frequencies --   1147.3896              1161.5114              1164.2234
 Red. masses --      1.9836                 1.5278                 1.8642
 Frc consts  --      1.5386                 1.2144                 1.4887
 IR Inten    --      9.5995                28.6146                55.8887

                     61                     62                     63
                      A                      A                      A
 Frequencies --   1188.1560              1206.6653              1244.9063
 Red. masses --      2.6206                 2.5593                 1.8816
 Frc consts  --      2.1797                 2.1955                 1.7181
 IR Inten    --     25.8838                69.6921                16.6949

                     64                     65                     66
                      A                      A                      A
 Frequencies --   1257.9089              1271.0615              1285.7071
 Red. masses --      1.4228                 2.0386                 1.3329
 Frc consts  --      1.3265                 1.9405                 1.2982
 IR Inten    --    133.8603                46.2695                17.3915

                     67                     68                     69
                      A                      A                      A
 Frequencies --   1297.6283              1304.0911              1322.7074
 Red. masses --      1.6712                 3.1575                 1.9712
 Frc consts  --      1.6580                 3.1638                 2.0320
 IR Inten    --     25.1215                42.4842               192.7557

                     70                     71                     72
                      A                      A                      A
 Frequencies --   1335.7685              1359.3053              1376.4934
 Red. masses --      1.1764                 2.1609                 1.6140
 Frc consts  --      1.2367                 2.3524                 1.8018
 IR Inten    --     11.7051                45.7532               119.5951

                     73                     74                     75
                      A                      A                      A
 Frequencies --   1384.7619              1402.2836              1409.0434
 Red. masses --      6.8279                 1.6073                 1.5098
 Frc consts  --      7.7141                 1.8622                 1.7661
 IR Inten    --     13.1128                66.2843                19.8259

                     76                     77                     78
                      A                      A                      A
 Frequencies --   1430.9382              1431.7647              1446.7587
 Red. masses --      1.5138                 1.4581                 1.2708
 Frc consts  --      1.8262                 1.7610                 1.5672
 IR Inten    --    147.6904                45.9725                 4.3077

                     79                     80                     81
                      A                      A                      A
 Frequencies --   1448.1516              1468.5627              1479.7897
 Red. masses --      1.2403                 4.8997                 1.0938
 Frc consts  --      1.5325                 6.2259                 1.4112
 IR Inten    --     11.6182               106.6092                 2.9225

                     82                     83                     84
                      A                      A                      A
 Frequencies --   1492.7733              1507.5690              1509.2669
 Red. masses --      1.5948                 1.0906                 1.0549
 Frc consts  --      2.0938                 1.4603                 1.4158
 IR Inten    --     89.8219                 1.9204                 2.0141

                     85                     86                     87
                      A                      A                      A
 Frequencies --   1516.9431              1526.2549              1527.1656
 Red. masses --      1.0479                 1.0898                 1.0572
 Frc consts  --      1.4208                 1.4957                 1.4527
 IR Inten    --      1.6323                 3.8848                 4.8606

                     88                     89                     90
                      A                      A                      A
 Frequencies --   1530.1802              1536.6690              1540.4745
 Red. masses --      1.0590                 1.6547                 1.0979
 Frc consts  --      1.4609                 2.3021                 1.5351
 IR Inten    --      2.6156                40.1898                 3.7113

                     91                     92                     93
                      A                      A                      A
 Frequencies --   1541.7505              1549.8210              1619.9770
 Red. masses --      1.4411                 1.0876                 7.4797
 Frc consts  --      2.0183                 1.5392                11.5651
 IR Inten    --     42.4380                 4.7186                25.3405

                     94                     95                     96
                      A                      A                      A
 Frequencies --   1667.7274              1758.1159              1785.9794
 Red. masses --      6.3626                 7.9230                12.0266
 Frc consts  --     10.4264                14.4290                22.6019
 IR Inten    --    210.9850               358.7028               201.7506

                     97                     98                     99
                      A                      A                      A
 Frequencies --   3029.1379              3036.2027              3038.5465
 Red. masses --      1.0686                 1.0699                 1.0623
 Frc consts  --      5.7768                 5.8109                 5.7788
 IR Inten    --     26.2847                 9.4808                19.6052

                    100                    101                    102
                      A                      A                      A
 Frequencies --   3042.3596              3049.3268              3061.9410
 Red. masses --      1.0674                 1.0386                 1.0345
 Frc consts  --      5.8209                 5.6897                 5.7144
 IR Inten    --      8.1519                27.3332                14.8410

                    103                    104                    105
                      A                      A                      A
 Frequencies --   3066.8784              3069.0760              3083.7037
 Red. masses --      1.0358                 1.0934                 1.1023
 Frc consts  --      5.7402                 6.0682                 6.1760
 IR Inten    --     10.5340                33.2442                46.9358

                    106                    107                    108
                      A                      A                      A
 Frequencies --   3113.7111              3120.5390              3126.9192
 Red. masses --      1.1019                 1.1016                 1.0956
 Frc consts  --      6.2942                 6.3202                 6.3116
 IR Inten    --     42.1199                51.5633                 3.2192

                    109                    110                    111
                      A                      A                      A
 Frequencies --   3130.4352              3134.6569              3138.7197
 Red. masses --      1.0927                 1.1025                 1.1034
 Frc consts  --      6.3090                 6.3829                 6.4046
 IR Inten    --     13.8896                 9.8444                15.9978

                    112                    113                    114
                      A                      A                      A
 Frequencies --   3140.9408              3144.0698              3215.7715
 Red. masses --      1.1029                 1.1031                 1.0884
 Frc consts  --      6.4107                 6.4244                 6.6312
 IR Inten    --     30.3373                25.7129                 2.6224

                    115                    116                    117
                      A                      A                      A
 Frequencies --   3228.0690              3230.3773              3590.1010
 Red. masses --      1.0899                 1.0945                 1.0745
 Frc consts  --      6.6912                 6.7292                 8.1598
 IR Inten    --      2.2148                 3.8080                27.4535

 - Thermochemistry -
 -------------------
 Temperature   298.150 Kelvin.  Pressure   1.00000 Atm.
 Atom     1 has atomic number  6 and mass  12.00000

 Molecular mass:   275.15214 amu.
 Principal axes and moments of inertia in atomic units:
                           1         2         3
     Eigenvalues --  2759.34122********************
           X            0.99993   0.01170   0.00052
           Y           -0.01170   0.99992  -0.00390
           Z           -0.00057   0.00389   0.99999
 This molecule is an asymmetric top.
 Rotational symmetry number  1.
 Warning -- assumption of classical behavior for rotation
           may cause significant error
 Rotational temperatures (Kelvin)      0.03139     0.00775     0.00680
 Rotational constants (GHZ):           0.65405     0.16138     0.14161
 Zero-point vibrational energy     916825.0 (Joules/Mol)
                                  219.12643 (Kcal/Mol)
 Warning -- explicit consideration of  32 degrees of freedom as
           vibrations may cause significant error
 Vibrational temperatures:     15.83    42.25    60.23    81.60   111.41
          (Kelvin)            139.25   154.54   184.21   196.80   232.00
                              284.93   314.93   349.72   372.17   388.88
                              404.11   425.34   447.16   465.95   496.97
                              551.60   579.48   612.46   636.93   678.33
                              697.78   703.62   781.36   790.95   812.29
                              832.19   881.20   916.01   959.71  1010.28
                             1053.92  1086.91  1110.69  1158.74  1186.30
                             1198.44  1240.84  1251.72  1284.97  1321.93
                             1370.30  1374.94  1383.84  1409.15  1420.15
                             1424.87  1430.69  1503.41  1524.22  1559.12
                             1577.10  1633.01  1650.84  1671.16  1675.06
                             1709.49  1736.12  1791.14  1809.85  1828.77
                             1849.85  1867.00  1876.30  1903.08  1921.87
                             1955.74  1980.47  1992.36  2017.57  2027.30
                             2058.80  2059.99  2081.56  2083.57  2112.93
                             2129.09  2147.77  2169.06  2171.50  2182.54
                             2195.94  2197.25  2201.59  2210.92  2216.40
                             2218.24  2229.85  2330.79  2399.49  2529.54
                             2569.63  4358.25  4368.42  4371.79  4377.28
                             4387.30  4405.45  4412.55  4415.72  4436.76
                             4479.94  4489.76  4498.94  4504.00  4510.07
                             4515.92  4519.11  4523.62  4626.78  4644.47
                             4647.79  5165.35

 Zero-point correction=                           0.349200 (Hartree/Particle)
 Thermal correction to Energy=                    0.368912
 Thermal correction to Enthalpy=                  0.369857
 Thermal correction to Gibbs Free Energy=         0.299189
 Sum of electronic and zero-point Energies=           -902.539073
 Sum of electronic and thermal Energies=              -902.519361
 Sum of electronic and thermal Enthalpies=            -902.518416
 Sum of electronic and thermal Free Energies=         -902.589084

                     E (Thermal)             CV                S
                      KCal/Mol        Cal/Mol-Kelvin    Cal/Mol-Kelvin
 Total                  231.496             75.216            148.733
 Electronic               0.000              0.000              0.000
 Translational            0.889              2.981             42.735
 Rotational               0.889              2.981             34.330
 Vibrational            229.719             69.255             71.668
 Vibration     1          0.593              1.987              7.822
 Vibration     2          0.593              1.984              5.872
 Vibration     3          0.594              1.980              5.169
 Vibration     4          0.596              1.975              4.568
 Vibration     5          0.599              1.964              3.955
 Vibration     6          0.603              1.951              3.518
 Vibration     7          0.606              1.943              3.315
 Vibration     8          0.611              1.925              2.975
 Vibration     9          0.614              1.917              2.848
 Vibration    10          0.622              1.890              2.535
 Vibration    11          0.637              1.843              2.151
 Vibration    12          0.647              1.812              1.968
 Vibration    13          0.659              1.774              1.780
 Vibration    14          0.667              1.748              1.671
 Vibration    15          0.674              1.728              1.594
 Vibration    16          0.681              1.709              1.528
 Vibration    17          0.690              1.682              1.442
 Vibration    18          0.700              1.653              1.358
 Vibration    19          0.708              1.628              1.291
 Vibration    20          0.724              1.585              1.187
 Vibration    21          0.753              1.506              1.026
 Vibration    22          0.768              1.464              0.953
 Vibration    23          0.788              1.414              0.873
 Vibration    24          0.802              1.377              0.818
 Vibration    25          0.828              1.313              0.733
 Vibration    26          0.841              1.283              0.697
 Vibration    27          0.845              1.274              0.686
 Vibration    28          0.898              1.155              0.559
 Vibration    29          0.905              1.140              0.545
 Vibration    30          0.920              1.108              0.515
 Vibration    31          0.935              1.078              0.488
 Vibration    32          0.972              1.005              0.429

 Optimization completed.
    -- Stationary point found.
 Normal termination of Gaussian 16 at Thu Dec 17 20:39:52 2020.

 ----------------------------------------------------------------------
 # B3LYP/6-311++G(d,p) empiricaldispersion=gd3bj scf=xqc pop=npa geom=c
 heck
 ----------------------------------------------------------------------

 ----------------------------------------
 CID_108793139_JID_10684_Energie_neutraal
 ----------------------------------------
 Structure from the checkpoint file:  "JID_10684.chk"
 Charge =  0 Multiplicity = 1

 SCF Done:  E(RB3LYP) =  -903.139145991     A.U. after   16 cycles
 Normal termination of Gaussian 16 at Thu Dec 17 20:50:20 2020.

 ----------------------------------------------------------------------
 # B3LYP/6-311++G(d,p) empiricaldispersion=gd3bj scf=xqc pop=npa geom=c
 heck
 ----------------------------------------------------------------------

 --------------------------------------
 CID_108793139_JID_10684_Energie_kation
 --------------------------------------
 Structure from the checkpoint file:  "JID_10684.chk"
 Charge =  1 Multiplicity = 2

 SCF Done:  E(UB3LYP) =  -902.836069092     A.U. after   29 cycles
 Normal termination of Gaussian 16 at Thu Dec 17 21:17:25 2020.
 Gaussian 16:  ES64L-G16RevA.03 25-Dec-2016

 ----------------------------------------------------------------------
 # B3LYP/6-311++G(d,p) empiricaldispersion=gd3bj scf=xqc pop=npa geom=c
 heck
 ----------------------------------------------------------------------

 -------------------------------------
 CID_108793139_JID_10684_Energie_anion
 -------------------------------------
 Structure from the checkpoint file:  "JID_10684.chk"
 Charge = -1 Multiplicity = 2

                         Standard orientation:
 ---------------------------------------------------------------------
 Center     Atomic      Atomic             Coordinates (Angstroms)
 Number     Number       Type             X           Y           Z
 ---------------------------------------------------------------------
      1          6           0       -5.669454   -1.960777   -0.353011
      2          6           0       -5.517268   -0.850908    0.691392
      3          6           0       -4.131629   -0.798185    1.354675
      4          6           0       -2.951003   -0.617907    0.392019
      5          7           0       -3.049770    0.625831   -0.367773
      6          6           0       -2.136783    1.644599   -0.476022
      7          8           0       -2.493901    2.781891   -0.777383
      8          6           0       -0.688350    1.332691   -0.259844
      9          6           0       -0.099810    0.117595   -0.592416
     10          6           0        1.279475   -0.083511   -0.443943
     11          6           0        2.079122    0.955552    0.070799
     12          6           0        1.497160    2.192162    0.386305
     13          6           0        0.137128    2.376305    0.204456
     14          8           0        3.412856    0.832136    0.268777
     15          6           0        3.977253   -0.514335    0.319170
     16          6           0        3.421059   -1.341631   -0.846410
     17          6           0        1.901189   -1.352840   -0.869135
     18          8           0        1.258310   -2.318860   -1.251445
     19          6           0        3.621881   -1.132452    1.675132
     20          6           0        5.479806   -0.302199    0.185022
     21          1           0       -5.008918   -1.804105   -1.213032
     22          1           0       -6.696165   -2.004544   -0.731575
     23          1           0       -5.428484   -2.941047    0.075904
     24          1           0       -5.754722    0.119768    0.233003
     25          1           0       -6.266884   -0.986856    1.480839
     26          1           0       -4.111327    0.013526    2.092940
     27          1           0       -3.965631   -1.734383    1.904665
     28          1           0       -2.022536   -0.599473    0.966002
     29          1           0       -2.887555   -1.477782   -0.288157
     30          1           0       -3.985829    0.953181   -0.574983
     31          1           0       -0.675457   -0.700763   -1.010478
     32          1           0        2.132157    2.984027    0.769044
     33          1           0       -0.323490    3.334975    0.418040
     34          1           0        3.788775   -2.370519   -0.809161
     35          1           0        3.761123   -0.899662   -1.793800
     36          1           0        4.001438   -0.501818    2.484293
     37          1           0        2.539610   -1.236943    1.797682
     38          1           0        4.070799   -2.126873    1.765678
     39          1           0        5.714758    0.184406   -0.766350
     40          1           0        5.847483    0.330783    0.998436
     41          1           0        6.002469   -1.263010    0.226692
 ---------------------------------------------------------------------

 SCF Done:  E(UB3LYP) =  -903.154786155     A.U. after   33 cycles
 SCF Done:  E(UB3LYP) =  -903.154786401     a.u. after    3 cycles

 The electronic state is 2-A.
 Alpha  occ. eigenvalues --  -19.02268 -18.96395 -18.92263 -14.22167 -10.15052
 Alpha  occ. eigenvalues --  -10.12680 -10.10649 -10.09676 -10.09138 -10.08891
 Alpha  occ. eigenvalues --  -10.08876 -10.06653 -10.06459 -10.05614 -10.04209
 Alpha  occ. eigenvalues --  -10.03817 -10.02760 -10.02630 -10.02167 -10.01754
 Alpha  occ. eigenvalues --   -0.94209  -0.91543  -0.86336  -0.81096  -0.71955
 Alpha  occ. eigenvalues --   -0.71531  -0.69660  -0.64092  -0.62810  -0.61089
 Alpha  occ. eigenvalues --   -0.59291  -0.58787  -0.56988  -0.52028  -0.49908
 Alpha  occ. eigenvalues --   -0.48738  -0.46876  -0.44532  -0.40162  -0.39517
 Alpha  occ. eigenvalues --   -0.39411  -0.38199  -0.37153  -0.36217  -0.35665
 Alpha  occ. eigenvalues --   -0.33885  -0.33401  -0.32575  -0.31930  -0.31501
 Alpha  occ. eigenvalues --   -0.30528  -0.29894  -0.29686  -0.29007  -0.28403
 Alpha  occ. eigenvalues --   -0.28179  -0.27110  -0.26529  -0.26239  -0.26080
 Alpha  occ. eigenvalues --   -0.25821  -0.25510  -0.25068  -0.24632  -0.23332
 Alpha  occ. eigenvalues --   -0.22398  -0.20365  -0.19504  -0.18202  -0.14685
 Alpha  occ. eigenvalues --   -0.13542  -0.11843  -0.09458  -0.08730   0.04180
 Alpha virt. eigenvalues --    0.05474   0.07454   0.07709   0.08035   0.09352
 Alpha virt. eigenvalues --    0.09569   0.09873   0.09992   0.10641   0.10913
 Alpha virt. eigenvalues --    0.11257   0.11808   0.12241   0.12666   0.12777

  Beta  occ. eigenvalues --  -19.02222 -18.96417 -18.91724 -14.22170 -10.15046
  Beta  occ. eigenvalues --  -10.12665 -10.10642 -10.09673 -10.08975 -10.08889
  Beta  occ. eigenvalues --  -10.08875 -10.06457 -10.06280 -10.05603 -10.04244
  Beta  occ. eigenvalues --  -10.03932 -10.02648 -10.02520 -10.01789 -10.01689
  Beta  occ. eigenvalues --   -0.94086  -0.91574  -0.85342  -0.81106  -0.71774
  Beta  occ. eigenvalues --   -0.71444  -0.69483  -0.64077  -0.62351  -0.60784
  Beta  occ. eigenvalues --   -0.59261  -0.58604  -0.56975  -0.51869  -0.49860
  Beta  occ. eigenvalues --   -0.48144  -0.46819  -0.44128  -0.39988  -0.39500
  Beta  occ. eigenvalues --   -0.39208  -0.38173  -0.36957  -0.36119  -0.35602
  Beta  occ. eigenvalues --   -0.33645  -0.33308  -0.32431  -0.31916  -0.31396
  Beta  occ. eigenvalues --   -0.30409  -0.29820  -0.29638  -0.28893  -0.28261
  Beta  occ. eigenvalues --   -0.28105  -0.26768  -0.26260  -0.26162  -0.25838
  Beta  occ. eigenvalues --   -0.25731  -0.25183  -0.24999  -0.24101  -0.23093
  Beta  occ. eigenvalues --   -0.22218  -0.19378  -0.18038  -0.17777  -0.14713
  Beta  occ. eigenvalues --   -0.13536  -0.10287  -0.08602  -0.08256
  Beta virt. eigenvalues --    0.05453   0.07402   0.07628   0.07946   0.09289
  Beta virt. eigenvalues --    0.09628   0.09908   0.10252   0.10445   0.10730
  Beta virt. eigenvalues --    0.10915   0.11226   0.11790   0.12158   0.12617

 Mulliken charges and spin densities:
               1          2
     1  C   -0.497995  -0.082355
     2  C   -0.137330   0.012954
     3  C   -0.543975   0.004153
     4  C   -0.204614  -0.035101
     5  N   -0.100288   0.002194
     6  C   -0.045460   0.012089
     7  O   -0.346222  -0.008178
     8  C    0.303627  -0.092044
     9  C   -0.034607   0.188431
    10  C    2.124882   0.092777
    11  C   -1.652911   0.044885
    12  C   -0.567388  -0.022685
    13  C   -0.418862   0.288760
    14  O   -0.004838   0.011263
    15  C    0.300445   0.070683
    16  C   -0.241021  -0.088911
    17  C   -0.734699   0.208636
    18  O   -0.406370   0.200477
    19  C   -0.516480  -0.003503
    20  C   -0.409597   0.023800
    21  H    0.156850   0.007148
    22  H    0.096358   0.035413
    23  H    0.116987   0.014312
    24  H    0.107134   0.007833
    25  H    0.096263   0.055808
    26  H    0.167450  -0.002659
    27  H    0.134857   0.016267
    28  H    0.164154   0.007962
    29  H    0.166195  -0.000882
    30  H    0.314383  -0.002767
    31  H    0.204239  -0.011566
    32  H    0.118980   0.000066
    33  H    0.168954  -0.023036
    34  H    0.172615  -0.010193
    35  H    0.107994   0.059976
    36  H    0.144340   0.001863
    37  H    0.173192   0.006971
    38  H    0.121758   0.000301
    39  H    0.144790   0.006830
    40  H    0.132522   0.000517
    41  H    0.123688   0.001513
 Sum of Mulliken charges =  -1.00000   1.00000

 Dipole moment (field-independent basis, Debye):
    X=             -2.0038    Y=             -2.2256    Z=              4.0809  Tot=              5.0618
 Quadrupole moment (field-independent basis, Debye-Ang):
   XX=           -149.6271   YY=           -160.8753   ZZ=           -134.4691
   XY=             10.9442   XZ=             -0.4968   YZ=             -3.1279

 Summary of Natural Population Analysis:

                                       Natural Population
                Natural  -----------------------------------------------
    Atom  No    Charge         Core      Valence    Rydberg      Total
 -----------------------------------------------------------------------
      C    1   -0.28998      0.99967     2.28542    0.00489     3.28998
      C    2   -0.19328      0.99965     2.18638    0.00726     3.19328
      C    3   -0.19083      0.99963     2.18504    0.00617     3.19083
      C    4   -0.09178      0.99962     2.08251    0.00965     3.09178
      N    5   -0.32727      0.99967     2.81695    0.01065     3.82727
      C    6    0.34207      0.99961     1.63678    0.02153     2.65793
      O    7   -0.33875      0.99988     3.33261    0.00626     4.33875
      C    8   -0.12033      0.99945     2.11140    0.00947     3.12033
      C    9   -0.03892      0.99956     2.02230    0.01705     3.03892
      C   10   -0.04406      0.99944     2.03480    0.00982     3.04406
      C   11    0.19498      0.99942     1.78880    0.01681     2.80502
      C   12   -0.14440      0.99953     2.13598    0.00889     3.14440
      C   13    0.00035      0.99955     1.99101    0.00909     2.99965
      O   14   -0.28800      0.99985     3.27723    0.01093     4.28800
      C   15    0.13956      0.99954     1.84694    0.01396     2.86044
      C   16   -0.24450      0.99955     2.23395    0.01100     3.24450
      C   17    0.30256      0.99965     1.67332    0.02447     2.69744
      O   18   -0.25669      0.99988     3.25033    0.00648     4.25669
      C   19   -0.29736      0.99961     2.29226    0.00549     3.29736
      C   20   -0.28634      0.99961     2.28107    0.00567     3.28634
      H   21    0.10072      0.00000     0.39836    0.00092     0.39928
      H   22    0.09630      0.00000     0.40249    0.00122     0.40370
      H   23    0.09566      0.00000     0.40310    0.00124     0.40434
      H   24    0.09094      0.00000     0.40732    0.00174     0.40906
      H   25    0.09395      0.00000     0.40432    0.00173     0.40605
      H   26    0.09846      0.00000     0.40045    0.00110     0.40154
      H   27    0.09524      0.00000     0.40332    0.00144     0.40476
      H   28    0.11326      0.00000     0.38556    0.00118     0.38674
      H   29    0.09026      0.00000     0.40857    0.00117     0.40974
      H   30    0.18534      0.00000     0.31254    0.00212     0.31466
      H   31    0.10434      0.00000     0.39399    0.00167     0.39566
      H   32    0.09562      0.00000     0.40285    0.00153     0.40438
      H   33    0.09728      0.00000     0.40160    0.00112     0.40272
      H   34    0.10458      0.00000     0.39384    0.00158     0.39542
      H   35    0.10794      0.00000     0.39081    0.00125     0.39206
      H   36    0.09727      0.00000     0.40181    0.00092     0.40273
      H   37    0.11242      0.00000     0.38685    0.00073     0.38758
      H   38    0.09672      0.00000     0.40248    0.00080     0.40328
      H   39    0.10267      0.00000     0.39645    0.00088     0.39733
      H   40    0.09865      0.00000     0.40040    0.00095     0.40135
      H   41    0.09647      0.00000     0.40278    0.00075     0.40353
 =======================================================================
   * Total *    0.00109     19.99236    53.76496    0.24159    73.99891

 Normal termination of Gaussian 16 at Thu Dec 17 22:34:41 2020.
