 Gaussian 16, Revision A.03,

 -----------------------------------------------------------
 # opt freq B3LYP/6-31G(d) empiricaldispersion=gd3bj scf=xqc
 -----------------------------------------------------------

 -------------------------------
 CID_123870526_JID_1262_neutraal
 -------------------------------
 Symbolic Z-matrix:
 Charge =  0 Multiplicity = 1

 SCF Done:  E(RB3LYP) =  -532.703008170     A.U. after   14 cycles
 SCF Done:  E(RB3LYP) =  -532.706209487     A.U. after   12 cycles
 SCF Done:  E(RB3LYP) =  -532.706840693     A.U. after   12 cycles
 SCF Done:  E(RB3LYP) =  -532.707208569     A.U. after   12 cycles
 SCF Done:  E(RB3LYP) =  -532.707478940     A.U. after   12 cycles
 SCF Done:  E(RB3LYP) =  -532.707722738     A.U. after   12 cycles
 SCF Done:  E(RB3LYP) =  -532.707869456     A.U. after   12 cycles
 SCF Done:  E(RB3LYP) =  -532.707940418     A.U. after   12 cycles
 SCF Done:  E(RB3LYP) =  -532.708055109     A.U. after   12 cycles
 SCF Done:  E(RB3LYP) =  -532.708084707     A.U. after   11 cycles
 SCF Done:  E(RB3LYP) =  -532.708107304     A.U. after   11 cycles
 SCF Done:  E(RB3LYP) =  -532.708112122     A.U. after   10 cycles
 SCF Done:  E(RB3LYP) =  -532.708111288     A.U. after   10 cycles
 SCF Done:  E(RB3LYP) =  -532.708112666     A.U. after   10 cycles
 SCF Done:  E(RB3LYP) =  -532.708112745     A.U. after    7 cycles
 Optimization completed.
    -- Stationary point found.
 Normal termination of Gaussian 16 at Tue Dec  8 19:35:21 2020.

 --------------------------------------------------------------------
 #N Geom=AllCheck Guess=TCheck SCRF=Check GenChk RB3LYP/6-31G(d) Freq
 --------------------------------------------------------------------

 Structure from the checkpoint file:  "JID_1262.chk"
 -------------------------------
 CID_123870526_JID_1262_neutraal
 -------------------------------
 Charge =  0 Multiplicity = 1

 SCF Done:  E(RB3LYP) =  -532.708112745     A.U. after    1 cycles

  Exact polarizability:  95.144   3.680  94.158 -18.074  -4.009  68.366
 Approx polarizability: 134.253   9.915 148.060 -36.664 -12.852 111.157

                      1                      2                      3
                      A                      A                      A
 Frequencies --     38.4719                58.2024                93.2633
 Red. masses --      5.0514                 4.1988                 5.4250
 Frc consts  --      0.0044                 0.0084                 0.0278
 IR Inten    --      4.5146                 3.1617                 2.1946

                      4                      5                      6
                      A                      A                      A
 Frequencies --    112.1565               209.3683               275.9660
 Red. masses --      4.8124                 4.7176                 5.1903
 Frc consts  --      0.0357                 0.1218                 0.2329
 IR Inten    --      3.6816                 2.1972                 1.7985

                      7                      8                      9
                      A                      A                      A
 Frequencies --    308.2510               346.2000               378.6593
 Red. masses --      4.0641                 1.3433                 1.6550
 Frc consts  --      0.2275                 0.0949                 0.1398
 IR Inten    --      5.7417               124.2848                27.0913

                     10                     11                     12
                      A                      A                      A
 Frequencies --    399.1036               476.1629               562.8428
 Red. masses --      3.2130                 2.7865                 1.5465
 Frc consts  --      0.3015                 0.3722                 0.2887
 IR Inten    --      6.2200                 5.2019                95.2560

                     13                     14                     15
                      A                      A                      A
 Frequencies --    621.1975               640.8100               646.2346
 Red. masses --      3.5257                 1.9032                 1.9328
 Frc consts  --      0.8016                 0.4605                 0.4756
 IR Inten    --      9.2312                17.3381                49.5460

                     16                     17                     18
                      A                      A                      A
 Frequencies --    665.2321               684.7794               743.0498
 Red. masses --      2.5836                 2.5929                 2.6706
 Frc consts  --      0.6736                 0.7164                 0.8687
 IR Inten    --      0.7206                 1.1118                18.9517

                     19                     20                     21
                      A                      A                      A
 Frequencies --    756.6937               796.0954               818.1637
 Red. masses --      1.1810                 1.3819                 1.4076
 Frc consts  --      0.3984                 0.5160                 0.5552
 IR Inten    --     42.7069                18.8535                69.8772

                     22                     23                     24
                      A                      A                      A
 Frequencies --    840.1042               877.1096               912.4539
 Red. masses --      1.3947                 3.1336                 2.5405
 Frc consts  --      0.5800                 1.4204                 1.2462
 IR Inten    --     14.5724                13.5839                 2.0691

                     25                     26                     27
                      A                      A                      A
 Frequencies --    942.4331               980.7107               991.6188
 Red. masses --      5.5360                 2.7794                 1.8473
 Frc consts  --      2.8970                 1.5750                 1.0702
 IR Inten    --     13.8799                34.9689                10.0058

                     28                     29                     30
                      A                      A                      A
 Frequencies --   1037.0315              1075.4585              1128.8529
 Red. masses --      3.0904                 3.5298                 1.5715
 Frc consts  --      1.9582                 2.4054                 1.1799
 IR Inten    --     11.7673                64.3199                19.0402

                     31                     32                     33
                      A                      A                      A
 Frequencies --   1154.5441              1210.6583              1223.9568
 Red. masses --      2.1240                 1.4102                 1.1558
 Frc consts  --      1.6681                 1.2178                 1.0201
 IR Inten    --     11.0544                 3.5269                41.6597

                     34                     35                     36
                      A                      A                      A
 Frequencies --   1270.8578              1286.1521              1294.9602
 Red. masses --      2.2966                 1.5761                 1.3479
 Frc consts  --      2.1854                 1.5361                 1.3318
 IR Inten    --     14.3162                12.9888                 2.9956

                     37                     38                     39
                      A                      A                      A
 Frequencies --   1343.1383              1384.2440              1391.5391
 Red. masses --      1.6491                 1.5707                 1.7614
 Frc consts  --      1.7529                 1.7733                 2.0095
 IR Inten    --     42.6681                19.3320                47.4481

                     40                     41                     42
                      A                      A                      A
 Frequencies --   1406.8886              1425.7082              1447.4947
 Red. masses --      2.5986                 1.5597                 2.8545
 Frc consts  --      3.0305                 1.8679                 3.5238
 IR Inten    --     35.2900               110.6629                25.2757

                     43                     44                     45
                      A                      A                      A
 Frequencies --   1467.6063              1495.7912              1518.1541
 Red. masses --      1.1853                 1.1302                 3.5477
 Frc consts  --      1.5042                 1.4899                 4.8176
 IR Inten    --     41.8951                 9.3723                17.2853

                     46                     47                     48
                      A                      A                      A
 Frequencies --   1629.3009              1757.2901              3049.3124
 Red. masses --      4.5765                 5.0683                 1.0760
 Frc consts  --      7.1579                 9.2215                 5.8945
 IR Inten    --      8.6347                73.6645                 5.1554

                     49                     50                     51
                      A                      A                      A
 Frequencies --   3062.2005              3113.1521              3186.9397
 Red. masses --      1.0742                 1.0998                 1.0590
 Frc consts  --      5.9345                 6.2799                 6.3374
 IR Inten    --     56.7894                11.9089                 0.1928

                     52                     53                     54
                      A                      A                      A
 Frequencies --   3258.8458              3267.7132              3272.0695
 Red. masses --      1.0959                 1.0978                 1.1178
 Frc consts  --      6.8573                 6.9065                 7.0514
 IR Inten    --      8.9864                 2.0586                 5.7765

                     55                     56                     57
                      A                      A                      A
 Frequencies --   3616.0848              3629.5462              3733.6237
 Red. masses --      1.0647                 1.0812                 1.0663
 Frc consts  --      8.2025                 8.3923                 8.7579
 IR Inten    --    109.1958                61.1882                28.3165

 - Thermochemistry -
 -------------------
 Temperature   298.150 Kelvin.  Pressure   1.00000 Atm.
 Atom     1 has atomic number  6 and mass  12.00000

 Molecular mass:   154.07423 amu.
 Principal axes and moments of inertia in atomic units:
                           1         2         3
     Eigenvalues --   960.228462099.988782424.72403
           X            0.99992   0.00098  -0.01247
           Y           -0.00109   0.99996  -0.00898
           Z            0.01246   0.00899   0.99988
 This molecule is an asymmetric top.
 Rotational symmetry number  1.
 Warning -- assumption of classical behavior for rotation
           may cause significant error
 Rotational temperatures (Kelvin)      0.09020     0.04124     0.03572
 Rotational constants (GHZ):           1.87949     0.85941     0.74431
 Zero-point vibrational energy     450480.5 (Joules/Mol)
                                  107.66741 (Kcal/Mol)
 Warning -- explicit consideration of  12 degrees of freedom as
           vibrations may cause significant error
 Vibrational temperatures:     55.35    83.74   134.19   161.37   301.23
          (Kelvin)            397.05   443.50   498.10   544.81   574.22
                              685.09   809.81   893.76   921.98   929.79
                              957.12   985.24  1069.08  1088.71  1145.40
                             1177.16  1208.72  1261.97  1312.82  1355.95
                             1411.02  1426.72  1492.06  1547.34  1624.17
                             1661.13  1741.87  1761.00  1828.48  1850.49
                             1863.16  1932.48  1991.62  2002.11  2024.20
                             2051.28  2082.62  2111.56  2152.11  2184.29
                             2344.20  2528.35  4387.28  4405.82  4479.13
                             4585.30  4688.75  4701.51  4707.78  5202.74
                             5222.11  5371.85

 Zero-point correction=                           0.171579 (Hartree/Particle)
 Thermal correction to Energy=                    0.181932
 Thermal correction to Enthalpy=                  0.182876
 Thermal correction to Gibbs Free Energy=         0.134804
 Sum of electronic and zero-point Energies=           -532.536534
 Sum of electronic and thermal Energies=              -532.526181
 Sum of electronic and thermal Enthalpies=            -532.525237
 Sum of electronic and thermal Free Energies=         -532.573309

                     E (Thermal)             CV                S
                      KCal/Mol        Cal/Mol-Kelvin    Cal/Mol-Kelvin
 Total                  114.164             39.144            101.177
 Electronic               0.000              0.000              0.000
 Translational            0.889              2.981             41.006
 Rotational               0.889              2.981             29.970
 Vibrational            112.387             33.182             30.200
 Vibration     1          0.594              1.982              5.336
 Vibration     2          0.596              1.974              4.517
 Vibration     3          0.602              1.954              3.590
 Vibration     4          0.607              1.939              3.231
 Vibration     5          0.642              1.826              2.049
 Vibration     6          0.678              1.718              1.559
 Vibration     7          0.698              1.658              1.372
 Vibration     8          0.724              1.583              1.183
 Vibration     9          0.749              1.516              1.045
 Vibration    10          0.765              1.472              0.966
 Vibration    11          0.833              1.303              0.720
 Vibration    12          0.919              1.112              0.518

 Optimization completed.
    -- Stationary point found.
 Normal termination of Gaussian 16 at Tue Dec  8 19:39:24 2020.

 ----------------------------------------------------------------------
 # B3LYP/6-311++G(d,p) empiricaldispersion=gd3bj scf=xqc pop=npa geom=c
 heck
 ----------------------------------------------------------------------

 ---------------------------------------
 CID_123870526_JID_1262_Energie_neutraal
 ---------------------------------------
 Structure from the checkpoint file:  "JID_1262.chk"
 Charge =  0 Multiplicity = 1

 SCF Done:  E(RB3LYP) =  -532.879721538     A.U. after   14 cycles
 Normal termination of Gaussian 16 at Tue Dec  8 19:40:40 2020.

 ----------------------------------------------------------------------
 # B3LYP/6-311++G(d,p) empiricaldispersion=gd3bj scf=xqc pop=npa geom=c
 heck
 ----------------------------------------------------------------------

 -------------------------------------
 CID_123870526_JID_1262_Energie_kation
 -------------------------------------
 Structure from the checkpoint file:  "JID_1262.chk"
 Charge =  1 Multiplicity = 2

 SCF Done:  E(UB3LYP) =  -532.579945808     A.U. after   20 cycles
 Normal termination of Gaussian 16 at Tue Dec  8 19:43:03 2020.
 Gaussian 16:  ES64L-G16RevA.03 25-Dec-2016

 ----------------------------------------------------------------------
 # B3LYP/6-311++G(d,p) empiricaldispersion=gd3bj scf=xqc pop=npa geom=c
 heck
 ----------------------------------------------------------------------

 ------------------------------------
 CID_123870526_JID_1262_Energie_anion
 ------------------------------------
 Structure from the checkpoint file:  "JID_1262.chk"
 Charge = -1 Multiplicity = 2

                         Standard orientation:
 ---------------------------------------------------------------------
 Center     Atomic      Atomic             Coordinates (Angstroms)
 Number     Number       Type             X           Y           Z
 ---------------------------------------------------------------------
      1          6           0       -2.387646   -1.528561    0.559793
      2          6           0       -1.757523   -0.591298   -0.156985
      3          6           0       -1.535675    0.836867    0.325004
      4          6           0       -0.267924    0.965457    1.194110
      5          6           0        0.968450    0.406980    0.571516
      6          6           0        2.040609    0.990253   -0.063036
      7          7           0        2.936632    0.038750   -0.502845
      8          6           0        2.414289   -1.116029   -0.145571
      9          7           0        1.233127   -0.952109    0.520573
     10          8           0       -1.349892    1.699819   -0.803869
     11          8           0       -1.195056   -0.860278   -1.363855
     12          1           0       -2.839274   -1.276051    1.512519
     13          1           0       -2.484613   -2.545810    0.197119
     14          1           0       -2.396864    1.162179    0.921503
     15          1           0       -0.116858    2.029973    1.399149
     16          1           0       -0.474193    0.472889    2.152326
     17          1           0        2.214775    2.046121   -0.221547
     18          1           0        2.843451   -2.091271   -0.331329
     19          1           0        0.586284   -1.676489    0.802253
     20          1           0       -2.207297    1.793501   -1.249937
     21          1           0       -0.801628   -0.019868   -1.673353
 ---------------------------------------------------------------------

 SCF Done:  E(UB3LYP) =  -532.872359761     A.U. after   33 cycles
 SCF Done:  E(UB3LYP) =  -532.872359761     a.u. after    1 cycles

 The electronic state is 2-A.
 Alpha  occ. eigenvalues --  -19.03964 -19.02655 -14.25929 -14.19143 -10.12809
 Alpha  occ. eigenvalues --  -10.12563 -10.12029 -10.09975 -10.08054 -10.07577
 Alpha  occ. eigenvalues --  -10.04413  -0.96240  -0.92004  -0.91033  -0.76829
 Alpha  occ. eigenvalues --   -0.69683  -0.65616  -0.61142  -0.53821  -0.50820
 Alpha  occ. eigenvalues --   -0.48724  -0.47125  -0.44066  -0.43438  -0.39694
 Alpha  occ. eigenvalues --   -0.35150  -0.35097  -0.34093  -0.31510  -0.30647
 Alpha  occ. eigenvalues --   -0.30604  -0.29996  -0.28952  -0.27499  -0.25432
 Alpha  occ. eigenvalues --   -0.23544  -0.19236  -0.18056  -0.17258  -0.13095
 Alpha  occ. eigenvalues --   -0.12006   0.04469
 Alpha virt. eigenvalues --    0.07125   0.08144   0.09102   0.09575   0.10221
 Alpha virt. eigenvalues --    0.11119   0.11397   0.11784   0.13083   0.13114
 Alpha virt. eigenvalues --    0.13673   0.14467   0.15443   0.16162   0.16702

  Beta  occ. eigenvalues --  -19.03935 -19.02580 -14.25900 -14.19148 -10.12768
  Beta  occ. eigenvalues --  -10.12561 -10.12012 -10.09976 -10.08032 -10.07562
  Beta  occ. eigenvalues --  -10.04385  -0.96162  -0.91857  -0.91007  -0.76800
  Beta  occ. eigenvalues --   -0.69603  -0.65577  -0.61083  -0.53736  -0.50765
  Beta  occ. eigenvalues --   -0.48695  -0.47069  -0.44024  -0.43276  -0.39617
  Beta  occ. eigenvalues --   -0.35116  -0.35040  -0.34037  -0.31466  -0.30631
  Beta  occ. eigenvalues --   -0.30559  -0.29955  -0.28890  -0.27447  -0.25364
  Beta  occ. eigenvalues --   -0.23471  -0.19158  -0.18024  -0.17253  -0.13045
  Beta  occ. eigenvalues --   -0.11956
  Beta virt. eigenvalues --    0.07239   0.08239   0.09251   0.09531   0.09994
  Beta virt. eigenvalues --    0.10413   0.11411   0.11778   0.12161   0.13377
  Beta virt. eigenvalues --    0.13562   0.14056   0.14703   0.15620   0.16508

 Mulliken charges and spin densities:
               1          2
     1  C    2.663489  -3.403192
     2  C   -3.912313   3.923353
     3  C    2.402288  -2.332144
     4  C    0.686003  -1.728318
     5  C   -0.027807   0.620381
     6  C   -0.292003  -0.083617
     7  N   -0.157327  -0.004338
     8  C    0.098017  -0.081538
     9  N   -0.087772  -0.026690
    10  O   -0.233082  -0.003891
    11  O   -0.077994  -0.024745
    12  H   -0.349327   0.478712
    13  H   -0.040752   0.156790
    14  H   -1.007859   1.260051
    15  H   -0.003969   0.206015
    16  H   -0.212026   0.388495
    17  H    0.050703   0.086261
    18  H   -0.064247   0.200622
    19  H   -0.051852   0.395208
    20  H   -0.466149   0.767695
    21  H    0.083981   0.204887
 Sum of Mulliken charges =  -1.00000   1.00000

 Dipole moment (field-independent basis, Debye):
    X=              4.4312    Y=             -2.6177    Z=             -0.1253  Tot=              5.1482
 Quadrupole moment (field-independent basis, Debye-Ang):
   XX=           -122.8659   YY=            -96.6087   ZZ=            -97.4896
   XY=              6.7705   XZ=              4.6387   YZ=              3.0882

 Summary of Natural Population Analysis:

                                       Natural Population
                Natural  -----------------------------------------------
    Atom  No    Charge         Core      Valence    Rydberg      Total
 -----------------------------------------------------------------------
      C    1   -0.25674      0.99951     2.24936    0.00787     3.25674
      C    2    0.14810      0.99943     1.83421    0.01826     2.85190
      C    3    0.04362      0.99951     1.94056    0.01631     2.95638
      C    4   -0.20965      0.99958     2.19850    0.01157     3.20965
      C    5    0.05014      0.99953     1.93487    0.01546     2.94986
      C    6   -0.03051      0.99950     2.01842    0.01258     3.03051
      N    7   -0.26133      0.99973     2.75094    0.01065     3.76133
      C    8    0.09816      0.99967     1.88400    0.01817     2.90184
      N    9   -0.27160      0.99966     2.76211    0.00983     3.77160
      O   10   -0.37758      0.99989     3.36982    0.00787     4.37758
      O   11   -0.34829      0.99987     3.34098    0.00744     4.34829
      H   12    0.10286      0.00000     0.39530    0.00184     0.39714
      H   13    0.09838      0.00000     0.40053    0.00108     0.40162
      H   14    0.09985      0.00000     0.39241    0.00774     0.40015
      H   15    0.11389      0.00000     0.38475    0.00136     0.38611
      H   16    0.11216      0.00000     0.38563    0.00221     0.38784
      H   17    0.09734      0.00000     0.40155    0.00112     0.40266
      H   18    0.08981      0.00000     0.40909    0.00111     0.41019
      H   19    0.21199      0.00000     0.28510    0.00291     0.28801
      H   20    0.24440      0.00000     0.23795    0.01765     0.25560
      H   21    0.24501      0.00000     0.25054    0.00445     0.25499
 =======================================================================
   * Total *   -0.00000     10.99588    29.82663    0.17749    41.00000

 Normal termination of Gaussian 16 at Tue Dec  8 19:47:31 2020.
