 Gaussian 16, Revision A.03,

 -----------------------------------------------------------
 # opt freq B3LYP/6-31G(d) empiricaldispersion=gd3bj scf=xqc
 -----------------------------------------------------------

 -------------------------------
 CID_123477437_JID_6030_neutraal
 -------------------------------
 Symbolic Z-matrix:
 Charge =  0 Multiplicity = 1

 SCF Done:  E(RB3LYP) =  -869.308276641     A.U. after   15 cycles
 SCF Done:  E(RB3LYP) =  -869.329644860     A.U. after   14 cycles
 SCF Done:  E(RB3LYP) =  -869.332950743     A.U. after   14 cycles
 SCF Done:  E(RB3LYP) =  -869.333251404     A.U. after   14 cycles
 SCF Done:  E(RB3LYP) =  -869.334817355     A.U. after   13 cycles
 SCF Done:  E(RB3LYP) =  -869.335745948     A.U. after   13 cycles
 SCF Done:  E(RB3LYP) =  -869.336279881     A.U. after   14 cycles
 SCF Done:  E(RB3LYP) =  -869.337070135     A.U. after   12 cycles
 SCF Done:  E(RB3LYP) =  -869.338314699     A.U. after   13 cycles
 SCF Done:  E(RB3LYP) =  -869.340415877     A.U. after   14 cycles
 SCF Done:  E(RB3LYP) =  -869.343625488     A.U. after   13 cycles
 SCF Done:  E(RB3LYP) =  -869.343636080     A.U. after   10 cycles
 SCF Done:  E(RB3LYP) =  -869.343640801     A.U. after   11 cycles
 SCF Done:  E(RB3LYP) =  -869.343641596     A.U. after    8 cycles
 SCF Done:  E(RB3LYP) =  -869.343641898     A.U. after    8 cycles
 Optimization completed.
    -- Stationary point found.
 Normal termination of Gaussian 16 at Thu Dec 10 21:20:55 2020.

 --------------------------------------------------------------------
 #N Geom=AllCheck Guess=TCheck SCRF=Check GenChk RB3LYP/6-31G(d) Freq
 --------------------------------------------------------------------

 Structure from the checkpoint file:  "JID_6030.chk"
 -------------------------------
 CID_123477437_JID_6030_neutraal
 -------------------------------
 Charge =  0 Multiplicity = 1

 SCF Done:  E(RB3LYP) =  -869.343641898     A.U. after    1 cycles

  Exact polarizability: 127.470  -7.248 118.189  -3.782  -5.104  70.254
 Approx polarizability: 168.755 -17.126 196.368 -15.443 -16.445 117.875

                      1                      2                      3
                      A                      A                      A
 Frequencies --     16.0016                37.3227                50.5335
 Red. masses --     11.2954                11.8814                 7.1088
 Frc consts  --      0.0017                 0.0098                 0.0107
 IR Inten    --      0.1200                 0.7750                 1.1736

                      4                      5                      6
                      A                      A                      A
 Frequencies --     71.6092                84.8723               121.7958
 Red. masses --      8.2450                11.4107                11.1982
 Frc consts  --      0.0249                 0.0484                 0.0979
 IR Inten    --      1.6115                 2.1767                 2.2374

                      7                      8                      9
                      A                      A                      A
 Frequencies --    133.6061               146.6752               191.4511
 Red. masses --      5.8657                 8.1371                10.2818
 Frc consts  --      0.0617                 0.1031                 0.2220
 IR Inten    --      0.2100                 0.8033                 2.9905

                     10                     11                     12
                      A                      A                      A
 Frequencies --    218.0292               274.0159               283.3438
 Red. masses --      1.1006                 4.4020                 5.1110
 Frc consts  --      0.0308                 0.1947                 0.2418
 IR Inten    --      0.3290                 4.9278                 1.9661

                     13                     14                     15
                      A                      A                      A
 Frequencies --    304.3284               354.6806               372.7811
 Red. masses --      8.2460                 7.1829                 6.3523
 Frc consts  --      0.4500                 0.5324                 0.5201
 IR Inten    --     12.3814                13.3504                12.6461

                     16                     17                     18
                      A                      A                      A
 Frequencies --    449.3065               463.9096               480.0464
 Red. masses --      6.1112                 9.5706                10.7721
 Frc consts  --      0.7269                 1.2135                 1.4626
 IR Inten    --      1.7063                19.3775                 2.3860

                     19                     20                     21
                      A                      A                      A
 Frequencies --    529.1043               564.6906               573.9100
 Red. masses --      6.2856                12.6220                12.5117
 Frc consts  --      1.0368                 2.3714                 2.4280
 IR Inten    --      7.6057                10.8153                54.6738

                     22                     23                     24
                      A                      A                      A
 Frequencies --    621.0418               626.7244               653.3678
 Red. masses --      5.7847                 5.7362                 7.5088
 Frc consts  --      1.3145                 1.3275                 1.8886
 IR Inten    --     24.2575                11.1428                16.7748

                     25                     26                     27
                      A                      A                      A
 Frequencies --    670.7547               682.6548               786.3687
 Red. masses --      7.5503                10.6772                 4.4424
 Frc consts  --      2.0014                 2.9316                 1.6185
 IR Inten    --      1.6274                21.6072                13.2244

                     28                     29                     30
                      A                      A                      A
 Frequencies --    836.2632               893.2643               955.1498
 Red. masses --      4.2373                 4.7262                 5.4722
 Frc consts  --      1.7459                 2.2219                 2.9414
 IR Inten    --      5.3039                66.7056                53.5757

                     31                     32                     33
                      A                      A                      A
 Frequencies --    984.3328               989.0356              1064.6454
 Red. masses --      5.3306                 3.5222                 2.0843
 Frc consts  --      3.0431                 2.0300                 1.3920
 IR Inten    --     79.6705                52.2822                33.1106

                     34                     35                     36
                      A                      A                      A
 Frequencies --   1089.7220              1112.9812              1134.4574
 Red. masses --      6.7572                 3.7049                 2.7477
 Frc consts  --      4.7277                 2.7039                 2.0835
 IR Inten    --     51.8470                31.9876                20.0040

                     37                     38                     39
                      A                      A                      A
 Frequencies --   1155.5077              1211.4633              1263.6787
 Red. masses --      2.7802                 2.1187                 2.9570
 Frc consts  --      2.1871                 1.8320                 2.7821
 IR Inten    --     23.9851                 2.4539               570.3784

                     40                     41                     42
                      A                      A                      A
 Frequencies --   1314.5670              1343.0055              1369.6171
 Red. masses --      1.5287                 1.2816                 1.4725
 Frc consts  --      1.5565                 1.3619                 1.6275
 IR Inten    --     92.4858                78.0007                15.4231

                     43                     44                     45
                      A                      A                      A
 Frequencies --   1375.3982              1385.3132              1407.9023
 Red. masses --      1.2533                 1.7279                 1.5155
 Frc consts  --      1.3969                 1.9538                 1.7699
 IR Inten    --     45.5740                17.3412                52.4983

                     46                     47                     48
                      A                      A                      A
 Frequencies --   1443.5385              1469.8901              1494.0766
 Red. masses --      1.2673                12.1838                 8.3960
 Frc consts  --      1.5559                15.5096                11.0426
 IR Inten    --     13.9161                58.0163                30.0838

                     49                     50                     51
                      A                      A                      A
 Frequencies --   1512.4488              1521.4421              1853.9665
 Red. masses --      1.0475                 1.0493                12.7946
 Frc consts  --      1.4118                 1.4311                25.9107
 IR Inten    --      8.6573                 3.4735               369.4486

                     52                     53                     54
                      A                      A                      A
 Frequencies --   1879.7446              2353.8896              2377.5002
 Red. masses --     12.7168                12.5428                12.6738
 Frc consts  --     26.4743                40.9466                42.2084
 IR Inten    --    262.2220              1349.0541               789.1404

                     55                     56                     57
                      A                      A                      A
 Frequencies --   3031.2108              3050.1003              3085.6785
 Red. masses --      1.0833                 1.0831                 1.0346
 Frc consts  --      5.8647                 5.9368                 5.8039
 IR Inten    --     12.1426                 6.6893                 6.4345

                     58                     59                     60
                      A                      A                      A
 Frequencies --   3099.9386              3164.8196              3170.9919
 Red. masses --      1.0865                 1.1050                 1.1035
 Frc consts  --      6.1517                 6.5208                 6.5374
 IR Inten    --     14.1561                 8.7986                 5.0983

 - Thermochemistry -
 -------------------
 Temperature   298.150 Kelvin.  Pressure   1.00000 Atm.
 Atom     1 has atomic number  6 and mass  12.00000

 Molecular mass:   226.02259 amu.
 Principal axes and moments of inertia in atomic units:
                           1         2         3
     Eigenvalues --  2422.368354646.864466721.44815
           X            0.99991   0.00826   0.01095
           Y           -0.00827   0.99997   0.00031
           Z           -0.01094  -0.00040   0.99994
 This molecule is an asymmetric top.
 Rotational symmetry number  1.
 Warning -- assumption of classical behavior for rotation
           may cause significant error
 Rotational temperatures (Kelvin)      0.03576     0.01864     0.01289
 Rotational constants (GHZ):           0.74503     0.38838     0.26850
 Zero-point vibrational energy     389734.2 (Joules/Mol)
                                   93.14871 (Kcal/Mol)
 Warning -- explicit consideration of  21 degrees of freedom as
           vibrations may cause significant error
 Vibrational temperatures:     23.02    53.70    72.71   103.03   122.11
          (Kelvin)            175.24   192.23   211.03   275.46   313.70
                              394.25   407.67   437.86   510.31   536.35
                              646.45   667.46   690.68   761.26   812.46
                              825.73   893.54   901.72   940.05   965.07
                              982.19  1131.41  1203.20  1285.21  1374.25
                             1416.24  1423.00  1531.79  1567.87  1601.33
                             1632.23  1662.52  1743.03  1818.15  1891.37
                             1932.29  1970.57  1978.89  1993.16  2025.66
                             2076.93  2114.84  2149.64  2176.08  2189.02
                             2667.44  2704.53  3386.72  3420.69  4361.24
                             4388.41  4439.60  4460.12  4553.47  4562.35

 Zero-point correction=                           0.148442 (Hartree/Particle)
 Thermal correction to Energy=                    0.163101
 Thermal correction to Enthalpy=                  0.164046
 Thermal correction to Gibbs Free Energy=         0.103851
 Sum of electronic and zero-point Energies=           -869.195200
 Sum of electronic and thermal Energies=              -869.180540
 Sum of electronic and thermal Enthalpies=            -869.179596
 Sum of electronic and thermal Free Energies=         -869.239791

                     E (Thermal)             CV                S
                      KCal/Mol        Cal/Mol-Kelvin    Cal/Mol-Kelvin
 Total                  102.348             51.307            126.690
 Electronic               0.000              0.000              0.000
 Translational            0.889              2.981             42.149
 Rotational               0.889              2.981             32.692
 Vibrational            100.570             45.345             51.849
 Vibration     1          0.593              1.986              7.077
 Vibration     2          0.594              1.982              5.396
 Vibration     3          0.595              1.977              4.796
 Vibration     4          0.598              1.968              4.109
 Vibration     5          0.601              1.960              3.775
 Vibration     6          0.609              1.931              3.072
 Vibration     7          0.613              1.920              2.893
 Vibration     8          0.617              1.906              2.715
 Vibration     9          0.634              1.852              2.214
 Vibration    10          0.646              1.814              1.975
 Vibration    11          0.676              1.721              1.571
 Vibration    12          0.682              1.705              1.513
 Vibration    13          0.695              1.665              1.393
 Vibration    14          0.731              1.566              1.145
 Vibration    15          0.744              1.528              1.068
 Vibration    16          0.808              1.362              0.798
 Vibration    17          0.821              1.330              0.755
 Vibration    18          0.836              1.294              0.710
 Vibration    19          0.884              1.186              0.589
 Vibration    20          0.921              1.108              0.515
 Vibration    21          0.930              1.088              0.497

                           ! Non-Optimized Parameters !
 Normal termination of Gaussian 16 at Thu Dec 10 21:28:04 2020.

 ----------------------------------------------------------------------
 # B3LYP/6-311++G(d,p) empiricaldispersion=gd3bj scf=xqc pop=npa geom=c
 heck
 ----------------------------------------------------------------------

 ---------------------------------------
 CID_123477437_JID_6030_Energie_neutraal
 ---------------------------------------
 Structure from the checkpoint file:  "JID_6030.chk"
 Charge =  0 Multiplicity = 1

 SCF Done:  E(RB3LYP) =  -869.601472043     A.U. after   16 cycles
 Normal termination of Gaussian 16 at Thu Dec 10 21:30:27 2020.

 ----------------------------------------------------------------------
 # B3LYP/6-311++G(d,p) empiricaldispersion=gd3bj scf=xqc pop=npa geom=c
 heck
 ----------------------------------------------------------------------

 -------------------------------------
 CID_123477437_JID_6030_Energie_kation
 -------------------------------------
 Structure from the checkpoint file:  "JID_6030.chk"
 Charge =  1 Multiplicity = 2

 SCF Done:  E(UB3LYP) =  -869.232947157     A.U. after   28 cycles
 Normal termination of Gaussian 16 at Thu Dec 10 21:36:01 2020.
 Gaussian 16:  ES64L-G16RevA.03 25-Dec-2016

 ----------------------------------------------------------------------
 # B3LYP/6-311++G(d,p) empiricaldispersion=gd3bj scf=xqc pop=npa geom=c
 heck
 ----------------------------------------------------------------------

 ------------------------------------
 CID_123477437_JID_6030_Energie_anion
 ------------------------------------
 Structure from the checkpoint file:  "JID_6030.chk"
 Charge = -1 Multiplicity = 2

                         Standard orientation:
 ---------------------------------------------------------------------
 Center     Atomic      Atomic             Coordinates (Angstroms)
 Number     Number       Type             X           Y           Z
 ---------------------------------------------------------------------
      1          6           0       -4.126027   -0.361082   -0.555775
      2          6           0       -2.629547   -0.138860   -0.622670
      3          6           0       -2.180130    1.080379    0.182250
      4          8           0       -2.908423    1.968125    0.534466
      5          8           0       -0.854843    1.100975    0.488681
      6          6           0       -0.029755    0.086377   -0.101484
      7          6           0       -0.663661   -1.283347    0.142791
      8          8           0       -0.067179   -2.247071    0.555960
      9          8           0       -1.985371   -1.333628   -0.105489
     10          6           0        1.374880    0.182962    0.529375
     11          7           0        2.282128   -0.639954   -0.241025
     12          6           0        2.577225   -1.819083   -0.126128
     13          8           0        2.974943   -2.919130   -0.144509
     14          7           0        1.804291    1.551658    0.540460
     15          6           0        2.611846    2.152952   -0.139769
     16          8           0        3.364616    2.848842   -0.710808
     17          1           0       -4.643280    0.513815   -0.955167
     18          1           0       -4.440450   -0.505349    0.480706
     19          1           0       -4.396389   -1.243438   -1.140824
     20          1           0       -2.306603   -0.001902   -1.664902
     21          1           0        0.072578    0.268561   -1.179715
     22          1           0        1.310292   -0.160308    1.565904
 ---------------------------------------------------------------------

 SCF Done:  E(UB3LYP) =  -869.605973620     A.U. after   33 cycles
 SCF Done:  E(UB3LYP) =  -869.605973620     a.u. after    1 cycles

 The electronic state is 2-A.
 Alpha  occ. eigenvalues --  -19.06234 -19.05919 -19.05788 -19.05003 -19.00070
 Alpha  occ. eigenvalues --  -18.98288 -14.22169 -14.21791 -10.19178 -10.18728
 Alpha  occ. eigenvalues --  -10.18157 -10.17103 -10.16768 -10.15343 -10.14299
 Alpha  occ. eigenvalues --  -10.08019  -1.01467  -0.99623  -0.99020  -0.98241
 Alpha  occ. eigenvalues --   -0.92449  -0.91085  -0.86962  -0.81782  -0.69693
 Alpha  occ. eigenvalues --   -0.68090  -0.59564  -0.57124  -0.52514  -0.48695
 Alpha  occ. eigenvalues --   -0.45304  -0.44269  -0.42842  -0.40933  -0.39626
 Alpha  occ. eigenvalues --   -0.39106  -0.37924  -0.35572  -0.34501  -0.34232
 Alpha  occ. eigenvalues --   -0.33655  -0.33380  -0.32699  -0.32376  -0.31398
 Alpha  occ. eigenvalues --   -0.30965  -0.30427  -0.28349  -0.27670  -0.24897
 Alpha  occ. eigenvalues --   -0.21597  -0.21042  -0.20681  -0.19947  -0.18213
 Alpha  occ. eigenvalues --   -0.17295  -0.16494  -0.15240   0.04902
 Alpha virt. eigenvalues --    0.06682   0.08355   0.09108   0.09617   0.10653
 Alpha virt. eigenvalues --    0.10712   0.11283   0.11696   0.11764   0.13154
 Alpha virt. eigenvalues --    0.13952   0.14867   0.15473   0.15867   0.15970

  Beta  occ. eigenvalues --  -19.06185 -19.05859 -19.05709 -19.04881 -18.99913
  Beta  occ. eigenvalues --  -18.98018 -14.22167 -14.21824 -10.19097 -10.18544
  Beta  occ. eigenvalues --  -10.17963 -10.16988 -10.16441 -10.15361 -10.14316
  Beta  occ. eigenvalues --  -10.08003  -1.01226  -0.99462  -0.98769  -0.97979
  Beta  occ. eigenvalues --   -0.92211  -0.90679  -0.86830  -0.81643  -0.69520
  Beta  occ. eigenvalues --   -0.67934  -0.59252  -0.56975  -0.52135  -0.48481
  Beta  occ. eigenvalues --   -0.45033  -0.43976  -0.42599  -0.40742  -0.39471
  Beta  occ. eigenvalues --   -0.38865  -0.37607  -0.35376  -0.34349  -0.33885
  Beta  occ. eigenvalues --   -0.33178  -0.32888  -0.32381  -0.31879  -0.31021
  Beta  occ. eigenvalues --   -0.30763  -0.30153  -0.27995  -0.27364  -0.24724
  Beta  occ. eigenvalues --   -0.21138  -0.20720  -0.20048  -0.19653  -0.18167
  Beta  occ. eigenvalues --   -0.17157  -0.16203  -0.15074
  Beta virt. eigenvalues --    0.06901   0.08417   0.09172   0.10017   0.10722
  Beta virt. eigenvalues --    0.11147   0.11373   0.11499   0.11795   0.12084
  Beta virt. eigenvalues --    0.14017   0.14156   0.14836   0.15481   0.15747

 Mulliken charges and spin densities:
               1          2
     1  C   -0.270662  -0.332958
     2  C   -0.390165   0.359661
     3  C    0.429848  -0.056226
     4  O   -0.321767   0.046461
     5  O    0.034484  -0.026858
     6  C   -0.270361   0.309538
     7  C    0.058401   0.242056
     8  O   -0.352650   0.091485
     9  O   -0.062489   0.006620
    10  C   -0.179569  -0.859507
    11  N   -0.146117   0.083320
    12  C    0.388373   0.088162
    13  O   -0.306113   0.034670
    14  N   -0.043389  -0.001606
    15  C    0.498516   0.002082
    16  O   -0.285597  -0.002085
    17  H    0.118605   0.047932
    18  H    0.156775   0.025866
    19  H    0.065954   0.077088
    20  H    0.170932   0.018708
    21  H   -0.231142   0.503454
    22  H   -0.061869   0.342135
 Sum of Mulliken charges =  -1.00000   1.00000

 Dipole moment (field-independent basis, Debye):
    X=             -2.7215    Y=             -0.4471    Z=             -1.1616  Tot=              2.9926
 Quadrupole moment (field-independent basis, Debye-Ang):
   XX=           -133.3862   YY=           -136.4489   ZZ=            -98.9948
   XY=              3.7879   XZ=              7.8523   YZ=              0.5857

 Summary of Natural Population Analysis:

                                       Natural Population
                Natural  -----------------------------------------------
    Atom  No    Charge         Core      Valence    Rydberg      Total
 -----------------------------------------------------------------------
      C    1   -0.28993      0.99965     2.28324    0.00704     3.28993
      C    2    0.01159      0.99954     1.97720    0.01168     2.98841
      C    3    0.41801      0.99966     1.55576    0.02657     2.58199
      O    4   -0.28097      0.99986     3.27531    0.00579     4.28097
      O    5   -0.26921      0.99985     3.26030    0.00907     4.26921
      C    6    0.01190      0.99948     1.97420    0.01441     2.98810
      C    7    0.43365      0.99967     1.54045    0.02622     2.56635
      O    8   -0.27634      0.99987     3.27050    0.00597     4.27634
      O    9   -0.27586      0.99985     3.26702    0.00899     4.27586
      C   10    0.08480      0.99952     1.89773    0.01796     2.91520
      N   11   -0.31489      0.99952     2.80610    0.00926     3.81489
      C   12    0.46900      0.99961     1.51332    0.01807     2.53100
      O   13   -0.24736      0.99986     3.24031    0.00719     4.24736
      N   14   -0.28673      0.99951     2.77693    0.01029     3.78673
      C   15    0.44825      0.99959     1.53392    0.01825     2.55175
      O   16   -0.25928      0.99987     3.25155    0.00786     4.25928
      H   17    0.10835      0.00000     0.39082    0.00083     0.39165
      H   18    0.10611      0.00000     0.39299    0.00090     0.39389
      H   19    0.10115      0.00000     0.39753    0.00132     0.39885
      H   20    0.09875      0.00000     0.40020    0.00105     0.40125
      H   21    0.10608      0.00000     0.39129    0.00262     0.39392
      H   22    0.10291      0.00000     0.39533    0.00176     0.39709
 =======================================================================
   * Total *   -0.00000     15.99491    41.79201    0.21309    58.00000

 Normal termination of Gaussian 16 at Thu Dec 10 21:42:54 2020.
