 Gaussian 16, Revision A.03,

 -----------------------------------------------------------
 # opt freq B3LYP/6-31G(d) empiricaldispersion=gd3bj scf=xqc
 -----------------------------------------------------------

 ------------------------------
 CID_82512105_JID_2261_neutraal
 ------------------------------
 Symbolic Z-matrix:
 Charge =  0 Multiplicity = 1

 SCF Done:  E(RB3LYP) =  -572.080785280     A.U. after   15 cycles
 SCF Done:  E(RB3LYP) =  -572.082856868     A.U. after   12 cycles
 SCF Done:  E(RB3LYP) =  -572.083154132     A.U. after   12 cycles
 SCF Done:  E(RB3LYP) =  -572.083343569     A.U. after   11 cycles
 SCF Done:  E(RB3LYP) =  -572.083415011     A.U. after   11 cycles
 SCF Done:  E(RB3LYP) =  -572.083560156     A.U. after   12 cycles
 SCF Done:  E(RB3LYP) =  -572.083651681     A.U. after   12 cycles
 SCF Done:  E(RB3LYP) =  -572.083700145     A.U. after   12 cycles
 SCF Done:  E(RB3LYP) =  -572.083787803     A.U. after   12 cycles
 SCF Done:  E(RB3LYP) =  -572.084318440     A.U. after   12 cycles
 SCF Done:  E(RB3LYP) =  -572.086170262     A.U. after    8 cycles
 SCF Done:  E(RB3LYP) =  -572.086171007     A.U. after    8 cycles
 SCF Done:  E(RB3LYP) =  -572.086171467     A.U. after    8 cycles
 SCF Done:  E(RB3LYP) =  -572.086171512     A.U. after    7 cycles
 SCF Done:  E(RB3LYP) =  -572.086171530     A.U. after    7 cycles
 Optimization completed.
    -- Stationary point found.
 Normal termination of Gaussian 16 at Wed Dec  9 17:03:05 2020.

 --------------------------------------------------------------------
 #N Geom=AllCheck Guess=TCheck SCRF=Check GenChk RB3LYP/6-31G(d) Freq
 --------------------------------------------------------------------

 Structure from the checkpoint file:  "JID_2261.chk"
 ------------------------------
 CID_82512105_JID_2261_neutraal
 ------------------------------
 Charge =  0 Multiplicity = 1

 SCF Done:  E(RB3LYP) =  -572.086171530     A.U. after    1 cycles

  Exact polarizability: 108.503   7.138  96.020  11.517  -4.943  81.847
 Approx polarizability: 140.970  13.504 151.576  22.048  -8.891 133.135

                      1                      2                      3
                      A                      A                      A
 Frequencies --     26.3775                44.6667                61.4359
 Red. masses --      5.7782                 8.6537                 4.2293
 Frc consts  --      0.0024                 0.0102                 0.0094
 IR Inten    --      0.8504                 1.3365                 0.4673

                      4                      5                      6
                      A                      A                      A
 Frequencies --     82.7477               105.5732               154.6273
 Red. masses --      3.0767                 1.1321                 4.3703
 Frc consts  --      0.0124                 0.0074                 0.0616
 IR Inten    --      0.6801                 0.5011                 2.7948

                      7                      8                      9
                      A                      A                      A
 Frequencies --    214.6943               255.0910               289.9771
 Red. masses --      2.7244                 3.0827                 2.4553
 Frc consts  --      0.0740                 0.1182                 0.1216
 IR Inten    --      3.2328                 3.3893                 2.8304

                     10                     11                     12
                      A                      A                      A
 Frequencies --    313.1129               405.6045               429.4197
 Red. masses --      3.2525                 2.3589                 3.8696
 Frc consts  --      0.1879                 0.2286                 0.4204
 IR Inten    --      2.9310                 1.7229                 5.7709

                     13                     14                     15
                      A                      A                      A
 Frequencies --    489.3861               528.5394               602.4687
 Red. masses --      2.1826                 2.2961                 3.2577
 Frc consts  --      0.3080                 0.3779                 0.6967
 IR Inten    --     16.3923                19.5368                 9.1610

                     16                     17                     18
                      A                      A                      A
 Frequencies --    637.5111               663.9937               681.0561
 Red. masses --      3.2682                 2.4415                 2.8759
 Frc consts  --      0.7826                 0.6342                 0.7859
 IR Inten    --      8.0832                44.7983                14.9032

                     19                     20                     21
                      A                      A                      A
 Frequencies --    687.3599               715.1679               737.6779
 Red. masses --      1.9045                 1.4415                 2.8603
 Frc consts  --      0.5301                 0.4344                 0.9170
 IR Inten    --     53.4526                16.5421                 4.2922

                     22                     23                     24
                      A                      A                      A
 Frequencies --    797.6433               817.8298               856.6429
 Red. masses --      2.3252                 1.3474                 2.4414
 Frc consts  --      0.8716                 0.5310                 1.0556
 IR Inten    --     25.4996                28.5561                12.1844

                     25                     26                     27
                      A                      A                      A
 Frequencies --    910.9038               989.9842              1014.3677
 Red. masses --      2.4880                 2.5518                 2.3076
 Frc consts  --      1.2163                 1.4735                 1.3989
 IR Inten    --      2.3319                 7.4485                 0.1485

                     28                     29                     30
                      A                      A                      A
 Frequencies --   1024.1870              1051.4811              1078.4818
 Red. masses --      1.8594                 1.6567                 3.6984
 Frc consts  --      1.1492                 1.0792                 2.5345
 IR Inten    --     18.9359                 9.3963                10.2603

                     31                     32                     33
                      A                      A                      A
 Frequencies --   1079.8179              1104.5573              1169.4349
 Red. masses --      1.5176                 2.8142                 1.9225
 Frc consts  --      1.0426                 2.0230                 1.5491
 IR Inten    --      2.6820                25.5381               193.4452

                     34                     35                     36
                      A                      A                      A
 Frequencies --   1187.1871              1214.7765              1232.8020
 Red. masses --      1.6305                 1.4455                 1.4049
 Frc consts  --      1.3539                 1.2568                 1.2580
 IR Inten    --     21.5240                46.5551                29.2241

                     37                     38                     39
                      A                      A                      A
 Frequencies --   1262.8565              1314.6427              1327.3451
 Red. masses --      1.3637                 1.3814                 3.8377
 Frc consts  --      1.2814                 1.4066                 3.9838
 IR Inten    --     13.0225                 7.2021                31.6462

                     40                     41                     42
                      A                      A                      A
 Frequencies --   1338.4434              1390.1864              1405.9560
 Red. masses --      1.4715                 1.9860                 1.6552
 Frc consts  --      1.5531                 2.2614                 1.9277
 IR Inten    --      6.4863                11.7325                 3.2120

                     43                     44                     45
                      A                      A                      A
 Frequencies --   1412.6900              1442.3665              1446.1436
 Red. masses --      2.0784                 2.0241                 1.7511
 Frc consts  --      2.4438                 2.4811                 2.1576
 IR Inten    --     35.2084                30.9666                25.0097

                     46                     47                     48
                      A                      A                      A
 Frequencies --   1452.5923              1488.9574              1506.8106
 Red. masses --      1.8194                 1.0908                 1.0444
 Frc consts  --      2.2619                 1.4249                 1.3971
 IR Inten    --      8.7250                14.4213                 4.7153

                     49                     50                     51
                      A                      A                      A
 Frequencies --   1510.4810              1514.5813              1525.0943
 Red. masses --      1.1914                 1.3005                 1.1453
 Frc consts  --      1.6015                 1.7577                 1.5695
 IR Inten    --     27.9295                20.9762                 7.3256

                     52                     53                     54
                      A                      A                      A
 Frequencies --   1553.6189              1613.4187              1833.4689
 Red. masses --      2.0105                 4.9166                 9.2685
 Frc consts  --      2.8592                 7.5406                18.3572
 IR Inten    --     43.5523                12.1860               226.8379

                     55                     56                     57
                      A                      A                      A
 Frequencies --   3047.8821              3059.1921              3066.9162
 Red. masses --      1.0361                 1.0618                 1.0630
 Frc consts  --      5.6709                 5.8545                 5.8908
 IR Inten    --     38.0320                13.6567                10.2246

                     58                     59                     60
                      A                      A                      A
 Frequencies --   3078.4982              3097.9127              3102.0997
 Red. masses --      1.0689                 1.1010                 1.1013
 Frc consts  --      5.9683                 6.2254                 6.2439
 IR Inten    --     44.4143                10.3730                20.3531

                     61                     62                     63
                      A                      A                      A
 Frequencies --   3106.2848              3125.4412              3166.5577
 Red. masses --      1.1019                 1.1020                 1.0967
 Frc consts  --      6.2641                 6.3422                 6.4791
 IR Inten    --     19.2997                21.5672                 3.9462

                     64                     65                     66
                      A                      A                      A
 Frequencies --   3261.9027              3275.1009              3684.6256
 Red. masses --      1.0960                 1.0981                 1.0640
 Frc consts  --      6.8707                 6.9394                 8.5110
 IR Inten    --      1.3749                 1.3270                51.5667

 - Thermochemistry -
 -------------------
 Temperature   298.150 Kelvin.  Pressure   1.00000 Atm.
 Atom     1 has atomic number  6 and mass  12.00000

 Molecular mass:   168.08988 amu.
 Principal axes and moments of inertia in atomic units:
                           1         2         3
     Eigenvalues --  1078.090893243.173853572.52614
           X            0.99987   0.01267   0.00955
           Y           -0.01255   0.99984  -0.01270
           Z           -0.00971   0.01257   0.99987
 This molecule is an asymmetric top.
 Rotational symmetry number  1.
 Warning -- assumption of classical behavior for rotation
           may cause significant error
 Rotational temperatures (Kelvin)      0.08034     0.02671     0.02424
 Rotational constants (GHZ):           1.67402     0.55647     0.50517
 Zero-point vibrational energy     526767.5 (Joules/Mol)
                                  125.90046 (Kcal/Mol)
 Warning -- explicit consideration of  15 degrees of freedom as
           vibrations may cause significant error
 Vibrational temperatures:     37.95    64.27    88.39   119.06   151.90
          (Kelvin)            222.47   308.90   367.02   417.21   450.50
                              583.57   617.84   704.12   760.45   866.82
                              917.24   955.34   979.89   988.96  1028.97
                             1061.35  1147.63  1176.67  1232.52  1310.59
                             1424.37  1459.45  1473.58  1512.85  1551.69
                             1553.62  1589.21  1682.56  1708.10  1747.79
                             1773.73  1816.97  1891.48  1909.75  1925.72
                             2000.17  2022.86  2032.55  2075.24  2080.68
                             2089.96  2142.28  2167.96  2173.25  2179.14
                             2194.27  2235.31  2321.35  2637.95  4385.22
                             4401.50  4412.61  4429.27  4457.21  4463.23
                             4469.25  4496.81  4555.97  4693.15  4712.14
                             5301.35

 Zero-point correction=                           0.200635 (Hartree/Particle)
 Thermal correction to Energy=                    0.212550
 Thermal correction to Enthalpy=                  0.213494
 Thermal correction to Gibbs Free Energy=         0.160674
 Sum of electronic and zero-point Energies=           -571.885536
 Sum of electronic and thermal Energies=              -571.873621
 Sum of electronic and thermal Enthalpies=            -571.872677
 Sum of electronic and thermal Free Energies=         -571.925497

                     E (Thermal)             CV                S
                      KCal/Mol        Cal/Mol-Kelvin    Cal/Mol-Kelvin
 Total                  133.377             43.197            111.169
 Electronic               0.000              0.000              0.000
 Translational            0.889              2.981             41.266
 Rotational               0.889              2.981             30.902
 Vibrational            131.600             37.235             39.001
 Vibration     1          0.593              1.985              6.085
 Vibration     2          0.595              1.980              5.041
 Vibration     3          0.597              1.973              4.411
 Vibration     4          0.600              1.961              3.825
 Vibration     5          0.605              1.945              3.349
 Vibration     6          0.620              1.898              2.614
 Vibration     7          0.645              1.819              2.003
 Vibration     8          0.665              1.754              1.695
 Vibration     9          0.686              1.692              1.474
 Vibration    10          0.701              1.649              1.346
 Vibration    11          0.771              1.458              0.942
 Vibration    12          0.791              1.406              0.861
 Vibration    13          0.845              1.274              0.685
 Vibration    14          0.883              1.187              0.590
 Vibration    15          0.961              1.027              0.445

 Optimization completed.
    -- Stationary point found.
 Normal termination of Gaussian 16 at Wed Dec  9 17:08:40 2020.

 ----------------------------------------------------------------------
 # B3LYP/6-311++G(d,p) empiricaldispersion=gd3bj scf=xqc pop=npa geom=c
 heck
 ----------------------------------------------------------------------

 --------------------------------------
 CID_82512105_JID_2261_Energie_neutraal
 --------------------------------------
 Structure from the checkpoint file:  "JID_2261.chk"
 Charge =  0 Multiplicity = 1

 SCF Done:  E(RB3LYP) =  -572.256981988     A.U. after   14 cycles
 Normal termination of Gaussian 16 at Wed Dec  9 17:11:08 2020.

 ----------------------------------------------------------------------
 # B3LYP/6-311++G(d,p) empiricaldispersion=gd3bj scf=xqc pop=npa geom=c
 heck
 ----------------------------------------------------------------------

 ------------------------------------
 CID_82512105_JID_2261_Energie_kation
 ------------------------------------
 Structure from the checkpoint file:  "JID_2261.chk"
 Charge =  1 Multiplicity = 2

 SCF Done:  E(UB3LYP) =  -571.953925027     A.U. after   20 cycles
 Normal termination of Gaussian 16 at Wed Dec  9 17:15:58 2020.
 Gaussian 16:  ES64L-G16RevA.03 25-Dec-2016

 ----------------------------------------------------------------------
 # B3LYP/6-311++G(d,p) empiricaldispersion=gd3bj scf=xqc pop=npa geom=c
 heck
 ----------------------------------------------------------------------

 -----------------------------------
 CID_82512105_JID_2261_Energie_anion
 -----------------------------------
 Structure from the checkpoint file:  "JID_2261.chk"
 Charge = -1 Multiplicity = 2

                         Standard orientation:
 ---------------------------------------------------------------------
 Center     Atomic      Atomic             Coordinates (Angstroms)
 Number     Number       Type             X           Y           Z
 ---------------------------------------------------------------------
      1          6           0        3.833807    0.760725    0.740265
      2          6           0        2.551762    0.328645    0.103108
      3          6           0        1.852931   -0.843052    0.286024
      4          7           0        0.751295   -0.768332   -0.549124
      5          6           0        0.827871    0.444355   -1.176772
      6          7           0        1.895895    1.126317   -0.816906
      7          6           0       -0.371137   -1.691791   -0.600486
      8          6           0       -1.233410   -1.637793    0.671966
      9          6           0       -1.591068   -0.220876    1.125305
     10          6           0       -2.409190    0.562920    0.125888
     11          8           0       -2.693981    0.216214   -1.002364
     12          8           0       -2.803651    1.751433    0.637382
     13          1           0        4.187479    0.015263    1.459747
     14          1           0        3.708331    1.714124    1.266623
     15          1           0        4.617677    0.909039   -0.011821
     16          1           0        2.038818   -1.709935    0.903099
     17          1           0        0.069698    0.763591   -1.879635
     18          1           0       -0.974671   -1.419617   -1.466245
     19          1           0        0.008164   -2.707964   -0.752513
     20          1           0       -2.145148   -2.217837    0.488857
     21          1           0       -0.700449   -2.128433    1.494657
     22          1           0       -2.147488   -0.246018    2.069276
     23          1           0       -0.682499    0.358975    1.330384
     24          1           0       -3.298584    2.202941   -0.072156
 ---------------------------------------------------------------------

 SCF Done:  E(UB3LYP) =  -572.244912567     A.U. after   33 cycles
 SCF Done:  E(UB3LYP) =  -572.244912567     a.u. after    1 cycles

 The electronic state is 2-A.
 Alpha  occ. eigenvalues --  -19.07254 -19.02148 -14.26784 -14.19126 -10.21244
 Alpha  occ. eigenvalues --  -10.12009 -10.11409 -10.09169 -10.09106 -10.08747
 Alpha  occ. eigenvalues --  -10.07918 -10.07193  -1.01499  -0.92595  -0.91740
 Alpha  occ. eigenvalues --   -0.79054  -0.70327  -0.66768  -0.63748  -0.59682
 Alpha  occ. eigenvalues --   -0.55047  -0.49262  -0.47681  -0.47268  -0.42080
 Alpha  occ. eigenvalues --   -0.40522  -0.39342  -0.38773  -0.36110  -0.34992
 Alpha  occ. eigenvalues --   -0.34172  -0.32940  -0.32456  -0.30561  -0.29830
 Alpha  occ. eigenvalues --   -0.29276  -0.28447  -0.26660  -0.26308  -0.25920
 Alpha  occ. eigenvalues --   -0.23168  -0.18847  -0.17469  -0.16926  -0.12736
 Alpha  occ. eigenvalues --    0.04393
 Alpha virt. eigenvalues --    0.06212   0.07230   0.07867   0.08908   0.09059
 Alpha virt. eigenvalues --    0.10247   0.10661   0.10894   0.11005   0.11640
 Alpha virt. eigenvalues --    0.12650   0.13063   0.13715   0.14824   0.15412

  Beta  occ. eigenvalues --  -19.07206 -19.02137 -14.26787 -14.19124 -10.21244
  Beta  occ. eigenvalues --  -10.12003 -10.11391 -10.09160 -10.09089 -10.08714
  Beta  occ. eigenvalues --  -10.07882 -10.07181  -1.01440  -0.92546  -0.91734
  Beta  occ. eigenvalues --   -0.79044  -0.70274  -0.66750  -0.63694  -0.59642
  Beta  occ. eigenvalues --   -0.54976  -0.49181  -0.47661  -0.47210  -0.42042
  Beta  occ. eigenvalues --   -0.40474  -0.39302  -0.38735  -0.36076  -0.34954
  Beta  occ. eigenvalues --   -0.34148  -0.32896  -0.32429  -0.30526  -0.29798
  Beta  occ. eigenvalues --   -0.29252  -0.28426  -0.26611  -0.26254  -0.25873
  Beta  occ. eigenvalues --   -0.23135  -0.18817  -0.17463  -0.16915  -0.12717
  Beta virt. eigenvalues --    0.06885   0.07496   0.07976   0.08487   0.09247
  Beta virt. eigenvalues --    0.09865   0.10615   0.10839   0.11092   0.11385
  Beta virt. eigenvalues --    0.11809   0.13034   0.13377   0.14106   0.14867

 Mulliken charges and spin densities:
               1          2
     1  C    1.030713  -1.742065
     2  C    0.448844  -0.353336
     3  C   -0.639666   0.371819
     4  N    0.142364  -0.025175
     5  C   -0.200806   0.210808
     6  N   -0.204717   0.080547
     7  C   -0.476566   0.036601
     8  C    1.400840  -1.675185
     9  C   -0.240738   0.130420
    10  C    0.667444  -0.872396
    11  O   -0.275032   0.005455
    12  O   -0.148484   0.048699
    13  H   -0.024734   0.163034
    14  H    0.067801   0.080502
    15  H    0.058722   0.079730
    16  H   -0.975100   1.143977
    17  H    0.025211   0.158184
    18  H    0.243581  -0.043394
    19  H   -0.515875   0.702872
    20  H   -0.441113   0.614944
    21  H   -0.130089   0.293778
    22  H   -0.633211   0.866163
    23  H    0.150279   0.105052
    24  H   -0.329670   0.618967
 Sum of Mulliken charges =  -1.00000   1.00000

 Dipole moment (field-independent basis, Debye):
    X=              2.5429    Y=              1.6170    Z=             -2.6033  Tot=              3.9823
 Quadrupole moment (field-independent basis, Debye-Ang):
   XX=           -130.4253   YY=           -121.1448   ZZ=           -105.0636
   XY=              5.6122   XZ=              3.3710   YZ=              7.7521

 Summary of Natural Population Analysis:

                                       Natural Population
                Natural  -----------------------------------------------
    Atom  No    Charge         Core      Valence    Rydberg      Total
 -----------------------------------------------------------------------
      C    1   -0.29430      0.99963     2.28977    0.00489     3.29430
      C    2    0.04766      0.99956     1.93795    0.01483     2.95234
      C    3   -0.03747      0.99947     2.02595    0.01204     3.03747
      N    4   -0.20801      0.99965     2.69741    0.01094     3.70801
      C    5    0.10738      0.99962     1.87732    0.01567     2.89262
      N    6   -0.26390      0.99971     2.75403    0.01017     3.76390
      C    7   -0.08443      0.99960     2.07316    0.01167     3.08443
      C    8   -0.19254      0.99963     2.18327    0.00964     3.19254
      C    9   -0.24620      0.99957     2.23697    0.00966     3.24620
      C   10    0.41009      0.99972     1.56492    0.02528     2.58991
      O   11   -0.31565      0.99987     3.30949    0.00629     4.31565
      O   12   -0.34151      0.99988     3.33490    0.00673     4.34151
      H   13    0.10230      0.00000     0.39687    0.00083     0.39770
      H   14    0.10327      0.00000     0.39551    0.00122     0.39673
      H   15    0.10153      0.00000     0.39724    0.00123     0.39847
      H   16    0.10790      0.00000     0.38996    0.00214     0.39210
      H   17    0.09667      0.00000     0.40194    0.00140     0.40333
      H   18    0.11032      0.00000     0.38820    0.00148     0.38968
      H   19    0.10238      0.00000     0.39596    0.00166     0.39762
      H   20    0.10594      0.00000     0.39221    0.00185     0.39406
      H   21    0.10504      0.00000     0.39152    0.00344     0.39496
      H   22    0.12141      0.00000     0.37669    0.00190     0.37859
      H   23    0.11939      0.00000     0.37885    0.00176     0.38061
      H   24    0.24271      0.00000     0.24566    0.01163     0.25729
 =======================================================================
   * Total *   -0.00000     11.99591    32.83573    0.16836    45.00000

 Normal termination of Gaussian 16 at Wed Dec  9 17:23:43 2020.
