 Gaussian 16, Revision A.03,

 -----------------------------------------------------------
 # opt freq B3LYP/6-31G(d) empiricaldispersion=gd3bj scf=xqc
 -----------------------------------------------------------

 -------------------------------
 CID_137202276_JID_3925_neutraal
 -------------------------------
 Symbolic Z-matrix:
 Charge =  0 Multiplicity = 1

 SCF Done:  E(RB3LYP) =  -622.311957454     A.U. after   15 cycles
 SCF Done:  E(RB3LYP) =  -622.320712706     A.U. after   12 cycles
 SCF Done:  E(RB3LYP) =  -622.321294172     A.U. after   12 cycles
 SCF Done:  E(RB3LYP) =  -622.321778409     A.U. after   12 cycles
 SCF Done:  E(RB3LYP) =  -622.321967325     A.U. after   12 cycles
 SCF Done:  E(RB3LYP) =  -622.322159097     A.U. after   12 cycles
 SCF Done:  E(RB3LYP) =  -622.322241155     A.U. after   12 cycles
 SCF Done:  E(RB3LYP) =  -622.322257446     A.U. after    9 cycles
 SCF Done:  E(RB3LYP) =  -622.322267846     A.U. after   11 cycles
 SCF Done:  E(RB3LYP) =  -622.322270809     A.U. after    9 cycles
 SCF Done:  E(RB3LYP) =  -622.322271391     A.U. after    9 cycles
 SCF Done:  E(RB3LYP) =  -622.322271617     A.U. after    7 cycles
 SCF Done:  E(RB3LYP) =  -622.322271853     A.U. after    7 cycles
 SCF Done:  E(RB3LYP) =  -622.322271965     A.U. after    7 cycles
 SCF Done:  E(RB3LYP) =  -622.322272012     A.U. after    7 cycles
 SCF Done:  E(RB3LYP) =  -622.322272037     A.U. after    7 cycles
 Optimization completed.
    -- Stationary point found.
 Normal termination of Gaussian 16 at Mon Dec 14 18:43:41 2020.

 --------------------------------------------------------------------
 #N Geom=AllCheck Guess=TCheck SCRF=Check GenChk RB3LYP/6-31G(d) Freq
 --------------------------------------------------------------------

 Structure from the checkpoint file:  "JID_3925.chk"
 -------------------------------
 CID_137202276_JID_3925_neutraal
 -------------------------------
 Charge =  0 Multiplicity = 1

 SCF Done:  E(RB3LYP) =  -622.322272037     A.U. after    1 cycles

  Exact polarizability: 144.776 -10.448  98.976   0.301   5.546  80.805
 Approx polarizability: 209.407 -25.524 154.893   0.904  17.314 126.375

                      1                      2                      3
                      A                      A                      A
 Frequencies --     46.2976                53.9135                59.1063
 Red. masses --      6.8729                 3.5500                 3.3487
 Frc consts  --      0.0087                 0.0061                 0.0069
 IR Inten    --      1.5830                 2.8667                 0.1204

                      4                      5                      6
                      A                      A                      A
 Frequencies --    110.5103               166.6973               192.8151
 Red. masses --      5.7126                 4.3762                 3.9779
 Frc consts  --      0.0411                 0.0716                 0.0871
 IR Inten    --      1.7231                 0.4222                 1.4075

                      7                      8                      9
                      A                      A                      A
 Frequencies --    219.3943               240.6050               259.9162
 Red. masses --      3.9970                 3.5695                 1.0924
 Frc consts  --      0.1134                 0.1217                 0.0435
 IR Inten    --      1.2633                 1.3519                49.6293

                     10                     11                     12
                      A                      A                      A
 Frequencies --    309.7428               427.3189               445.3490
 Red. masses --      4.6751                 3.5515                 5.7008
 Frc consts  --      0.2643                 0.3821                 0.6662
 IR Inten    --      0.9640                 5.4131                17.5700

                     13                     14                     15
                      A                      A                      A
 Frequencies --    460.5284               487.0993               546.9252
 Red. masses --      4.3918                 3.3112                 6.1667
 Frc consts  --      0.5488                 0.4629                 1.0868
 IR Inten    --     30.3229                 9.4832                 6.7102

                     16                     17                     18
                      A                      A                      A
 Frequencies --    632.0381               638.7450               676.7958
 Red. masses --      1.2617                 2.5902                 4.4987
 Frc consts  --      0.2969                 0.6226                 1.2141
 IR Inten    --     90.9527                23.9133                26.3129

                     19                     20                     21
                      A                      A                      A
 Frequencies --    743.3009               754.1939               771.3511
 Red. masses --      5.3663                 3.3485                 3.7726
 Frc consts  --      1.7468                 1.1222                 1.3225
 IR Inten    --     28.1510                61.5511                29.2718

                     22                     23                     24
                      A                      A                      A
 Frequencies --    800.6569               843.7705               903.0421
 Red. masses --      5.6736                 2.4298                 1.2510
 Frc consts  --      2.1429                 1.0192                 0.6011
 IR Inten    --      7.9483                36.9825                 0.5717

                     25                     26                     27
                      A                      A                      A
 Frequencies --    916.4255               946.3618               960.5054
 Red. masses --      2.8761                 2.0114                 2.1103
 Frc consts  --      1.4231                 1.0613                 1.1471
 IR Inten    --     65.3002                10.8673                52.6942

                     28                     29                     30
                      A                      A                      A
 Frequencies --    962.9053               995.2245              1015.7125
 Red. masses --      2.0403                 2.9396                 2.5078
 Frc consts  --      1.1146                 1.7154                 1.5244
 IR Inten    --     43.5900                 7.5448                 1.4766

                     31                     32                     33
                      A                      A                      A
 Frequencies --   1035.4246              1080.9489              1105.9385
 Red. masses --      3.9652                 2.3262                 3.1564
 Frc consts  --      2.5047                 1.6014                 2.2746
 IR Inten    --     15.8639                 3.9152                 2.7295

                     34                     35                     36
                      A                      A                      A
 Frequencies --   1121.9354              1135.2296              1177.6202
 Red. masses --      2.2915                 1.1923                 2.9800
 Frc consts  --      1.6995                 0.9053                 2.4348
 IR Inten    --     48.1313                 9.5285                27.8784

                     37                     38                     39
                      A                      A                      A
 Frequencies --   1185.2031              1202.1254              1222.4027
 Red. masses --      1.6948                 1.7263                 1.3797
 Frc consts  --      1.4026                 1.4698                 1.2147
 IR Inten    --     52.4104                 5.6052                21.5454

                     40                     41                     42
                      A                      A                      A
 Frequencies --   1285.4079              1293.3144              1304.2814
 Red. masses --      1.2436                 1.9230                 1.2586
 Frc consts  --      1.2107                 1.8952                 1.2615
 IR Inten    --      8.0077                29.4360                 6.1939

                     43                     44                     45
                      A                      A                      A
 Frequencies --   1311.9730              1360.9878              1393.3615
 Red. masses --      2.4002                 1.4469                 1.2765
 Frc consts  --      2.4341                 1.5791                 1.4602
 IR Inten    --    154.9309                 3.7660                 9.0511

                     46                     47                     48
                      A                      A                      A
 Frequencies --   1413.8607              1415.7584              1429.7465
 Red. masses --      1.3302                 1.2793                 1.3419
 Frc consts  --      1.5666                 1.5108                 1.6162
 IR Inten    --      3.8893                10.1080                28.4906

                     49                     50                     51
                      A                      A                      A
 Frequencies --   1473.1881              1525.9032              1549.2686
 Red. masses --      2.0959                 1.0818                 1.1091
 Frc consts  --      2.6800                 1.4840                 1.5685
 IR Inten    --    155.6991                 1.5396                 3.5796

                     52                     53                     54
                      A                      A                      A
 Frequencies --   1679.2244              1697.1444              1733.7622
 Red. masses --      5.4337                 1.1445                 8.9410
 Frc consts  --      9.0275                 1.9423                15.8349
 IR Inten    --    406.2694                50.4592                12.1463

                     55                     56                     57
                      A                      A                      A
 Frequencies --   1851.4685              3051.3195              3057.2206
 Red. masses --     10.0681                 1.0554                 1.0612
 Frc consts  --     20.3343                 5.7893                 5.8438
 IR Inten    --    325.1117               125.4762                 8.1701

                     58                     59                     60
                      A                      A                      A
 Frequencies --   3089.9025              3105.3969              3115.8098
 Red. masses --      1.0929                 1.1071                 1.1025
 Frc consts  --      6.1477                 6.2900                 6.3064
 IR Inten    --      3.7767                12.7530               117.4440

                     61                     62                     63
                      A                      A                      A
 Frequencies --   3151.6635              3172.7818              3453.7513
 Red. masses --      1.0871                 1.0921                 1.0497
 Frc consts  --      6.3619                 6.4771                 7.3774
 IR Inten    --      2.5671                19.5576                 0.4662

                     64                     65                     66
                      A                      A                      A
 Frequencies --   3503.2082              3542.9357              3591.5361
 Red. masses --      1.0762                 1.0921                 1.0782
 Frc consts  --      7.7815                 8.0771                 8.1940
 IR Inten    --      4.7039                 1.3762                53.1345

 - Thermochemistry -
 -------------------
 Temperature   298.150 Kelvin.  Pressure   1.00000 Atm.
 Atom     1 has atomic number  6 and mass  12.00000

 Molecular mass:   181.09636 amu.
 Principal axes and moments of inertia in atomic units:
                           1         2         3
     Eigenvalues --   986.433503751.983894084.89821
           X            0.99998   0.00068  -0.00629
           Y           -0.00079   0.99985  -0.01710
           Z            0.00628   0.01711   0.99983
 This molecule is an asymmetric top.
 Rotational symmetry number  1.
 Warning -- assumption of classical behavior for rotation
           may cause significant error
 Rotational temperatures (Kelvin)      0.08781     0.02308     0.02120
 Rotational constants (GHZ):           1.82956     0.48101     0.44181
 Zero-point vibrational energy     516836.1 (Joules/Mol)
                                  123.52680 (Kcal/Mol)
 Warning -- explicit consideration of  15 degrees of freedom as
           vibrations may cause significant error
 Vibrational temperatures:     66.61    77.57    85.04   159.00   239.84
          (Kelvin)            277.42   315.66   346.18   373.96   445.65
                              614.82   640.76   662.60   700.83   786.90
                              909.36   919.01   973.76  1069.44  1085.12
                             1109.80  1151.97  1214.00  1299.28  1318.53
                             1361.60  1381.95  1385.41  1431.91  1461.38
                             1489.75  1555.24  1591.20  1614.21  1633.34
                             1694.33  1705.24  1729.59  1758.76  1849.42
                             1860.79  1876.57  1887.64  1958.16  2004.74
                             2034.23  2036.96  2057.09  2119.59  2195.43
                             2229.05  2416.03  2441.81  2494.50  2663.85
                             4390.17  4398.66  4445.68  4467.97  4482.96
                             4534.54  4564.93  4969.18  5040.34  5097.49
                             5167.42

 Zero-point correction=                           0.196852 (Hartree/Particle)
 Thermal correction to Energy=                    0.208648
 Thermal correction to Enthalpy=                  0.209592
 Thermal correction to Gibbs Free Energy=         0.157862
 Sum of electronic and zero-point Energies=           -622.125420
 Sum of electronic and thermal Energies=              -622.113624
 Sum of electronic and thermal Enthalpies=            -622.112680
 Sum of electronic and thermal Free Energies=         -622.164410

                     E (Thermal)             CV                S
                      KCal/Mol        Cal/Mol-Kelvin    Cal/Mol-Kelvin
 Total                  130.929             44.015            108.875
 Electronic               0.000              0.000              0.000
 Translational            0.889              2.981             41.488
 Rotational               0.889              2.981             31.092
 Vibrational            129.151             38.053             36.294
 Vibration     1          0.595              1.979              4.970
 Vibration     2          0.596              1.976              4.668
 Vibration     3          0.596              1.974              4.487
 Vibration     4          0.606              1.941              3.260
 Vibration     5          0.624              1.883              2.472
 Vibration     6          0.635              1.850              2.201
 Vibration     7          0.647              1.812              1.964
 Vibration     8          0.658              1.778              1.798
 Vibration     9          0.668              1.746              1.662
 Vibration    10          0.699              1.655              1.364
 Vibration    11          0.789              1.411              0.867
 Vibration    12          0.805              1.371              0.810
 Vibration    13          0.818              1.338              0.765
 Vibration    14          0.843              1.279              0.691
 Vibration    15          0.902              1.146              0.551

 Optimization completed.
    -- Stationary point found.
 Normal termination of Gaussian 16 at Mon Dec 14 18:49:31 2020.

 ----------------------------------------------------------------------
 # B3LYP/6-311++G(d,p) empiricaldispersion=gd3bj scf=xqc pop=npa geom=c
 heck
 ----------------------------------------------------------------------

 ---------------------------------------
 CID_137202276_JID_3925_Energie_neutraal
 ---------------------------------------
 Structure from the checkpoint file:  "JID_3925.chk"
 Charge =  0 Multiplicity = 1

 SCF Done:  E(RB3LYP) =  -622.509669562     A.U. after   16 cycles
 Normal termination of Gaussian 16 at Mon Dec 14 18:52:05 2020.

 ----------------------------------------------------------------------
 # B3LYP/6-311++G(d,p) empiricaldispersion=gd3bj scf=xqc pop=npa geom=c
 heck
 ----------------------------------------------------------------------

 -------------------------------------
 CID_137202276_JID_3925_Energie_kation
 -------------------------------------
 Structure from the checkpoint file:  "JID_3925.chk"
 Charge =  1 Multiplicity = 2

 SCF Done:  E(UB3LYP) =  -622.209888946     A.U. after   25 cycles
 Normal termination of Gaussian 16 at Mon Dec 14 18:57:44 2020.
 Gaussian 16:  ES64L-G16RevA.03 25-Dec-2016

 ----------------------------------------------------------------------
 # B3LYP/6-311++G(d,p) empiricaldispersion=gd3bj scf=xqc pop=npa geom=c
 heck
 ----------------------------------------------------------------------

 ------------------------------------
 CID_137202276_JID_3925_Energie_anion
 ------------------------------------
 Structure from the checkpoint file:  "JID_3925.chk"
 Charge = -1 Multiplicity = 2

                         Standard orientation:
 ---------------------------------------------------------------------
 Center     Atomic      Atomic             Coordinates (Angstroms)
 Number     Number       Type             X           Y           Z
 ---------------------------------------------------------------------
      1          6           0        2.748567    0.596947   -1.020130
      2          6           0        2.219900   -0.787524   -0.540837
      3          6           0        2.886819   -0.445128    0.824545
      4          7           0        3.655513    0.635292    0.154995
      5          7           0        0.815815   -1.124993   -0.621578
      6          6           0       -0.105195   -0.394027   -0.127983
      7          6           0       -1.530381   -0.941014   -0.158354
      8          6           0       -2.562790    0.156113   -0.395474
      9          8           0       -3.623198    0.026692   -0.963830
     10          7           0       -2.185794    1.376311    0.181964
     11          6           0       -0.908089    1.624783    0.643724
     12          7           0        0.102714    0.838758    0.539544
     13          7           0       -1.898126   -1.617526    1.103463
     14          1           0        1.960258    1.356396   -1.018263
     15          1           0        3.267099    0.607677   -1.986024
     16          1           0        2.769084   -1.590956   -1.037637
     17          1           0        3.512394   -1.231917    1.262331
     18          1           0        2.157317   -0.099323    1.562866
     19          1           0        3.638232    1.520351    0.656455
     20          1           0       -1.618100   -1.667240   -0.966462
     21          1           0       -2.873216    2.120968    0.158923
     22          1           0       -0.784797    2.594296    1.125248
     23          1           0       -1.290250   -2.430664    1.199499
     24          1           0       -1.676274   -1.008931    1.892043
 ---------------------------------------------------------------------

 SCF Done:  E(UB3LYP) =  -622.534767128     A.U. after   26 cycles

 The electronic state is 2-A.
 Alpha  occ. eigenvalues --  -18.94532 -14.21446 -14.17186 -14.16582 -14.14039
 Alpha  occ. eigenvalues --  -14.12149 -10.11656 -10.07901 -10.06642 -10.06229
 Alpha  occ. eigenvalues --  -10.05987 -10.05665 -10.05625  -0.90414  -0.82880
 Alpha  occ. eigenvalues --   -0.80178  -0.76953  -0.74610  -0.71135  -0.59585
 Alpha  occ. eigenvalues --   -0.56046  -0.54373  -0.50917  -0.47248  -0.42408
 Alpha  occ. eigenvalues --   -0.41204  -0.39131  -0.36828  -0.35837  -0.33152
 Alpha  occ. eigenvalues --   -0.32762  -0.31232  -0.28635  -0.27751  -0.27281
 Alpha  occ. eigenvalues --   -0.26812  -0.26288  -0.24352  -0.22948  -0.21429
 Alpha  occ. eigenvalues --   -0.20842  -0.16880  -0.14096  -0.12007  -0.11189
 Alpha  occ. eigenvalues --   -0.11059  -0.10056  -0.08155   0.03812
 Alpha virt. eigenvalues --    0.08540   0.09413   0.10106   0.10550   0.11420
 Alpha virt. eigenvalues --    0.12465   0.12695   0.13427   0.14268   0.14677
 Alpha virt. eigenvalues --    0.15340   0.16088   0.17379   0.17506   0.17669

  Beta  occ. eigenvalues --  -18.94176 -14.21552 -14.17188 -14.16483 -14.13987
  Beta  occ. eigenvalues --  -14.11716 -10.11408 -10.07340 -10.06499 -10.06268
  Beta  occ. eigenvalues --  -10.06012 -10.05627 -10.05584  -0.89837  -0.82418
  Beta  occ. eigenvalues --   -0.80060  -0.76648  -0.74299  -0.70684  -0.59275
  Beta  occ. eigenvalues --   -0.55772  -0.54300  -0.50205  -0.46865  -0.42318
  Beta  occ. eigenvalues --   -0.40925  -0.39005  -0.36644  -0.35711  -0.32933
  Beta  occ. eigenvalues --   -0.32244  -0.30753  -0.28311  -0.27329  -0.26554
  Beta  occ. eigenvalues --   -0.26504  -0.26119  -0.24089  -0.21911  -0.21283
  Beta  occ. eigenvalues --   -0.19902  -0.16012  -0.13629  -0.11821  -0.10979
  Beta  occ. eigenvalues --   -0.10886  -0.08547  -0.07796
  Beta virt. eigenvalues --    0.08477   0.09359   0.10034   0.10067   0.10626
  Beta virt. eigenvalues --    0.11685   0.12427   0.12685   0.13430   0.14252
  Beta virt. eigenvalues --    0.14728   0.15496   0.17262   0.17460   0.17650

 Mulliken charges and spin densities:
               1          2
     1  C   -0.389121   0.004895
     2  C    0.061926  -0.015245
     3  C   -0.392321   0.019813
     4  N   -0.257023  -0.000241
     5  N   -0.062540   0.224745
     6  C    0.003430   0.034833
     7  C   -0.866743   0.097347
     8  C    0.050230   0.148818
     9  O   -0.413077   0.122734
    10  N   -0.199082  -0.063491
    11  C   -0.167617   0.438738
    12  N   -0.178273   0.004182
    13  N   -0.137214  -0.063972
    14  H    0.178971   0.003153
    15  H    0.108680   0.007210
    16  H    0.186718  -0.001464
    17  H    0.106830   0.014670
    18  H    0.164501  -0.009365
    19  H    0.199096   0.000239
    20  H    0.159382   0.048559
    21  H    0.294257   0.004335
    22  H    0.096780  -0.026144
    23  H    0.228473   0.004674
    24  H    0.223737   0.000977
 Sum of Mulliken charges =  -1.00000   1.00000

 Dipole moment (field-independent basis, Debye):
    X=              2.5016    Y=              2.5434    Z=              2.2514  Tot=              4.2185
 Quadrupole moment (field-independent basis, Debye-Ang):
   XX=           -132.1959   YY=            -84.1838   ZZ=            -86.5551
   XY=             -6.7076   XZ=             -4.3362   YZ=             -0.8881

 Summary of Natural Population Analysis:

                                       Natural Population
                Natural  -----------------------------------------------
    Atom  No    Charge         Core      Valence    Rydberg      Total
 -----------------------------------------------------------------------
      C    1   -0.08137      0.99965     2.07278    0.00894     3.08137
      C    2   -0.02302      0.99959     2.00950    0.01394     3.02302
      C    3   -0.08375      0.99965     2.07505    0.00905     3.08375
      N    4   -0.35639      0.99977     2.84238    0.01424     3.85639
      N    5   -0.20433      0.99962     2.69298    0.01173     3.70433
      C    6    0.22257      0.99955     1.75559    0.02230     2.77743
      C    7   -0.07784      0.99952     2.06416    0.01416     3.07784
      C    8    0.38055      0.99967     1.59490    0.02489     2.61945
      O    9   -0.27864      0.99987     3.27195    0.00682     4.27864
      N   10   -0.34265      0.99967     2.83200    0.01098     3.84265
      C   11    0.25090      0.99967     1.73153    0.01790     2.74910
      N   12   -0.30969      0.99967     2.79708    0.01294     3.80969
      N   13   -0.40419      0.99977     2.89585    0.00857     3.90419
      H   14    0.09599      0.00000     0.40200    0.00201     0.40401
      H   15    0.07612      0.00000     0.42236    0.00151     0.42388
      H   16    0.08424      0.00000     0.41432    0.00144     0.41576
      H   17    0.07583      0.00000     0.42265    0.00151     0.42417
      H   18    0.09747      0.00000     0.40134    0.00119     0.40253
      H   19    0.16842      0.00000     0.33021    0.00137     0.33158
      H   20    0.10882      0.00000     0.38888    0.00230     0.39118
      H   21    0.19302      0.00000     0.30508    0.00190     0.30698
      H   22    0.06546      0.00000     0.43312    0.00142     0.43454
      H   23    0.17244      0.00000     0.32582    0.00174     0.32756
      H   24    0.17004      0.00000     0.32834    0.00161     0.32996
 =======================================================================
   * Total *   -0.00000     12.99566    34.80987    0.19446    48.00000

 Normal termination of Gaussian 16 at Mon Dec 14 19:03:30 2020.
