 Gaussian 16, Revision A.03,

 -----------------------------------------------------------
 # opt freq B3LYP/6-31G(d) empiricaldispersion=gd3bj scf=xqc
 -----------------------------------------------------------

 ------------------------------
 CID_81925100_JID_5390_neutraal
 ------------------------------
 Symbolic Z-matrix:
 Charge =  0 Multiplicity = 1

 SCF Done:  E(RB3LYP) =  -600.917377332     A.U. after   13 cycles
 SCF Done:  E(RB3LYP) =  -600.922182303     A.U. after   11 cycles
 SCF Done:  E(RB3LYP) =  -600.922897434     A.U. after   11 cycles
 SCF Done:  E(RB3LYP) =  -600.923030396     A.U. after   11 cycles
 SCF Done:  E(RB3LYP) =  -600.924189718     A.U. after   11 cycles
 SCF Done:  E(RB3LYP) =  -600.924976932     A.U. after   11 cycles
 SCF Done:  E(RB3LYP) =  -600.926266414     A.U. after   12 cycles
 SCF Done:  E(RB3LYP) =  -600.926712187     A.U. after   12 cycles
 SCF Done:  E(RB3LYP) =  -600.927009323     A.U. after   11 cycles
 SCF Done:  E(RB3LYP) =  -600.927233975     A.U. after   11 cycles
 SCF Done:  E(RB3LYP) =  -600.927265206     A.U. after    8 cycles
 SCF Done:  E(RB3LYP) =  -600.927265491     A.U. after    8 cycles
 SCF Done:  E(RB3LYP) =  -600.927265912     A.U. after    8 cycles
 SCF Done:  E(RB3LYP) =  -600.927265956     A.U. after    6 cycles
 Optimization completed.
    -- Stationary point found.
 Normal termination of Gaussian 16 at Thu Dec 10 15:53:25 2020.

 --------------------------------------------------------------------
 #N Geom=AllCheck Guess=TCheck SCRF=Check GenChk RB3LYP/6-31G(d) Freq
 --------------------------------------------------------------------

 Structure from the checkpoint file:  "JID_5390.chk"
 ------------------------------
 CID_81925100_JID_5390_neutraal
 ------------------------------
 Charge =  0 Multiplicity = 1

 SCF Done:  E(RB3LYP) =  -600.927265956     A.U. after    1 cycles

  Exact polarizability: 184.383  -2.036 154.813  -9.085  -7.207 104.952
 Approx polarizability: 248.845  -3.398 244.240 -18.868 -16.617 160.840

                      1                      2                      3
                      A                      A                      A
 Frequencies --     28.1023                60.3537                90.2646
 Red. masses --      3.6054                 3.4801                 3.4363
 Frc consts  --      0.0017                 0.0075                 0.0165
 IR Inten    --      0.0225                 0.9450                 0.6276

                      4                      5                      6
                      A                      A                      A
 Frequencies --    101.1221               121.1799               156.3112
 Red. masses --      2.0367                 2.1744                 1.2383
 Frc consts  --      0.0123                 0.0188                 0.0178
 IR Inten    --      2.1228                 0.4951                 0.0602

                      7                      8                      9
                      A                      A                      A
 Frequencies --    157.5815               172.9550               183.5485
 Red. masses --      2.4073                 1.3181                 2.1272
 Frc consts  --      0.0352                 0.0232                 0.0422
 IR Inten    --      0.0546                 0.1696                 0.8691

                     10                     11                     12
                      A                      A                      A
 Frequencies --    236.4150               242.8978               271.4013
 Red. masses --      2.8838                 1.6774                 1.7550
 Frc consts  --      0.0950                 0.0583                 0.0762
 IR Inten    --      0.0165                 0.9373                 2.6070

                     13                     14                     15
                      A                      A                      A
 Frequencies --    282.6182               299.8047               338.2822
 Red. masses --      2.4898                 3.0502                 2.8697
 Frc consts  --      0.1172                 0.1615                 0.1935
 IR Inten    --      0.2878                 3.5413                 0.8601

                     16                     17                     18
                      A                      A                      A
 Frequencies --    355.6869               391.5362               436.1256
 Red. masses --      2.3321                 2.3638                 2.4887
 Frc consts  --      0.1738                 0.2135                 0.2789
 IR Inten    --      1.0525                 1.2527                 4.2866

                     19                     20                     21
                      A                      A                      A
 Frequencies --    466.5746               495.9802               508.7298
 Red. masses --      2.4413                 3.4591                 4.2312
 Frc consts  --      0.3131                 0.5014                 0.6452
 IR Inten    --      0.2504                 0.2531                 1.4579

                     22                     23                     24
                      A                      A                      A
 Frequencies --    526.0800               550.5859               583.4786
 Red. masses --      3.3528                 4.6059                 3.5717
 Frc consts  --      0.5467                 0.8226                 0.7164
 IR Inten    --      0.1925                 0.9730                 0.0872

                     25                     26                     27
                      A                      A                      A
 Frequencies --    689.8875               734.3939               775.2336
 Red. masses --      3.9625                 3.6739                 4.2132
 Frc consts  --      1.1112                 1.1675                 1.4918
 IR Inten    --      0.4351                 1.8553                 2.8619

                     28                     29                     30
                      A                      A                      A
 Frequencies --    786.6970               808.3274               812.0286
 Red. masses --      1.2221                 1.1065                 1.2330
 Frc consts  --      0.4456                 0.4260                 0.4790
 IR Inten    --     28.4994                20.5753                72.8425

                     31                     32                     33
                      A                      A                      A
 Frequencies --    852.9496               856.2114               902.6600
 Red. masses --      2.9207                 2.7413                 1.3218
 Frc consts  --      1.2519                 1.1841                 0.6346
 IR Inten    --      2.5667                 3.8014                 0.0575

                     34                     35                     36
                      A                      A                      A
 Frequencies --    909.3000               929.8290               954.7066
 Red. masses --      2.7709                 1.4565                 1.7793
 Frc consts  --      1.3499                 0.7419                 0.9555
 IR Inten    --      0.4503                 0.8780                 6.1195

                     37                     38                     39
                      A                      A                      A
 Frequencies --    966.5433               973.5711              1009.5568
 Red. masses --      1.2806                 2.0330                 1.5834
 Frc consts  --      0.7049                 1.1353                 0.9508
 IR Inten    --      0.5553                 2.9287                 7.5504

                     40                     41                     42
                      A                      A                      A
 Frequencies --   1024.8597              1025.8861              1043.0548
 Red. masses --      1.5816                 1.5729                 1.7368
 Frc consts  --      0.9787                 0.9753                 1.1133
 IR Inten    --      4.5150                 4.0339                 9.8247

                     43                     44                     45
                      A                      A                      A
 Frequencies --   1064.2501              1076.3311              1077.5859
 Red. masses --      1.5125                 1.5006                 1.5374
 Frc consts  --      1.0094                 1.0243                 1.0518
 IR Inten    --     15.4044                 2.0525                 0.7856

                     46                     47                     48
                      A                      A                      A
 Frequencies --   1083.5976              1098.3313              1131.2340
 Red. masses --      1.9052                 1.4545                 1.8036
 Frc consts  --      1.3181                 1.0338                 1.3599
 IR Inten    --      0.4746                 1.1202                 6.8676

                     49                     50                     51
                      A                      A                      A
 Frequencies --   1146.3041              1168.0182              1198.9316
 Red. masses --      1.9460                 1.8089                 1.5564
 Frc consts  --      1.5065                 1.4540                 1.3181
 IR Inten    --     14.7132                42.3913                 7.3204

                     52                     53                     54
                      A                      A                      A
 Frequencies --   1201.3138              1213.8180              1219.7550
 Red. masses --      1.2009                 1.4212                 3.1775
 Frc consts  --      1.0211                 1.2337                 2.7853
 IR Inten    --      0.4861                 2.3095                 1.3512

                     55                     56                     57
                      A                      A                      A
 Frequencies --   1250.3577              1270.2956              1283.2103
 Red. masses --      1.4803                 1.7758                 2.1471
 Frc consts  --      1.3635                 1.6883                 2.0831
 IR Inten    --      2.6202                 0.8779                 5.0854

                     58                     59                     60
                      A                      A                      A
 Frequencies --   1286.1824              1303.1135              1357.8813
 Red. masses --      2.5043                 1.6052                 2.9896
 Frc consts  --      2.4409                 1.6060                 3.2478
 IR Inten    --      1.4991                 3.0307                 0.8038

                     61                     62                     63
                      A                      A                      A
 Frequencies --   1359.7531              1384.4257              1420.1312
 Red. masses --      2.2958                 1.4132                 1.6393
 Frc consts  --      2.5009                 1.5958                 1.9478
 IR Inten    --     10.5013                13.1137                12.0867

                     64                     65                     66
                      A                      A                      A
 Frequencies --   1444.7380              1447.5802              1483.3388
 Red. masses --      1.2308                 1.2537                 1.2101
 Frc consts  --      1.5137                 1.5478                 1.5687
 IR Inten    --      2.0726                 0.9340                 2.2170

                     67                     68                     69
                      A                      A                      A
 Frequencies --   1484.9572              1487.1972              1502.7626
 Red. masses --      1.8735                 1.1330                 1.2409
 Frc consts  --      2.4340                 1.4764                 1.6510
 IR Inten    --      1.2697                 1.7826                28.4113

                     70                     71                     72
                      A                      A                      A
 Frequencies --   1510.7402              1517.6882              1518.8268
 Red. masses --      1.6906                 1.0551                 1.0638
 Frc consts  --      2.2734                 1.4318                 1.4458
 IR Inten    --      1.5392                 6.4255                10.2653

                     73                     74                     75
                      A                      A                      A
 Frequencies --   1519.2508              1528.5657              1533.8438
 Red. masses --      1.0881                 1.3140                 1.3028
 Frc consts  --      1.4797                 1.8088                 1.8059
 IR Inten    --      1.5275                 9.7132                12.9439

                     76                     77                     78
                      A                      A                      A
 Frequencies --   1535.9069              1539.6045              1547.1221
 Red. masses --      1.2220                 1.1428                 1.0658
 Frc consts  --      1.6985                 1.5960                 1.5031
 IR Inten    --      5.7010                19.0170                 5.4106

                     79                     80                     81
                      A                      A                      A
 Frequencies --   1554.0103              1644.7591              1657.9853
 Red. masses --      1.0896                 6.5218                 5.3596
 Frc consts  --      1.5503                10.3950                 8.6805
 IR Inten    --      1.2582                 2.9376                 0.8081

                     82                     83                     84
                      A                      A                      A
 Frequencies --   2922.5260              2948.3801              3036.4522
 Red. masses --      1.0733                 1.0617                 1.0864
 Frc consts  --      5.4010                 5.4376                 5.9017
 IR Inten    --     65.6151               140.0753                29.1991

                     85                     86                     87
                      A                      A                      A
 Frequencies --   3044.7622              3046.9095              3062.4430
 Red. masses --      1.0431                 1.0417                 1.0657
 Frc consts  --      5.6974                 5.6979                 5.8886
 IR Inten    --     24.6265                21.1696                39.2653

                     88                     89                     90
                      A                      A                      A
 Frequencies --   3072.5100              3104.2460              3104.8154
 Red. masses --      1.0723                 1.0927                 1.0938
 Frc consts  --      5.9641                 6.2040                 6.2124
 IR Inten    --     47.5918                12.5938                18.6198

                     91                     92                     93
                      A                      A                      A
 Frequencies --   3110.0894              3119.8408              3131.8270
 Red. masses --      1.0957                 1.1024                 1.1020
 Frc consts  --      6.2446                 6.3219                 6.3685
 IR Inten    --     15.0795                32.9049                19.2285

                     94                     95                     96
                      A                      A                      A
 Frequencies --   3132.4810              3142.0012              3150.1861
 Red. masses --      1.1021                 1.0563                 1.0578
 Frc consts  --      6.3716                 6.1440                 6.1845
 IR Inten    --     22.3979                16.9690                17.9135

                     97                     98                     99
                      A                      A                      A
 Frequencies --   3174.1234              3181.9613              3201.6272
 Red. masses --      1.0855                 1.0904                 1.0965
 Frc consts  --      6.4434                 6.5049                 6.6224
 IR Inten    --      0.4585                32.2056                36.9971

                    100                    101                    102
                      A                      A                      A
 Frequencies --   3228.3678              3240.0562              3486.0996
 Red. masses --      1.1147                 1.1138                 1.0736
 Frc consts  --      6.8447                 6.8890                 7.6871
 IR Inten    --      0.2994                18.4929                 0.7921

 - Thermochemistry -
 -------------------
 Temperature   298.150 Kelvin.  Pressure   1.00000 Atm.
 Atom     1 has atomic number  6 and mass  12.00000

 Molecular mass:   203.16740 amu.
 Principal axes and moments of inertia in atomic units:
                           1         2         3
     Eigenvalues --  1695.805454892.250615609.77474
           X            0.99997  -0.00705  -0.00311
           Y            0.00700   0.99987  -0.01484
           Z            0.00321   0.01482   0.99989
 This molecule is an asymmetric top.
 Rotational symmetry number  1.
 Warning -- assumption of classical behavior for rotation
           may cause significant error
 Rotational temperatures (Kelvin)      0.05108     0.01770     0.01544
 Rotational constants (GHZ):           1.06424     0.36890     0.32171
 Zero-point vibrational energy     848204.5 (Joules/Mol)
                                  202.72574 (Kcal/Mol)
 Warning -- explicit consideration of  24 degrees of freedom as
           vibrations may cause significant error
 Vibrational temperatures:     40.43    86.84   129.87   145.49   174.35
          (Kelvin)            224.90   226.72   248.84   264.09   340.15
                              349.48   390.49   406.62   431.35   486.71
                              511.75   563.33   627.49   671.30   713.60
                              731.95   756.91   792.17   839.50   992.59
                             1056.63  1115.39  1131.88  1163.00  1168.33
                             1227.20  1231.90  1298.73  1308.28  1337.82
                             1373.61  1390.64  1400.75  1452.53  1474.54
                             1476.02  1500.72  1531.22  1548.60  1550.41
                             1559.06  1580.25  1627.59  1649.28  1680.52
                             1725.00  1728.42  1746.41  1754.96  1798.99
                             1827.67  1846.25  1850.53  1874.89  1953.69
                             1956.38  1991.88  2043.25  2078.66  2082.75
                             2134.19  2136.52  2139.75  2162.14  2173.62
                             2183.61  2185.25  2185.86  2199.27  2206.86
                             2209.83  2215.15  2225.96  2235.87  2366.44
                             2385.47  4204.86  4242.06  4368.78  4380.73
                             4383.82  4406.17  4420.66  4466.32  4467.14
                             4474.72  4488.76  4506.00  4506.94  4520.64
                             4532.42  4566.86  4578.13  4606.43  4644.90
                             4661.72  5015.72

 Zero-point correction=                           0.323064 (Hartree/Particle)
 Thermal correction to Energy=                    0.338645
 Thermal correction to Enthalpy=                  0.339589
 Thermal correction to Gibbs Free Energy=         0.280493
 Sum of electronic and zero-point Energies=           -600.604202
 Sum of electronic and thermal Energies=              -600.588621
 Sum of electronic and thermal Enthalpies=            -600.587677
 Sum of electronic and thermal Free Energies=         -600.646773

                     E (Thermal)             CV                S
                      KCal/Mol        Cal/Mol-Kelvin    Cal/Mol-Kelvin
 Total                  212.503             60.189            124.378
 Electronic               0.000              0.000              0.000
 Translational            0.889              2.981             41.831
 Rotational               0.889              2.981             32.209
 Vibrational            210.725             54.228             50.337
 Vibration     1          0.593              1.984              5.959
 Vibration     2          0.597              1.973              4.446
 Vibration     3          0.602              1.956              3.654
 Vibration     4          0.604              1.948              3.433
 Vibration     5          0.609              1.932              3.081
 Vibration     6          0.620              1.896              2.594
 Vibration     7          0.621              1.894              2.579
 Vibration     8          0.626              1.876              2.403
 Vibration     9          0.631              1.862              2.292
 Vibration    10          0.655              1.785              1.830
 Vibration    11          0.659              1.774              1.782
 Vibration    12          0.675              1.726              1.587
 Vibration    13          0.682              1.706              1.518
 Vibration    14          0.692              1.674              1.418
 Vibration    15          0.719              1.599              1.220
 Vibration    16          0.731              1.564              1.141
 Vibration    17          0.759              1.488              0.994
 Vibration    18          0.797              1.391              0.839
 Vibration    19          0.824              1.324              0.747
 Vibration    20          0.852              1.259              0.668
 Vibration    21          0.864              1.231              0.637
 Vibration    22          0.881              1.192              0.596
 Vibration    23          0.906              1.138              0.543
 Vibration    24          0.940              1.067              0.479

 Optimization completed.
    -- Stationary point found.
 Normal termination of Gaussian 16 at Thu Dec 10 16:06:27 2020.

 ----------------------------------------------------------------------
 # B3LYP/6-311++G(d,p) empiricaldispersion=gd3bj scf=xqc pop=npa geom=c
 heck
 ----------------------------------------------------------------------

 --------------------------------------
 CID_81925100_JID_5390_Energie_neutraal
 --------------------------------------
 Structure from the checkpoint file:  "JID_5390.chk"
 Charge =  0 Multiplicity = 1

 SCF Done:  E(RB3LYP) =  -601.088206605     A.U. after   13 cycles
 Normal termination of Gaussian 16 at Thu Dec 10 16:13:26 2020.

 ----------------------------------------------------------------------
 # B3LYP/6-311++G(d,p) empiricaldispersion=gd3bj scf=xqc pop=npa geom=c
 heck
 ----------------------------------------------------------------------

 ------------------------------------
 CID_81925100_JID_5390_Energie_kation
 ------------------------------------
 Structure from the checkpoint file:  "JID_5390.chk"
 Charge =  1 Multiplicity = 2

 SCF Done:  E(UB3LYP) =  -600.800173497     A.U. after   33 cycles
 SCF Done:  E(UB3LYP) =  -600.800173497     a.u. after    1 cycles
 Normal termination of Gaussian 16 at Thu Dec 10 16:36:25 2020.
 Gaussian 16:  ES64L-G16RevA.03 25-Dec-2016

 ----------------------------------------------------------------------
 # B3LYP/6-311++G(d,p) empiricaldispersion=gd3bj scf=xqc pop=npa geom=c
 heck
 ----------------------------------------------------------------------

 -----------------------------------
 CID_81925100_JID_5390_Energie_anion
 -----------------------------------
 Structure from the checkpoint file:  "JID_5390.chk"
 Charge = -1 Multiplicity = 2

                         Standard orientation:
 ---------------------------------------------------------------------
 Center     Atomic      Atomic             Coordinates (Angstroms)
 Number     Number       Type             X           Y           Z
 ---------------------------------------------------------------------
      1          6           0       -1.677717    2.393996   -0.907421
      2          6           0       -2.028194    0.986288   -0.477003
      3          6           0       -1.063120   -0.042402   -0.459666
      4          6           0       -1.452387   -1.360165   -0.137558
      5          6           0       -2.783454   -1.620327    0.204910
      6          6           0       -3.730921   -0.600662    0.218009
      7          6           0       -3.351897    0.692096   -0.131086
      8          6           0       -0.466577   -2.505437   -0.196080
      9          6           0        0.384605    0.256275   -0.769481
     10          6           0        1.268830    0.574219    0.445908
     11          6           0        0.766396    1.454066    1.563369
     12          6           0        0.982903   -0.017724    1.811028
     13          6           0        2.735972    0.707561    0.079035
     14          7           0        3.266962   -0.557852   -0.418859
     15          6           0        4.678239   -0.485966   -0.770286
     16          1           0       -0.833884    2.808145   -0.347290
     17          1           0       -1.400754    2.427569   -1.969188
     18          1           0       -2.532652    3.062916   -0.770503
     19          1           0       -3.076183   -2.636446    0.457644
     20          1           0       -4.761166   -0.814315    0.489270
     21          1           0       -4.091037    1.489326   -0.141638
     22          1           0       -0.137537   -2.693623   -1.226160
     23          1           0        0.436126   -2.308593    0.390105
     24          1           0       -0.921438   -3.427148    0.179102
     25          1           0        0.847545   -0.587423   -1.288595
     26          1           0        0.455211    1.106120   -1.458072
     27          1           0        1.457299    2.165835    2.007982
     28          1           0       -0.264164    1.790951    1.525760
     29          1           0        0.095959   -0.629187    1.938379
     30          1           0        1.829886   -0.317930    2.424066
     31          1           0        2.852315    1.454795   -0.719241
     32          1           0        3.300810    1.092091    0.951368
     33          1           0        3.130056   -1.265654    0.300952
     34          1           0        5.331677   -0.119954    0.044567
     35          1           0        5.032245   -1.475764   -1.076192
     36          1           0        4.804883    0.192349   -1.622383
 ---------------------------------------------------------------------

 SCF Done:  E(UB3LYP) =  -601.072010682     A.U. after   33 cycles
 SCF Done:  E(UB3LYP) =  -601.072010682     a.u. after    1 cycles

 The electronic state is 2-A.
 Alpha  occ. eigenvalues --  -14.19855 -10.09478 -10.09160 -10.08900 -10.08824
 Alpha  occ. eigenvalues --  -10.08603 -10.08373 -10.07906 -10.07611 -10.07597
 Alpha  occ. eigenvalues --  -10.07492 -10.07323 -10.07210 -10.07208 -10.07167
 Alpha  occ. eigenvalues --   -0.81182  -0.77626  -0.75968  -0.69069  -0.68157
 Alpha  occ. eigenvalues --   -0.63017  -0.61085  -0.58760  -0.57859  -0.53935
 Alpha  occ. eigenvalues --   -0.50649  -0.49163  -0.48159  -0.44777  -0.40924
 Alpha  occ. eigenvalues --   -0.40524  -0.39175  -0.37577  -0.36417  -0.34885
 Alpha  occ. eigenvalues --   -0.34149  -0.32989  -0.32372  -0.31569  -0.31310
 Alpha  occ. eigenvalues --   -0.30967  -0.30538  -0.29801  -0.28779  -0.28146
 Alpha  occ. eigenvalues --   -0.27121  -0.26562  -0.26224  -0.25037  -0.24399
 Alpha  occ. eigenvalues --   -0.23075  -0.19702  -0.18334  -0.14982  -0.14884
 Alpha  occ. eigenvalues --   -0.12990   0.04336
 Alpha virt. eigenvalues --    0.05789   0.06409   0.07504   0.07545   0.07818
 Alpha virt. eigenvalues --    0.07897   0.08076   0.09185   0.09724   0.09906
 Alpha virt. eigenvalues --    0.10207   0.10431   0.11502   0.11778   0.12243

  Beta  occ. eigenvalues --  -14.19838 -10.09461 -10.09157 -10.08899 -10.08824
  Beta  occ. eigenvalues --  -10.08563 -10.08368 -10.07897 -10.07602 -10.07587
  Beta  occ. eigenvalues --  -10.07472 -10.07314 -10.07200 -10.07191 -10.07151
  Beta  occ. eigenvalues --   -0.81158  -0.77613  -0.75954  -0.69054  -0.68140
  Beta  occ. eigenvalues --   -0.62991  -0.61044  -0.58731  -0.57825  -0.53856
  Beta  occ. eigenvalues --   -0.50602  -0.49135  -0.48130  -0.44742  -0.40897
  Beta  occ. eigenvalues --   -0.40489  -0.39162  -0.37541  -0.36379  -0.34836
  Beta  occ. eigenvalues --   -0.34118  -0.32962  -0.32353  -0.31536  -0.31286
  Beta  occ. eigenvalues --   -0.30935  -0.30515  -0.29780  -0.28752  -0.28121
  Beta  occ. eigenvalues --   -0.27082  -0.26534  -0.26202  -0.25020  -0.24379
  Beta  occ. eigenvalues --   -0.23056  -0.19678  -0.18320  -0.14969  -0.14869
  Beta  occ. eigenvalues --   -0.12951
  Beta virt. eigenvalues --    0.06235   0.06808   0.06989   0.07776   0.07995
  Beta virt. eigenvalues --    0.08077   0.08156   0.08502   0.09560   0.10112
  Beta virt. eigenvalues --    0.10341   0.10468   0.10702   0.11896   0.12102

 Mulliken charges and spin densities:
               1          2
     1  C    0.908834  -1.603667
     2  C   -0.542576   0.960545
     3  C   -0.128238   0.528741
     4  C   -0.760497   1.261082
     5  C    0.268667  -0.766878
     6  C    0.312295  -0.658626
     7  C    0.119864  -0.625118
     8  C    0.499239  -1.223519
     9  C   -1.021968   0.806825
    10  C   -0.560780   1.430936
    11  C    0.031621  -0.760496
    12  C    0.025805  -0.661605
    13  C    0.784112  -1.552286
    14  N   -0.269782   0.256570
    15  C    1.057073  -1.394226
    16  H   -0.081217   0.238624
    17  H    0.005963   0.177100
    18  H   -0.199924   0.339714
    19  H   -0.106565   0.250359
    20  H   -0.375097   0.536189
    21  H   -0.262649   0.408118
    22  H    0.055833   0.128911
    23  H   -0.045220   0.212229
    24  H   -0.152784   0.291347
    25  H    0.239979  -0.026044
    26  H    0.003816   0.174421
    27  H   -0.135503   0.295049
    28  H    0.312780  -0.198307
    29  H    0.267952  -0.133626
    30  H   -0.356237   0.534118
    31  H    0.040595   0.102121
    32  H    0.011204   0.120499
    33  H    0.013446   0.196515
    34  H   -0.465150   0.591427
    35  H   -0.267353   0.398216
    36  H   -0.227537   0.364742
 Sum of Mulliken charges =  -1.00000   1.00000

 Dipole moment (field-independent basis, Debye):
    X=             -3.6601    Y=              0.6136    Z=             -0.4361  Tot=              3.7367
 Quadrupole moment (field-independent basis, Debye-Ang):
   XX=           -194.0076   YY=           -138.3186   ZZ=           -129.8111
   XY=              5.9104   XZ=             -2.2674   YZ=              1.5770

 Summary of Natural Population Analysis:

                                       Natural Population
                Natural  -----------------------------------------------
    Atom  No    Charge         Core      Valence    Rydberg      Total
 -----------------------------------------------------------------------
      C    1   -0.29663      0.99963     2.29141    0.00559     3.29663
      C    2   -0.01329      0.99947     2.00428    0.00954     3.01329
      C    3   -0.01260      0.99943     2.00222    0.01094     3.01260
      C    4   -0.01143      0.99947     2.00268    0.00927     3.01143
      C    5   -0.11820      0.99953     2.10390    0.01478     3.11820
      C    6   -0.06711      0.99956     2.06065    0.00690     3.06711
      C    7   -0.11771      0.99953     2.10323    0.01495     3.11771
      C    8   -0.29672      0.99963     2.29135    0.00574     3.29672
      C    9   -0.20137      0.99956     2.19239    0.00942     3.20137
      C   10   -0.04242      0.99955     2.02942    0.01345     3.04242
      C   11   -0.19751      0.99958     2.18922    0.00872     3.19751
      C   12   -0.20082      0.99958     2.19192    0.00932     3.20082
      C   13   -0.07864      0.99956     2.06703    0.01205     3.07864
      N   14   -0.33823      0.99974     2.82730    0.01118     3.83823
      C   15   -0.17687      0.99967     2.16868    0.00852     3.17687
      H   16    0.10588      0.00000     0.39300    0.00112     0.39412
      H   17    0.10474      0.00000     0.39429    0.00096     0.39526
      H   18    0.10260      0.00000     0.39645    0.00095     0.39740
      H   19    0.09841      0.00000     0.40064    0.00095     0.40159
      H   20    0.09587      0.00000     0.40288    0.00125     0.40413
      H   21    0.09890      0.00000     0.40006    0.00104     0.40110
      H   22    0.10558      0.00000     0.39339    0.00103     0.39442
      H   23    0.10803      0.00000     0.39057    0.00140     0.39197
      H   24    0.10139      0.00000     0.39771    0.00089     0.39861
      H   25    0.11558      0.00000     0.38227    0.00214     0.38442
      H   26    0.10398      0.00000     0.39468    0.00134     0.39602
      H   27    0.10210      0.00000     0.39693    0.00098     0.39790
      H   28    0.10528      0.00000     0.39357    0.00115     0.39472
      H   29    0.10738      0.00000     0.39138    0.00124     0.39262
      H   30    0.10345      0.00000     0.39532    0.00123     0.39655
      H   31    0.09175      0.00000     0.40684    0.00141     0.40825
      H   32    0.08267      0.00000     0.41530    0.00204     0.41733
      H   33    0.17099      0.00000     0.32487    0.00414     0.32901
      H   34    0.08009      0.00000     0.41775    0.00216     0.41991
      H   35    0.09543      0.00000     0.40346    0.00111     0.40457
      H   36    0.08986      0.00000     0.40883    0.00132     0.41014
 =======================================================================
   * Total *    0.00041     14.99349    40.82587    0.18023    55.99959

 Normal termination of Gaussian 16 at Thu Dec 10 16:58:28 2020.
