 Gaussian 16, Revision A.03,

 -----------------------------------------------------------
 # opt freq B3LYP/6-31G(d) empiricaldispersion=gd3bj scf=xqc
 -----------------------------------------------------------

 -------------------------------
 CID_149615465_JID_6697_neutraal
 -------------------------------
 Symbolic Z-matrix:
 Charge =  0 Multiplicity = 1

 SCF Done:  E(RB3LYP) =  -688.312813123     A.U. after   17 cycles
 SCF Done:  E(RB3LYP) =  -688.317099383     A.U. after   13 cycles
 SCF Done:  E(RB3LYP) =  -688.319741544     A.U. after   15 cycles
 SCF Done:  E(RB3LYP) =  -688.321329351     A.U. after   12 cycles
 SCF Done:  E(RB3LYP) =  -688.321625857     A.U. after   14 cycles
 SCF Done:  E(RB3LYP) =  -688.321834066     A.U. after   12 cycles
 SCF Done:  E(RB3LYP) =  -688.322025782     A.U. after   12 cycles
 SCF Done:  E(RB3LYP) =  -688.322080547     A.U. after   12 cycles
 SCF Done:  E(RB3LYP) =  -688.322109155     A.U. after   11 cycles
 SCF Done:  E(RB3LYP) =  -688.322114954     A.U. after   10 cycles
 SCF Done:  E(RB3LYP) =  -688.322122398     A.U. after   10 cycles
 SCF Done:  E(RB3LYP) =  -688.322127972     A.U. after   12 cycles
 SCF Done:  E(RB3LYP) =  -688.322132830     A.U. after   10 cycles
 SCF Done:  E(RB3LYP) =  -688.322134682     A.U. after   10 cycles
 SCF Done:  E(RB3LYP) =  -688.322134854     A.U. after    8 cycles
 Optimization completed.
    -- Stationary point found.
 Normal termination of Gaussian 16 at Thu Dec 10 22:47:32 2020.

 --------------------------------------------------------------------
 #N Geom=AllCheck Guess=TCheck SCRF=Check GenChk RB3LYP/6-31G(d) Freq
 --------------------------------------------------------------------

 Structure from the checkpoint file:  "JID_6697.chk"
 -------------------------------
 CID_149615465_JID_6697_neutraal
 -------------------------------
 Charge =  0 Multiplicity = 1

 SCF Done:  E(RB3LYP) =  -688.322134854     A.U. after    1 cycles

  Exact polarizability: 165.407  16.762 162.119   6.195  -4.761 113.289
 Approx polarizability: 208.934  38.159 280.699   6.549 -23.778 178.125

                      1                      2                      3
                      A                      A                      A
 Frequencies --     19.7688                33.6229                43.9516
 Red. masses --      6.1515                 6.7595                 4.0193
 Frc consts  --      0.0014                 0.0045                 0.0046
 IR Inten    --      0.3003                 0.5009                 0.9526

                      4                      5                      6
                      A                      A                      A
 Frequencies --     55.2464                88.2525               144.3115
 Red. masses --      5.1747                 3.2931                 4.4527
 Frc consts  --      0.0093                 0.0151                 0.0546
 IR Inten    --      2.0583                 0.3544                 0.0952

                      7                      8                      9
                      A                      A                      A
 Frequencies --    162.9207               176.8872               196.6864
 Red. masses --      2.2976                 3.1113                 2.8686
 Frc consts  --      0.0359                 0.0574                 0.0654
 IR Inten    --      3.5595                 3.2332                 0.4727

                     10                     11                     12
                      A                      A                      A
 Frequencies --    226.3178               250.8095               273.4693
 Red. masses --      1.5779                 2.1344                 2.3882
 Frc consts  --      0.0476                 0.0791                 0.1052
 IR Inten    --      0.9565                 4.6062                 0.3481

                     13                     14                     15
                      A                      A                      A
 Frequencies --    280.3781               305.1165               358.5225
 Red. masses --      1.7595                 2.4841                 2.1524
 Frc consts  --      0.0815                 0.1363                 0.1630
 IR Inten    --      0.2636                 1.6342                 1.0022

                     16                     17                     18
                      A                      A                      A
 Frequencies --    373.1146               424.8930               453.7216
 Red. masses --      2.4621                 2.9162                 3.0588
 Frc consts  --      0.2019                 0.3102                 0.3710
 IR Inten    --      8.2202                 0.6179                 0.1140

                     19                     20                     21
                      A                      A                      A
 Frequencies --    481.3072               516.2023               552.7898
 Red. masses --      2.9009                 3.0663                 3.6281
 Frc consts  --      0.3959                 0.4814                 0.6532
 IR Inten    --      2.9176                 0.1190                 0.8654

                     22                     23                     24
                      A                      A                      A
 Frequencies --    568.3454               618.8673               640.4011
 Red. masses --     13.2677                 2.6278                 4.5710
 Frc consts  --      2.5251                 0.5930                 1.1045
 IR Inten    --     10.6118                 0.4542                 3.4038

                     25                     26                     27
                      A                      A                      A
 Frequencies --    650.4736               672.8549               750.7279
 Red. masses --      2.3667                 3.7305                 2.0446
 Frc consts  --      0.5900                 0.9951                 0.6789
 IR Inten    --      5.4747                 0.5100                13.9320

                     28                     29                     30
                      A                      A                      A
 Frequencies --    789.2957               798.4740               827.2169
 Red. masses --      1.5505                 1.6854                 2.0317
 Frc consts  --      0.5691                 0.6331                 0.8191
 IR Inten    --     15.9353                 4.8289                 3.4920

                     31                     32                     33
                      A                      A                      A
 Frequencies --    855.4150               864.8933               899.9637
 Red. masses --      2.2710                 2.8466                 2.1817
 Frc consts  --      0.9791                 1.2546                 1.0411
 IR Inten    --      0.5654                 5.5532                10.3786

                     34                     35                     36
                      A                      A                      A
 Frequencies --    905.7232               923.3635               970.0605
 Red. masses --      2.7011                 1.8232                 2.4228
 Frc consts  --      1.3055                 0.9158                 1.3433
 IR Inten    --      8.9228                 1.5820                 5.8420

                     37                     38                     39
                      A                      A                      A
 Frequencies --    982.9644               988.9911              1008.7547
 Red. masses --      1.7355                 1.9728                 2.0451
 Frc consts  --      0.9880                 1.1369                 1.2261
 IR Inten    --      1.0623                 2.3906                 0.4619

                     40                     41                     42
                      A                      A                      A
 Frequencies --   1032.3547              1040.7912              1062.0085
 Red. masses --      1.7909                 1.7426                 1.8842
 Frc consts  --      1.1246                 1.1122                 1.2521
 IR Inten    --      4.9260                 5.4523                 1.1593

                     43                     44                     45
                      A                      A                      A
 Frequencies --   1076.4019              1104.5683              1107.9361
 Red. masses --      2.1821                 2.3033                 1.6058
 Frc consts  --      1.4896                 1.6557                 1.1614
 IR Inten    --      5.2627                 1.5748                 6.2719

                     46                     47                     48
                      A                      A                      A
 Frequencies --   1123.7789              1137.7024              1146.3960
 Red. masses --      1.9590                 1.6026                 1.8981
 Frc consts  --      1.4576                 1.2222                 1.4697
 IR Inten    --      3.0365                 3.0239                 7.2229

                     49                     50                     51
                      A                      A                      A
 Frequencies --   1201.3776              1211.0242              1227.1042
 Red. masses --      1.4627                 1.5895                 1.4102
 Frc consts  --      1.2438                 1.3735                 1.2511
 IR Inten    --     13.0749                 9.3790                 5.2264

                     52                     53                     54
                      A                      A                      A
 Frequencies --   1234.7910              1240.2576              1263.6437
 Red. masses --      1.1935                 1.3535                 1.3450
 Frc consts  --      1.0722                 1.2267                 1.2654
 IR Inten    --     18.9965                 2.7119                 3.5770

                     55                     56                     57
                      A                      A                      A
 Frequencies --   1287.4549              1318.0003              1327.7559
 Red. masses --      1.5398                 1.3469                 1.3321
 Frc consts  --      1.5038                 1.3785                 1.3836
 IR Inten    --     19.1099                26.9136                29.8102

                     58                     59                     60
                      A                      A                      A
 Frequencies --   1333.8529              1340.2002              1348.9370
 Red. masses --      1.5206                 1.4234                 1.7081
 Frc consts  --      1.5939                 1.5063                 1.8312
 IR Inten    --     26.0325                17.3283                52.1667

                     61                     62                     63
                      A                      A                      A
 Frequencies --   1363.6052              1373.1048              1384.5157
 Red. masses --      3.3064                 1.5514                 1.5826
 Frc consts  --      3.6223                 1.7234                 1.7873
 IR Inten    --    100.8261                25.1611                 3.9536

                     64                     65                     66
                      A                      A                      A
 Frequencies --   1385.9365              1389.6391              1406.0228
 Red. masses --      1.3838                 1.5902                 1.4493
 Frc consts  --      1.5661                 1.8093                 1.6881
 IR Inten    --     43.2429                 0.8842                12.5622

                     67                     68                     69
                      A                      A                      A
 Frequencies --   1410.6798              1419.6890              1428.2023
 Red. masses --      1.3664                 1.4770                 1.6124
 Frc consts  --      1.6021                 1.7539                 1.9377
 IR Inten    --      3.6487                10.5339                41.7456

                     70                     71                     72
                      A                      A                      A
 Frequencies --   1443.3671              1453.1677              1501.9878
 Red. masses --      1.3337                 1.9620                 1.0895
 Frc consts  --      1.6370                 2.4411                 1.4481
 IR Inten    --     18.3261                40.6618                 6.2106

                     73                     74                     75
                      A                      A                      A
 Frequencies --   1513.1668              1515.4832              1520.8773
 Red. masses --      1.1009                 1.0876                 1.0890
 Frc consts  --      1.4851                 1.4717                 1.4841
 IR Inten    --      2.4687                 8.5454                23.3442

                     76                     77                     78
                      A                      A                      A
 Frequencies --   1522.2158              1526.7243              1535.2148
 Red. masses --      1.1001                 1.0752                 1.0648
 Frc consts  --      1.5018                 1.4766                 1.4786
 IR Inten    --      2.4749                 2.0502                 2.1450

                     79                     80                     81
                      A                      A                      A
 Frequencies --   1543.4208              1560.4630              1745.2702
 Red. masses --      1.0611                 1.0965                 7.2584
 Frc consts  --      1.4893                 1.5732                13.0262
 IR Inten    --      4.5551                 3.7186               142.8022

                     82                     83                     84
                      A                      A                      A
 Frequencies --   2262.5142              2988.7664              2989.8643
 Red. masses --     13.5295                 1.0730                 1.0733
 Frc consts  --     40.8051                 5.6474                 5.6530
 IR Inten    --    462.7510               106.5607                 1.7321

                     85                     86                     87
                      A                      A                      A
 Frequencies --   2991.7951              3014.8200              3021.9333
 Red. masses --      1.0803                 1.0700                 1.0776
 Frc consts  --      5.6971                 5.7299                 5.7981
 IR Inten    --     49.9791                38.8919                 4.2941

                     88                     89                     90
                      A                      A                      A
 Frequencies --   3028.4734              3043.4840              3051.5691
 Red. masses --      1.0864                 1.0686                 1.0574
 Frc consts  --      5.8705                 5.8318                 5.8014
 IR Inten    --     53.6698                97.9623                24.6294

                     91                     92                     93
                      A                      A                      A
 Frequencies --   3052.1143              3061.7145              3062.7087
 Red. masses --      1.0382                 1.0627                 1.0875
 Frc consts  --      5.6983                 5.8692                 6.0101
 IR Inten    --     15.1802                23.9393                27.1829

                     94                     95                     96
                      A                      A                      A
 Frequencies --   3075.9633              3081.5113              3095.3518
 Red. masses --      1.1019                 1.0642                 1.1014
 Frc consts  --      6.1427                 5.9537                 6.2176
 IR Inten    --     48.4023                47.3856                 8.6416

                     97                     98                     99
                      A                      A                      A
 Frequencies --   3102.6067              3112.7528              3115.5072
 Red. masses --      1.1025                 1.1013                 1.0998
 Frc consts  --      6.2531                 6.2872                 6.2896
 IR Inten    --     24.4615                36.6628                46.3851

                    100                    101                    102
                      A                      A                      A
 Frequencies --   3125.7258              3128.1861              3174.1718
 Red. masses --      1.1025                 1.1058                 1.0884
 Frc consts  --      6.3465                 6.3752                 6.4609
 IR Inten    --     43.4372                16.3686                32.1192

 - Thermochemistry -
 -------------------
 Temperature   298.150 Kelvin.  Pressure   1.00000 Atm.
 Atom     1 has atomic number  6 and mass  12.00000

 Molecular mass:   220.16880 amu.
 Principal axes and moments of inertia in atomic units:
                           1         2         3
     Eigenvalues --  1741.920535936.838036807.79408
           X            0.99988  -0.01517   0.00408
           Y            0.01510   0.99973   0.01789
           Z           -0.00435  -0.01782   0.99983
 This molecule is an asymmetric top.
 Rotational symmetry number  1.
 Warning -- assumption of classical behavior for rotation
           may cause significant error
 Rotational temperatures (Kelvin)      0.04972     0.01459     0.01272
 Rotational constants (GHZ):           1.03606     0.30399     0.26510
 Zero-point vibrational energy     836343.4 (Joules/Mol)
                                  199.89088 (Kcal/Mol)
 Warning -- explicit consideration of  23 degrees of freedom as
           vibrations may cause significant error
 Vibrational temperatures:     28.44    48.38    63.24    79.49   126.98
          (Kelvin)            207.63   234.41   254.50   282.99   325.62
                              360.86   393.46   403.40   438.99   515.83
                              536.83   611.33   652.80   692.49   742.70
                              795.34   817.72   890.41   921.39   935.89
                              968.09  1080.13  1135.62  1148.83  1190.18
                             1230.75  1244.39  1294.85  1303.13  1328.51
                             1395.70  1414.27  1422.94  1451.37  1485.33
                             1497.47  1527.99  1548.70  1589.23  1594.07
                             1616.87  1636.90  1649.41  1728.51  1742.39
                             1765.53  1776.59  1784.45  1818.10  1852.36
                             1896.31  1910.34  1919.12  1928.25  1940.82
                             1961.92  1975.59  1992.01  1994.05  1999.38
                             2022.95  2029.65  2042.62  2054.86  2076.68
                             2090.78  2161.03  2177.11  2180.44  2188.20
                             2190.13  2196.62  2208.83  2220.64  2245.16
                             2511.05  3255.25  4300.17  4301.75  4304.53
                             4337.65  4347.89  4357.30  4378.89  4390.53
                             4391.31  4405.12  4406.55  4425.63  4433.61
                             4453.52  4463.96  4478.56  4482.52  4497.22
                             4500.76  4566.93

 Zero-point correction=                           0.318546 (Hartree/Particle)
 Thermal correction to Energy=                    0.334202
 Thermal correction to Enthalpy=                  0.335146
 Thermal correction to Gibbs Free Energy=         0.273744
 Sum of electronic and zero-point Energies=           -688.003588
 Sum of electronic and thermal Energies=              -687.987933
 Sum of electronic and thermal Enthalpies=            -687.986989
 Sum of electronic and thermal Free Energies=         -688.048391

                     E (Thermal)             CV                S
                      KCal/Mol        Cal/Mol-Kelvin    Cal/Mol-Kelvin
 Total                  209.715             59.490            129.231
 Electronic               0.000              0.000              0.000
 Translational            0.889              2.981             42.071
 Rotational               0.889              2.981             32.621
 Vibrational            207.937             53.528             54.540
 Vibration     1          0.593              1.986              6.657
 Vibration     2          0.594              1.983              5.603
 Vibration     3          0.595              1.980              5.073
 Vibration     4          0.596              1.975              4.620
 Vibration     5          0.601              1.957              3.698
 Vibration     6          0.616              1.909              2.746
 Vibration     7          0.623              1.888              2.516
 Vibration     8          0.628              1.871              2.361
 Vibration     9          0.636              1.845              2.164
 Vibration    10          0.650              1.801              1.908
 Vibration    11          0.663              1.761              1.725
 Vibration    12          0.676              1.722              1.574
 Vibration    13          0.680              1.710              1.531
 Vibration    14          0.696              1.664              1.389
 Vibration    15          0.733              1.558              1.129
 Vibration    16          0.745              1.527              1.067
 Vibration    17          0.787              1.416              0.876
 Vibration    18          0.812              1.353              0.785
 Vibration    19          0.838              1.292              0.707
 Vibration    20          0.871              1.214              0.619
 Vibration    21          0.908              1.134              0.538
 Vibration    22          0.924              1.100              0.507
 Vibration    23          0.979              0.992              0.418

                           ! Non-Optimized Parameters !
 Normal termination of Gaussian 16 at Thu Dec 10 23:00:34 2020.

 ----------------------------------------------------------------------
 # B3LYP/6-311++G(d,p) empiricaldispersion=gd3bj scf=xqc pop=npa geom=c
 heck
 ----------------------------------------------------------------------

 ---------------------------------------
 CID_149615465_JID_6697_Energie_neutraal
 ---------------------------------------
 Structure from the checkpoint file:  "JID_6697.chk"
 Charge =  0 Multiplicity = 1

 SCF Done:  E(RB3LYP) =  -688.504736047     A.U. after   16 cycles
 Normal termination of Gaussian 16 at Thu Dec 10 23:07:43 2020.

 ----------------------------------------------------------------------
 # B3LYP/6-311++G(d,p) empiricaldispersion=gd3bj scf=xqc pop=npa geom=c
 heck
 ----------------------------------------------------------------------

 -------------------------------------
 CID_149615465_JID_6697_Energie_kation
 -------------------------------------
 Structure from the checkpoint file:  "JID_6697.chk"
 Charge =  1 Multiplicity = 2

 SCF Done:  E(UB3LYP) =  -688.254811270     A.U. after   18 cycles
 Normal termination of Gaussian 16 at Thu Dec 10 23:18:53 2020.
 Gaussian 16:  ES64L-G16RevA.03 25-Dec-2016

 ----------------------------------------------------------------------
 # B3LYP/6-311++G(d,p) empiricaldispersion=gd3bj scf=xqc pop=npa geom=c
 heck
 ----------------------------------------------------------------------

 ------------------------------------
 CID_149615465_JID_6697_Energie_anion
 ------------------------------------
 Structure from the checkpoint file:  "JID_6697.chk"
 Charge = -1 Multiplicity = 2

                         Standard orientation:
 ---------------------------------------------------------------------
 Center     Atomic      Atomic             Coordinates (Angstroms)
 Number     Number       Type             X           Y           Z
 ---------------------------------------------------------------------
      1          6           0       -3.664323    1.024734    0.841135
      2          6           0       -2.993308    0.882675   -0.530662
      3          6           0       -3.383410   -0.438875   -1.224406
      4          6           0       -2.925811   -1.680535   -0.438279
      5          6           0       -1.528347   -1.543102    0.117146
      6          6           0       -0.890586   -0.358247    0.127975
      7          6           0       -1.457271    0.916926   -0.468850
      8          6           0       -0.752967    2.008889    0.357673
      9          6           0        0.627938    1.388653    0.628460
     10          7           0        0.341782   -0.042774    0.677830
     11          6           0        1.192956   -1.005128    1.334055
     12          6           0        1.917430   -1.950697    0.361636
     13          6           0        2.729816   -1.202553   -0.687718
     14          7           0        3.780629   -0.389419   -0.018531
     15          7           0        3.950313    0.742704   -0.471132
     16          7           0        4.182844    1.812440   -0.803074
     17          1           0       -3.265432    0.296488    1.555089
     18          1           0       -4.744594    0.859509    0.756725
     19          1           0       -3.516995    2.024751    1.262221
     20          1           0       -3.332173    1.714458   -1.163510
     21          1           0       -2.921747   -0.455404   -2.220794
     22          1           0       -4.469027   -0.475747   -1.377997
     23          1           0       -3.634695   -1.875275    0.382988
     24          1           0       -2.996496   -2.561071   -1.092754
     25          1           0       -1.078829   -2.422408    0.571899
     26          1           0       -1.087473    0.994398   -1.503816
     27          1           0       -1.273387    2.161010    1.308492
     28          1           0       -0.692440    2.970760   -0.159581
     29          1           0        1.069778    1.726892    1.573456
     30          1           0        1.339819    1.644816   -0.172968
     31          1           0        1.936265   -0.455661    1.919533
     32          1           0        0.595179   -1.602232    2.038799
     33          1           0        2.572043   -2.621141    0.931654
     34          1           0        1.185180   -2.572487   -0.165380
     35          1           0        3.223727   -1.907857   -1.366334
     36          1           0        2.069629   -0.560902   -1.282356
 ---------------------------------------------------------------------

 SCF Done:  E(UB3LYP) =  -688.494952187     A.U. after   33 cycles
 SCF Done:  E(UB3LYP) =  -688.494952187     a.u. after    1 cycles

 The electronic state is 2-A.
 Alpha  occ. eigenvalues --  -14.34876 -14.24957 -14.23968 -14.22120 -10.10637
 Alpha  occ. eigenvalues --  -10.10503 -10.10262 -10.09450 -10.07729 -10.07487
 Alpha  occ. eigenvalues --  -10.07459 -10.07040 -10.06520 -10.06308 -10.05836
 Alpha  occ. eigenvalues --  -10.04030  -1.01631  -0.86068  -0.85459  -0.73820
 Alpha  occ. eigenvalues --   -0.70329  -0.67564  -0.64823  -0.62859  -0.59627
 Alpha  occ. eigenvalues --   -0.57737  -0.52243  -0.51693  -0.49757  -0.46309
 Alpha  occ. eigenvalues --   -0.43334  -0.41098  -0.40469  -0.40014  -0.38574
 Alpha  occ. eigenvalues --   -0.38316  -0.36726  -0.35434  -0.34773  -0.33951
 Alpha  occ. eigenvalues --   -0.33209  -0.32940  -0.31540  -0.29981  -0.28922
 Alpha  occ. eigenvalues --   -0.28845  -0.27729  -0.27239  -0.27134  -0.26221
 Alpha  occ. eigenvalues --   -0.25712  -0.24958  -0.24739  -0.22549  -0.21242
 Alpha  occ. eigenvalues --   -0.20429  -0.19015  -0.18127  -0.13949  -0.08361
 Alpha  occ. eigenvalues --    0.04354
 Alpha virt. eigenvalues --    0.05919   0.07196   0.07405   0.07614   0.08590
 Alpha virt. eigenvalues --    0.08824   0.09352   0.09886   0.10152   0.10909
 Alpha virt. eigenvalues --    0.11146   0.11609   0.12142   0.12333   0.12775

  Beta  occ. eigenvalues --  -14.34654 -14.24645 -14.24026 -14.22123 -10.10556
  Beta  occ. eigenvalues --  -10.10496 -10.10254 -10.09444 -10.07722 -10.07477
  Beta  occ. eigenvalues --  -10.07447 -10.07020 -10.06511 -10.06291 -10.05813
  Beta  occ. eigenvalues --  -10.04021  -1.01195  -0.85910  -0.85391  -0.73795
  Beta  occ. eigenvalues --   -0.70284  -0.67513  -0.64775  -0.62834  -0.59537
  Beta  occ. eigenvalues --   -0.57694  -0.52134  -0.51661  -0.49723  -0.46261
  Beta  occ. eigenvalues --   -0.43251  -0.41029  -0.40222  -0.39851  -0.38298
  Beta  occ. eigenvalues --   -0.37900  -0.36668  -0.35374  -0.34545  -0.33909
  Beta  occ. eigenvalues --   -0.32926  -0.32698  -0.31450  -0.29889  -0.28880
  Beta  occ. eigenvalues --   -0.28767  -0.27699  -0.27201  -0.27076  -0.26157
  Beta  occ. eigenvalues --   -0.25685  -0.24885  -0.24697  -0.22521  -0.21217
  Beta  occ. eigenvalues --   -0.20397  -0.18546  -0.18091  -0.13865  -0.08338
  Beta virt. eigenvalues --    0.06384   0.07302   0.07641   0.07856   0.08661
  Beta virt. eigenvalues --    0.09088   0.09177   0.09873   0.10061   0.10306
  Beta virt. eigenvalues --    0.11253   0.11398   0.11755   0.12275   0.12489

 Mulliken charges and spin densities:
               1          2
     1  C    0.516105  -1.298169
     2  C   -0.436784   0.912040
     3  C   -0.031890  -0.471461
     4  C    0.630203  -1.301273
     5  C   -0.481086   0.263962
     6  C   -0.306614   0.061708
     7  C    0.226638  -0.106391
     8  C   -0.083816  -0.388279
     9  C   -0.167516  -0.207452
    10  N    0.221443   0.043440
    11  C   -0.355400   0.153530
    12  C    0.162329  -0.225816
    13  C    0.335370  -0.913248
    14  N   -0.214816  -0.168796
    15  N    0.275375   0.240064
    16  N   -0.273140   0.235154
    17  H    0.012370   0.160603
    18  H   -0.174864   0.324572
    19  H   -0.066357   0.194887
    20  H   -0.406476   0.620418
    21  H   -0.025831   0.154071
    22  H   -0.193554   0.359704
    23  H    0.081791   0.054903
    24  H   -0.040647   0.196299
    25  H   -0.078680   0.200720
    26  H    0.070371   0.142322
    27  H    0.126339   0.004184
    28  H   -0.088967   0.266555
    29  H    0.042738   0.117168
    30  H    0.198163  -0.084778
    31  H   -0.060887   0.209674
    32  H    0.098517   0.057735
    33  H   -0.149506   0.326956
    34  H    0.103761   0.032894
    35  H   -0.538139   0.730896
    36  H    0.073458   0.101205
 Sum of Mulliken charges =  -1.00000   1.00000

 Dipole moment (field-independent basis, Debye):
    X=             -0.5935    Y=             -0.1551    Z=              2.4090  Tot=              2.4858
 Quadrupole moment (field-independent basis, Debye-Ang):
   XX=           -192.0615   YY=           -139.7256   ZZ=           -127.4418
   XY=              3.6324   XZ=              0.4730   YZ=             -0.3112

 Summary of Natural Population Analysis:

                                       Natural Population
                Natural  -----------------------------------------------
    Atom  No    Charge         Core      Valence    Rydberg      Total
 -----------------------------------------------------------------------
      C    1   -0.29200      0.99965     2.28498    0.00737     3.29200
      C    2   -0.10719      0.99959     2.09607    0.01153     3.10719
      C    3   -0.18392      0.99962     2.17529    0.00901     3.18392
      C    4   -0.19695      0.99963     2.18861    0.00871     3.19695
      C    5   -0.16374      0.99949     2.15444    0.00981     3.16374
      C    6    0.10913      0.99947     1.87918    0.01223     2.89087
      C    7   -0.11974      0.99955     2.10850    0.01170     3.11974
      C    8   -0.18779      0.99962     2.18117    0.00700     3.18779
      C    9   -0.07159      0.99963     2.06389    0.00807     3.07159
      N   10   -0.26402      0.99964     2.75307    0.01132     3.76402
      C   11   -0.08102      0.99961     2.07110    0.01031     3.08102
      C   12   -0.19854      0.99961     2.18990    0.00903     3.19854
      C   13   -0.08879      0.99958     2.07808    0.01112     3.08879
      N   14   -0.20929      0.99970     2.69493    0.01467     3.70929
      N   15    0.13303      0.99970     2.35206    0.01520     3.36697
      N   16   -0.02866      0.99982     2.51516    0.01369     3.52866
      H   17    0.10168      0.00000     0.39736    0.00096     0.39832
      H   18    0.10011      0.00000     0.39892    0.00096     0.39989
      H   19    0.09852      0.00000     0.40062    0.00087     0.40148
      H   20    0.09749      0.00000     0.40061    0.00189     0.40251
      H   21    0.09682      0.00000     0.40176    0.00142     0.40318
      H   22    0.09789      0.00000     0.40105    0.00106     0.40211
      H   23    0.09230      0.00000     0.40642    0.00128     0.40770
      H   24    0.09725      0.00000     0.40160    0.00116     0.40275
      H   25    0.09621      0.00000     0.40264    0.00115     0.40379
      H   26    0.10503      0.00000     0.39335    0.00162     0.39497
      H   27    0.09768      0.00000     0.40085    0.00147     0.40232
      H   28    0.10110      0.00000     0.39786    0.00104     0.39890
      H   29    0.09232      0.00000     0.40646    0.00122     0.40768
      H   30    0.08878      0.00000     0.40959    0.00163     0.41122
      H   31    0.10170      0.00000     0.39673    0.00157     0.39830
      H   32    0.09373      0.00000     0.40502    0.00125     0.40627
      H   33    0.09899      0.00000     0.39960    0.00141     0.40101
      H   34    0.10368      0.00000     0.39490    0.00142     0.39632
      H   35    0.09629      0.00000     0.40203    0.00168     0.40371
      H   36    0.09348      0.00000     0.40463    0.00189     0.40652
 =======================================================================
   * Total *    0.00000     15.99390    43.80840    0.19770    60.00000

 Normal termination of Gaussian 16 at Thu Dec 10 23:39:23 2020.
