 Gaussian 16, Revision A.03,

 -----------------------------------------------------------
 # opt freq B3LYP/6-31G(d) empiricaldispersion=gd3bj scf=xqc
 -----------------------------------------------------------

 -------------------------------
 CID_104260808_JID_7521_neutraal
 -------------------------------
 Symbolic Z-matrix:
 Charge =  0 Multiplicity = 1

 SCF Done:  E(RB3LYP) =  -1462.88295367     A.U. after   16 cycles
 SCF Done:  E(RB3LYP) =  -1462.88767166     A.U. after   14 cycles
 SCF Done:  E(RB3LYP) =  -1462.87549240     A.U. after   15 cycles
 SCF Done:  E(RB3LYP) =  -1462.88575318     A.U. after   13 cycles
 SCF Done:  E(RB3LYP) =  -1462.88863572     A.U. after   11 cycles
 SCF Done:  E(RB3LYP) =  -1462.88927650     A.U. after   13 cycles
 SCF Done:  E(RB3LYP) =  -1462.88958867     A.U. after   12 cycles
 SCF Done:  E(RB3LYP) =  -1462.88975104     A.U. after   12 cycles
 SCF Done:  E(RB3LYP) =  -1462.88979989     A.U. after   10 cycles
 SCF Done:  E(RB3LYP) =  -1462.88982750     A.U. after   11 cycles
 SCF Done:  E(RB3LYP) =  -1462.88986852     A.U. after    8 cycles
 SCF Done:  E(RB3LYP) =  -1462.88986864     A.U. after    8 cycles
 SCF Done:  E(RB3LYP) =  -1462.88986873     A.U. after    8 cycles
 SCF Done:  E(RB3LYP) =  -1462.88986880     A.U. after    8 cycles
 SCF Done:  E(RB3LYP) =  -1462.88986883     A.U. after    7 cycles
 Optimization completed.
    -- Stationary point found.
 Normal termination of Gaussian 16 at Sun Dec 13 20:16:04 2020.

 --------------------------------------------------------------------
 #N Geom=AllCheck Guess=TCheck SCRF=Check GenChk RB3LYP/6-31G(d) Freq
 --------------------------------------------------------------------

 Structure from the checkpoint file:  "JID_7521.chk"
 -------------------------------
 CID_104260808_JID_7521_neutraal
 -------------------------------
 Charge =  0 Multiplicity = 1

 SCF Done:  E(RB3LYP) =  -1462.88986883     A.U. after    1 cycles

  Exact polarizability: 207.344   2.965 167.893   3.124  19.060 137.814
 Approx polarizability: 286.636  -7.337 281.257   1.247  61.520 262.638

                      1                      2                      3
                      A                      A                      A
 Frequencies --     11.8943                25.0863                43.1807
 Red. masses --      6.0757                 3.6344                 4.6893
 Frc consts  --      0.0005                 0.0013                 0.0052
 IR Inten    --      1.0207                 2.0550                 1.0356

                      4                      5                      6
                      A                      A                      A
 Frequencies --     52.6306                81.8155               110.9990
 Red. masses --      3.7890                 4.3930                 1.3886
 Frc consts  --      0.0062                 0.0173                 0.0101
 IR Inten    --      0.3985                 0.2822                 0.0923

                      7                      8                      9
                      A                      A                      A
 Frequencies --    122.2778               153.4408               180.2609
 Red. masses --      2.4645                 2.9895                 3.0939
 Frc consts  --      0.0217                 0.0415                 0.0592
 IR Inten    --      0.2051                 1.0169                 2.2543

                     10                     11                     12
                      A                      A                      A
 Frequencies --    195.2589               239.6721               257.5534
 Red. masses --      5.2065                 1.9771                 6.1048
 Frc consts  --      0.1170                 0.0669                 0.2386
 IR Inten    --      2.2348                 1.0029                 1.7519

                     13                     14                     15
                      A                      A                      A
 Frequencies --    281.5721               311.5157               330.2821
 Red. masses --      1.9187                 4.3162                 5.4764
 Frc consts  --      0.0896                 0.2468                 0.3520
 IR Inten    --      2.0053                 3.6487                 0.9583

                     16                     17                     18
                      A                      A                      A
 Frequencies --    349.0951               366.3868               406.6026
 Red. masses --      4.9302                 4.1712                 6.0781
 Frc consts  --      0.3540                 0.3299                 0.5921
 IR Inten    --      2.0354                 7.0437                 1.5946

                     19                     20                     21
                      A                      A                      A
 Frequencies --    430.6875               448.6278               496.4867
 Red. masses --      9.8479                 3.3047                 2.0628
 Frc consts  --      1.0763                 0.3919                 0.2996
 IR Inten    --      7.3524                 3.1982                 7.8660

                     22                     23                     24
                      A                      A                      A
 Frequencies --    502.6618               540.8298               561.2432
 Red. masses --      1.6552                 4.2950                 4.1990
 Frc consts  --      0.2464                 0.7402                 0.7793
 IR Inten    --     15.6144                 8.2011                 4.1851

                     25                     26                     27
                      A                      A                      A
 Frequencies --    568.9446               602.5015               614.1771
 Red. masses --      5.6859                 5.4938                 6.6429
 Frc consts  --      1.0844                 1.1750                 1.4764
 IR Inten    --      2.5326                13.0551                10.6524

                     28                     29                     30
                      A                      A                      A
 Frequencies --    637.4518               646.5161               652.1716
 Red. masses --     10.4357                 1.8428                 4.7261
 Frc consts  --      2.4984                 0.4538                 1.1844
 IR Inten    --      8.1187               243.1475                11.0590

                     31                     32                     33
                      A                      A                      A
 Frequencies --    653.8980               738.5232               767.9186
 Red. masses --      3.4903                 2.1933                 9.5384
 Frc consts  --      0.8793                 0.7048                 3.3140
 IR Inten    --     67.0294                49.1471                 5.0181

                     34                     35                     36
                      A                      A                      A
 Frequencies --    781.1740               809.5896               843.5251
 Red. masses --      1.9374                 1.3609                 2.7568
 Frc consts  --      0.6966                 0.5255                 1.1557
 IR Inten    --     10.2102                 3.3848                10.4563

                     37                     38                     39
                      A                      A                      A
 Frequencies --    858.1814               908.8923               922.7000
 Red. masses --      4.5843                 1.4891                 2.2441
 Frc consts  --      1.9892                 0.7248                 1.1257
 IR Inten    --      6.3298                 4.9063                14.1775

                     40                     41                     42
                      A                      A                      A
 Frequencies --    942.3505              1005.5949              1039.6837
 Red. masses --      1.2481                 1.8740                10.3903
 Frc consts  --      0.6530                 1.1165                 6.6173
 IR Inten    --      1.4567                14.9966                65.7068

                     43                     44                     45
                      A                      A                      A
 Frequencies --   1063.1445              1068.4038              1106.2636
 Red. masses --      4.6913                 1.4251                 1.9005
 Frc consts  --      3.1241                 0.9585                 1.3704
 IR Inten    --     69.6267                 1.1277                 8.8447

                     46                     47                     48
                      A                      A                      A
 Frequencies --   1115.0800              1119.9531              1129.2946
 Red. masses --      2.1427                 8.5146                 1.9792
 Frc consts  --      1.5698                 6.2924                 1.4871
 IR Inten    --     14.2276                 3.6823                36.3840

                     49                     50                     51
                      A                      A                      A
 Frequencies --   1182.1639              1201.7183              1222.1959
 Red. masses --      1.1527                 1.7019                 3.8989
 Frc consts  --      0.9491                 1.4481                 3.4315
 IR Inten    --      6.4757                 2.7387                38.6696

                     52                     53                     54
                      A                      A                      A
 Frequencies --   1241.9694              1282.9216              1328.0047
 Red. masses --      3.7936                 1.7858                 2.1736
 Frc consts  --      3.4477                 1.7318                 2.2585
 IR Inten    --    238.2138                 6.8192                 6.4366

                     55                     56                     57
                      A                      A                      A
 Frequencies --   1336.7478              1379.4282              1416.2674
 Red. masses --      1.2005                 3.7447                 1.2527
 Frc consts  --      1.2639                 4.1982                 1.4804
 IR Inten    --     17.8154                 4.6208                 4.0696

                     58                     59                     60
                      A                      A                      A
 Frequencies --   1434.3083              1437.7981              1442.8073
 Red. masses --      1.5369                 4.3006                 1.2978
 Frc consts  --      1.8628                 5.2381                 1.5918
 IR Inten    --      1.8356                12.8783                18.4097

                     61                     62                     63
                      A                      A                      A
 Frequencies --   1491.3803              1502.8940              1506.4845
 Red. masses --      1.6377                 2.5345                 1.0427
 Frc consts  --      2.1461                 3.3728                 1.3942
 IR Inten    --     21.7710                 6.5997                10.2550

                     64                     65                     66
                      A                      A                      A
 Frequencies --   1514.5281              1520.3748              1525.4844
 Red. masses --      1.3554                 1.2600                 1.5156
 Frc consts  --      1.8318                 1.7161                 2.0780
 IR Inten    --     67.8075                17.7276                42.9413

                     67                     68                     69
                      A                      A                      A
 Frequencies --   1539.8446              1540.9121              1620.8785
 Red. masses --      1.1290                 2.2845                 5.9190
 Frc consts  --      1.5773                 3.1960                 9.1623
 IR Inten    --      7.1973                15.5313                 8.6880

                     70                     71                     72
                      A                      A                      A
 Frequencies --   1642.1457              1700.8507              3047.4838
 Red. masses --      3.9271                 1.3113                 1.0665
 Frc consts  --      6.2394                 2.2350                 5.8357
 IR Inten    --      6.1524                85.7827                41.1711

                     73                     74                     75
                      A                      A                      A
 Frequencies --   3057.1658              3062.5654              3113.0134
 Red. masses --      1.0355                 1.0363                 1.0989
 Frc consts  --      5.7019                 5.7268                 6.2746
 IR Inten    --      9.9825                13.1246                14.3056

                     76                     77                     78
                      A                      A                      A
 Frequencies --   3121.2637              3126.5915              3139.1959
 Red. masses --      1.1019                 1.1015                 1.1038
 Frc consts  --      6.3249                 6.3441                 6.4090
 IR Inten    --      7.2384                35.5077                42.6831

                     79                     80                     81
                      A                      A                      A
 Frequencies --   3161.3840              3195.7963              3206.3787
 Red. masses --      1.1018                 1.0861                 1.0906
 Frc consts  --      6.4877                 6.5357                 6.6062
 IR Inten    --      2.7141                 4.5505                 9.3973

                     82                     83                     84
                      A                      A                      A
 Frequencies --   3219.5718              3518.1145              3652.3093
 Red. masses --      1.0967                 1.0528                 1.0945
 Frc consts  --      6.6981                 7.6775                 8.6023
 IR Inten    --     16.8935               131.7811                87.3092

 - Thermochemistry -
 -------------------
 Temperature   298.150 Kelvin.  Pressure   1.00000 Atm.
 Atom     1 has atomic number  6 and mass  12.00000

 Molecular mass:   267.05001 amu.
 Principal axes and moments of inertia in atomic units:
                           1         2         3
     Eigenvalues --  2971.644237174.055768458.18424
           X            1.00000  -0.00114   0.00081
           Y            0.00114   1.00000  -0.00213
           Z           -0.00081   0.00213   1.00000
 This molecule is an asymmetric top.
 Rotational symmetry number  1.
 Warning -- assumption of classical behavior for rotation
           may cause significant error
 Rotational temperatures (Kelvin)      0.02915     0.01207     0.01024
 Rotational constants (GHZ):           0.60732     0.25156     0.21337
 Zero-point vibrational energy     608474.2 (Joules/Mol)
                                  145.42882 (Kcal/Mol)
 Warning -- explicit consideration of  27 degrees of freedom as
           vibrations may cause significant error
 Vibrational temperatures:     17.11    36.09    62.13    75.72   117.71
          (Kelvin)            159.70   175.93   220.77   259.36   280.93
                              344.83   370.56   405.12   448.20   475.20
                              502.27   527.15   585.01   619.66   645.48
                              714.33   723.22   778.13   807.50   818.58
                              866.87   883.66   917.15   930.19   938.33
                              940.81  1062.57  1104.86  1123.94  1164.82
                             1213.64  1234.73  1307.69  1327.56  1355.83
                             1446.83  1495.87  1529.63  1537.19  1591.67
                             1604.35  1611.36  1624.80  1700.87  1729.00
                             1758.47  1786.92  1845.84  1910.70  1923.28
                             1984.69  2037.69  2063.65  2068.67  2075.88
                             2145.76  2162.33  2167.50  2179.07  2187.48
                             2194.83  2215.49  2217.03  2332.08  2362.68
                             2447.14  4384.65  4398.58  4406.35  4478.93
                             4490.80  4498.47  4516.60  4548.53  4598.04
                             4613.26  4632.25  5061.78  5254.86

 Zero-point correction=                           0.231756 (Hartree/Particle)
 Thermal correction to Energy=                    0.248686
 Thermal correction to Enthalpy=                  0.249630
 Thermal correction to Gibbs Free Energy=         0.184279
 Sum of electronic and zero-point Energies=          -1462.658113
 Sum of electronic and thermal Energies=             -1462.641183
 Sum of electronic and thermal Enthalpies=           -1462.640239
 Sum of electronic and thermal Free Energies=        -1462.705590

                     E (Thermal)             CV                S
                      KCal/Mol        Cal/Mol-Kelvin    Cal/Mol-Kelvin
 Total                  156.053             62.929            137.542
 Electronic               0.000              0.000              0.000
 Translational            0.889              2.981             42.646
 Rotational               0.889              2.981             33.555
 Vibrational            154.275             56.967             61.341
 Vibration     1          0.593              1.987              7.666
 Vibration     2          0.593              1.985              6.184
 Vibration     3          0.595              1.980              5.108
 Vibration     4          0.596              1.977              4.716
 Vibration     5          0.600              1.962              3.847
 Vibration     6          0.607              1.940              3.251
 Vibration     7          0.610              1.931              3.064
 Vibration     8          0.619              1.899              2.629
 Vibration     9          0.629              1.866              2.326
 Vibration    10          0.636              1.846              2.177
 Vibration    11          0.657              1.780              1.805
 Vibration    12          0.667              1.750              1.678
 Vibration    13          0.681              1.708              1.524
 Vibration    14          0.700              1.652              1.354
 Vibration    15          0.713              1.615              1.259
 Vibration    16          0.726              1.577              1.170
 Vibration    17          0.739              1.541              1.095
 Vibration    18          0.771              1.456              0.939
 Vibration    19          0.792              1.403              0.856
 Vibration    20          0.808              1.364              0.800
 Vibration    21          0.852              1.258              0.667
 Vibration    22          0.858              1.244              0.652
 Vibration    23          0.896              1.160              0.564
 Vibration    24          0.917              1.115              0.521
 Vibration    25          0.925              1.098              0.506
 Vibration    26          0.961              1.026              0.445
 Vibration    27          0.974              1.002              0.426

                           ! Non-Optimized Parameters !
 Normal termination of Gaussian 16 at Sun Dec 13 20:26:40 2020.

 ----------------------------------------------------------------------
 # B3LYP/6-311++G(d,p) empiricaldispersion=gd3bj scf=xqc pop=npa geom=c
 heck
 ----------------------------------------------------------------------

 ---------------------------------------
 CID_104260808_JID_7521_Energie_neutraal
 ---------------------------------------
 Structure from the checkpoint file:  "JID_7521.chk"
 Charge =  0 Multiplicity = 1

 SCF Done:  E(RB3LYP) =  -1463.12583514     A.U. after   16 cycles
 Normal termination of Gaussian 16 at Sun Dec 13 20:32:09 2020.

 ----------------------------------------------------------------------
 # B3LYP/6-311++G(d,p) empiricaldispersion=gd3bj scf=xqc pop=npa geom=c
 heck
 ----------------------------------------------------------------------

 -------------------------------------
 CID_104260808_JID_7521_Energie_kation
 -------------------------------------
 Structure from the checkpoint file:  "JID_7521.chk"
 Charge =  1 Multiplicity = 2

 SCF Done:  E(UB3LYP) =  -1462.85366088     A.U. after   26 cycles
 Normal termination of Gaussian 16 at Sun Dec 13 20:44:59 2020.
 Gaussian 16:  ES64L-G16RevA.03 25-Dec-2016

 ----------------------------------------------------------------------
 # B3LYP/6-311++G(d,p) empiricaldispersion=gd3bj scf=xqc pop=npa geom=c
 heck
 ----------------------------------------------------------------------

 ------------------------------------
 CID_104260808_JID_7521_Energie_anion
 ------------------------------------
 Structure from the checkpoint file:  "JID_7521.chk"
 Charge = -1 Multiplicity = 2

                         Standard orientation:
 ---------------------------------------------------------------------
 Center     Atomic      Atomic             Coordinates (Angstroms)
 Number     Number       Type             X           Y           Z
 ---------------------------------------------------------------------
      1          6           0       -2.367920    2.822436   -0.548890
      2          6           0       -3.655388    2.050379   -0.294734
      3          8           0       -3.455822    0.926130    0.578209
      4          6           0       -2.707536   -0.110588    0.049355
      5          6           0       -1.483877   -0.402247    0.702388
      6          6           0       -0.710376   -1.460172    0.173454
      7          6           0       -1.141791   -2.183142   -0.945471
      8          6           0       -2.359044   -1.891257   -1.549914
      9          6           0       -3.141348   -0.848819   -1.041957
     10         16           0        0.817898   -1.958278    0.972583
     11          6           0        1.854512   -0.581764    0.552723
     12          7           0        1.827109    0.561801    1.182321
     13          7           0        2.689992    1.490485    0.671676
     14          6           0        3.387110    1.044830   -0.339718
     15         16           0        3.008478   -0.609147   -0.770719
     16          6           0        4.411344    1.869093   -1.050114
     17          7           0       -1.131605    0.316720    1.819253
     18          1           0       -1.947595    3.201471    0.388313
     19          1           0       -2.561182    3.674910   -1.209819
     20          1           0       -1.619945    2.181484   -1.026767
     21          1           0       -4.395883    2.670613    0.217802
     22          1           0       -4.095575    1.711516   -1.241468
     23          1           0       -0.514197   -2.983992   -1.322724
     24          1           0       -2.701004   -2.466181   -2.404278
     25          1           0       -4.097054   -0.602989   -1.495263
     26          1           0        5.405705    1.415343   -0.977503
     27          1           0        4.168436    1.977962   -2.112582
     28          1           0        4.438722    2.858453   -0.588059
     29          1           0       -0.141494    0.478733    1.976412
     30          1           0       -1.726982    1.116904    1.984947
 ---------------------------------------------------------------------

 SCF Done:  E(UB3LYP) =  -1463.13136510     A.U. after   33 cycles
 SCF Done:  E(UB3LYP) =  -1463.13136510     a.u. after    1 cycles

 The electronic state is 2-A.
 Alpha  occ. eigenvalues --  -88.72852 -88.72539 -19.04167 -14.19175 -14.19022
 Alpha  occ. eigenvalues --  -14.18193 -10.13429 -10.11213 -10.10354 -10.08458
 Alpha  occ. eigenvalues --  -10.07826 -10.07652 -10.07233 -10.06610 -10.06091
 Alpha  occ. eigenvalues --  -10.06046 -10.06034  -7.81534  -7.81042  -5.77799
 Alpha  occ. eigenvalues --   -5.77489  -5.77443  -5.77151  -5.77071  -5.76426
 Alpha  occ. eigenvalues --   -0.95659  -0.87498  -0.80367  -0.73256  -0.70069
 Alpha  occ. eigenvalues --   -0.67688  -0.66786  -0.64210  -0.61549  -0.59462
 Alpha  occ. eigenvalues --   -0.57595  -0.54698  -0.49317  -0.47770  -0.44793
 Alpha  occ. eigenvalues --   -0.42790  -0.40673  -0.40029  -0.38779  -0.38197
 Alpha  occ. eigenvalues --   -0.35335  -0.34149  -0.33364  -0.32365  -0.32143
 Alpha  occ. eigenvalues --   -0.30881  -0.29916  -0.29414  -0.28679  -0.28353
 Alpha  occ. eigenvalues --   -0.26932  -0.26844  -0.26453  -0.24901  -0.23622
 Alpha  occ. eigenvalues --   -0.21952  -0.20370  -0.19299  -0.16268  -0.14844
 Alpha  occ. eigenvalues --   -0.13791  -0.13010  -0.12653  -0.11087  -0.09113
 Alpha  occ. eigenvalues --    0.04704
 Alpha virt. eigenvalues --    0.06234   0.08015   0.08087   0.08715   0.09421
 Alpha virt. eigenvalues --    0.09479   0.10733   0.10938   0.11453   0.11608
 Alpha virt. eigenvalues --    0.11819   0.12486   0.13179   0.13518   0.13795

  Beta  occ. eigenvalues --  -88.72788 -88.72545 -19.04162 -14.19168 -14.19124
  Beta  occ. eigenvalues --  -14.17974 -10.13420 -10.11180 -10.10362 -10.07971
  Beta  occ. eigenvalues --  -10.07532 -10.07387 -10.07224 -10.06571 -10.06089
  Beta  occ. eigenvalues --  -10.06078 -10.06009  -7.81476  -7.81044  -5.77777
  Beta  occ. eigenvalues --   -5.77468  -5.77462  -5.77085  -5.76927  -5.76423
  Beta  occ. eigenvalues --   -0.95636  -0.87142  -0.80336  -0.73167  -0.69568
  Beta  occ. eigenvalues --   -0.67503  -0.66464  -0.63989  -0.61496  -0.59300
  Beta  occ. eigenvalues --   -0.57488  -0.54654  -0.49223  -0.47611  -0.44354
  Beta  occ. eigenvalues --   -0.42729  -0.40489  -0.39744  -0.38675  -0.38163
  Beta  occ. eigenvalues --   -0.35282  -0.34112  -0.33108  -0.32198  -0.31535
  Beta  occ. eigenvalues --   -0.30650  -0.29865  -0.29335  -0.28436  -0.27975
  Beta  occ. eigenvalues --   -0.26710  -0.26493  -0.26077  -0.24707  -0.23532
  Beta  occ. eigenvalues --   -0.21643  -0.20289  -0.19218  -0.16089  -0.13797
  Beta  occ. eigenvalues --   -0.13333  -0.12514  -0.11490  -0.10621  -0.08971
  Beta virt. eigenvalues --    0.06340   0.07929   0.08092   0.08809   0.09371
  Beta virt. eigenvalues --    0.09447   0.10342   0.10804   0.10992   0.11539
  Beta virt. eigenvalues --    0.11756   0.12282   0.12440   0.13129   0.13586

 Mulliken charges and spin densities:
               1          2
     1  C   -0.398287  -0.168459
     2  C    0.040146  -0.112911
     3  O   -0.156508   0.004801
     4  C   -0.439087   0.018488
     5  C   -0.027582   0.038367
     6  C    0.794858   0.007314
     7  C   -0.424209   0.034956
     8  C   -0.439842   0.012212
     9  C    0.221789  -0.017519
    10  S   -0.375910   0.018521
    11  C   -0.025572   0.261722
    12  N   -0.167319   0.109807
    13  N    0.059092  -0.043771
    14  C   -0.069559   0.194508
    15  S   -0.264302   0.150806
    16  C   -0.555746  -0.040584
    17  N   -0.304707  -0.006821
    18  H    0.143098   0.000420
    19  H   -0.000320   0.127122
    20  H    0.120991   0.049848
    21  H   -0.027108   0.183144
    22  H    0.103717  -0.007970
    23  H    0.144039   0.000326
    24  H    0.135626   0.001890
    25  H    0.103179   0.019180
    26  H    0.133274   0.013958
    27  H    0.023593   0.130273
    28  H    0.128337   0.006556
    29  H    0.283364   0.002361
    30  H    0.240952   0.011456
 Sum of Mulliken charges =  -1.00000   1.00000

 Dipole moment (field-independent basis, Debye):
    X=             -3.9892    Y=              0.5279    Z=             -2.6657  Tot=              4.8269
 Quadrupole moment (field-independent basis, Debye-Ang):
   XX=           -157.5526   YY=           -137.0506   ZZ=           -134.0261
   XY=             -4.2582   XZ=              2.3659   YZ=              1.4515

 Summary of Natural Population Analysis:

                                       Natural Population
                Natural  -----------------------------------------------
    Atom  No    Charge         Core      Valence    Rydberg      Total
 -----------------------------------------------------------------------
      C    1   -0.30349      0.99966     2.29898    0.00484     3.30349
      C    2   -0.00788      0.99958     1.99626    0.01204     3.00788
      O    3   -0.29853      0.99987     3.28842    0.01024     4.29853
      C    4    0.13107      0.99933     1.85528    0.01432     2.86893
      C    5    0.07068      0.99939     1.91755    0.01239     2.92932
      C    6   -0.08815      0.99938     2.07469    0.01409     3.08815
      C    7   -0.09404      0.99951     2.08481    0.00972     3.09404
      C    8   -0.12728      0.99957     2.11868    0.00903     3.12728
      C    9   -0.11725      0.99952     2.10940    0.00833     3.11725
      S   10    0.12452      4.99944     2.85589    0.02016     7.87548
      C   11    0.00310      0.99959     1.97741    0.01990     2.99690
      N   12   -0.15341      0.99958     2.63675    0.01708     3.65341
      N   13   -0.18347      0.99963     2.66881    0.01502     3.68347
      C   14    0.08905      0.99965     1.89308    0.01822     2.91095
      S   15    0.18139      4.99936     2.79951    0.01974     7.81861
      C   16   -0.30856      0.99962     2.30296    0.00598     3.30856
      N   17   -0.39889      0.99969     2.88972    0.00947     3.89889
      H   18    0.10033      0.00000     0.39823    0.00144     0.39967
      H   19    0.09784      0.00000     0.40115    0.00101     0.40216
      H   20    0.10955      0.00000     0.38916    0.00129     0.39045
      H   21    0.08583      0.00000     0.41292    0.00125     0.41417
      H   22    0.07914      0.00000     0.41967    0.00119     0.42086
      H   23    0.10263      0.00000     0.39640    0.00097     0.39737
      H   24    0.09456      0.00000     0.40401    0.00143     0.40544
      H   25    0.09745      0.00000     0.40136    0.00119     0.40255
      H   26    0.10301      0.00000     0.39620    0.00078     0.39699
      H   27    0.10438      0.00000     0.39401    0.00162     0.39562
      H   28    0.10829      0.00000     0.39051    0.00120     0.39171
      H   29    0.21174      0.00000     0.28556    0.00270     0.28826
      H   30    0.18640      0.00000     0.31144    0.00216     0.31360
 =======================================================================
   * Total *    0.00000     24.99237    44.76883    0.23880    70.00000

 Normal termination of Gaussian 16 at Sun Dec 13 21:01:41 2020.
