 Gaussian 16, Revision A.03,

 -----------------------------------------------------------
 # opt freq B3LYP/6-31G(d) empiricaldispersion=gd3bj scf=xqc
 -----------------------------------------------------------

 -----------------------------
 CID_19354182_JID_237_neutraal
 -----------------------------
 Symbolic Z-matrix:
 Charge =  0 Multiplicity = 1

 SCF Done:  E(RB3LYP) =  -838.689754244     A.U. after   14 cycles
 SCF Done:  E(RB3LYP) =  -838.693285459     A.U. after   12 cycles
 SCF Done:  E(RB3LYP) =  -838.693731425     A.U. after   12 cycles
 SCF Done:  E(RB3LYP) =  -838.692722882     A.U. after   12 cycles
 SCF Done:  E(RB3LYP) =  -838.694229368     A.U. after   11 cycles
 SCF Done:  E(RB3LYP) =  -838.694361273     A.U. after   12 cycles
 SCF Done:  E(RB3LYP) =  -838.694460509     A.U. after   11 cycles
 SCF Done:  E(RB3LYP) =  -838.694490290     A.U. after   10 cycles
 SCF Done:  E(RB3LYP) =  -838.694491685     A.U. after    8 cycles
 SCF Done:  E(RB3LYP) =  -838.694491894     A.U. after    8 cycles
 SCF Done:  E(RB3LYP) =  -838.694492112     A.U. after    8 cycles
 SCF Done:  E(RB3LYP) =  -838.694492159     A.U. after    7 cycles
 SCF Done:  E(RB3LYP) =  -838.694492200     A.U. after    7 cycles
 Optimization completed.
    -- Stationary point found.
 Normal termination of Gaussian 16 at Tue Dec  8 10:22:08 2020.

 --------------------------------------------------------------------
 #N Geom=AllCheck Guess=TCheck SCRF=Check GenChk RB3LYP/6-31G(d) Freq
 --------------------------------------------------------------------

 Structure from the checkpoint file:  "JID_237.chk"
 -----------------------------
 CID_19354182_JID_237_neutraal
 -----------------------------
 Charge =  0 Multiplicity = 1

 SCF Done:  E(RB3LYP) =  -838.694492200     A.U. after    1 cycles

  Exact polarizability:  99.297   4.660  88.651  -1.025  -2.131  70.814
 Approx polarizability: 139.421   8.073 131.874  -1.916  -6.957 106.416

                      1                      2                      3
                      A                      A                      A
 Frequencies --     45.7802                69.6216               143.7123
 Red. masses --     11.0357                 6.0159                 3.7025
 Frc consts  --      0.0136                 0.0172                 0.0451
 IR Inten    --      3.4793                 0.3817                 0.9962

                      4                      5                      6
                      A                      A                      A
 Frequencies --    211.0251               255.9150               270.2165
 Red. masses --      2.6523                 3.3276                 1.2013
 Frc consts  --      0.0696                 0.1284                 0.0517
 IR Inten    --      5.3800                 3.1295                 4.9508

                      7                      8                      9
                      A                      A                      A
 Frequencies --    279.0794               293.8754               355.6115
 Red. masses --      3.0348                 1.2401                 2.4160
 Frc consts  --      0.1393                 0.0631                 0.1800
 IR Inten    --      1.7323                46.5060                 1.6587

                     10                     11                     12
                      A                      A                      A
 Frequencies --    380.1970               421.0944               450.1585
 Red. masses --      3.8686                 2.7114                 2.7683
 Frc consts  --      0.3295                 0.2833                 0.3305
 IR Inten    --     16.5946                 3.1461                 2.7317

                     13                     14                     15
                      A                      A                      A
 Frequencies --    513.9656               597.9970               612.2463
 Red. masses --      3.3005                 1.2969                 3.3556
 Frc consts  --      0.5137                 0.2732                 0.7411
 IR Inten    --     11.6352                79.5135                13.5647

                     16                     17                     18
                      A                      A                      A
 Frequencies --    644.4154               682.4282               747.1881
 Red. masses --      2.4925                 3.5825                 3.3264
 Frc consts  --      0.6099                 0.9830                 1.0942
 IR Inten    --     15.5870                13.1460                14.3360

                     19                     20                     21
                      A                      A                      A
 Frequencies --    768.3141               861.8857               882.1274
 Red. masses --      4.6774                 1.9899                 2.0781
 Frc consts  --      1.6268                 0.8709                 0.9527
 IR Inten    --     19.0210                 4.7689                 0.9392

                     22                     23                     24
                      A                      A                      A
 Frequencies --    915.2418               934.0613               951.7525
 Red. masses --      1.9048                 1.7489                 2.0378
 Frc consts  --      0.9401                 0.8990                 1.0876
 IR Inten    --      6.7818               106.6558                 8.4900

                     25                     26                     27
                      A                      A                      A
 Frequencies --    972.1540              1023.1252              1051.1176
 Red. masses --      2.0196                 1.8619                 2.1553
 Frc consts  --      1.1245                 1.1483                 1.4030
 IR Inten    --     21.5002                37.6380                 5.7371

                     28                     29                     30
                      A                      A                      A
 Frequencies --   1053.3689              1103.9906              1146.8593
 Red. masses --      1.8280                 2.0043                 1.6543
 Frc consts  --      1.1951                 1.4393                 1.2820
 IR Inten    --     14.8150                53.2413                 3.8519

                     31                     32                     33
                      A                      A                      A
 Frequencies --   1163.7667              1219.3282              1224.7776
 Red. masses --      2.0555                 1.6819                 1.2209
 Frc consts  --      1.6402                 1.4733                 1.0791
 IR Inten    --    167.7895                 4.5722                 6.2915

                     34                     35                     36
                      A                      A                      A
 Frequencies --   1279.2888              1295.0919              1323.9739
 Red. masses --      1.4719                 1.6371                 1.2596
 Frc consts  --      1.4193                 1.6178                 1.3009
 IR Inten    --      1.2762                 0.1549                17.1140

                     37                     38                     39
                      A                      A                      A
 Frequencies --   1334.4535              1346.4131              1358.7318
 Red. masses --      1.3710                 1.5223                 1.8892
 Frc consts  --      1.4385                 1.6259                 2.0549
 IR Inten    --      1.3383                 0.8999                 3.6478

                     40                     41                     42
                      A                      A                      A
 Frequencies --   1374.1882              1380.1656              1503.4418
 Red. masses --      1.3783                 1.7854                 1.0871
 Frc consts  --      1.5335                 2.0037                 1.4478
 IR Inten    --      1.8819                12.7361                 4.9696

                     43                     44                     45
                      A                      A                      A
 Frequencies --   1512.6714              1524.2522              1709.8949
 Red. masses --      1.0829                 1.1009                 1.0921
 Frc consts  --      1.4600                 1.5070                 1.8812
 IR Inten    --      7.3372                 2.6546                22.2360

                     46                     47                     48
                      A                      A                      A
 Frequencies --   1839.2492              2692.8150              3063.2433
 Red. masses --      9.9714                 1.0381                 1.0664
 Frc consts  --     19.8742                 4.4350                 5.8957
 IR Inten    --    299.3335                 1.3461                17.3585

                     49                     50                     51
                      A                      A                      A
 Frequencies --   3079.9090              3086.0767              3111.9934
 Red. masses --      1.0660                 1.0597                 1.0860
 Frc consts  --      5.9580                 5.9462                 6.1968
 IR Inten    --     15.7916                15.9858                17.8393

                     52                     53                     54
                      A                      A                      A
 Frequencies --   3129.1979              3137.9138              3145.1418
 Red. masses --      1.1028                 1.1024                 1.1010
 Frc consts  --      6.3622                 6.3955                 6.4171
 IR Inten    --     15.2111                19.4776                 7.9547

                     55                     56                     57
                      A                      A                      A
 Frequencies --   3459.6035              3537.0582              3683.3491
 Red. masses --      1.0507                 1.0908                 1.0643
 Frc consts  --      7.4093                 8.0401                 8.5074
 IR Inten    --      0.0834                 0.2586                54.1523

 - Thermochemistry -
 -------------------
 Temperature   298.150 Kelvin.  Pressure   1.00000 Atm.
 Atom     1 has atomic number  6 and mass  12.00000

 Molecular mass:   161.05105 amu.
 Principal axes and moments of inertia in atomic units:
                           1         2         3
     Eigenvalues --   994.360862066.299912576.71227
           X            0.99999  -0.00407  -0.00311
           Y            0.00408   0.99999   0.00160
           Z            0.00310  -0.00161   0.99999
 This molecule is an asymmetric top.
 Rotational symmetry number  1.
 Warning -- assumption of classical behavior for rotation
           may cause significant error
 Rotational temperatures (Kelvin)      0.08711     0.04192     0.03361
 Rotational constants (GHZ):           1.81498     0.87342     0.70040
 Zero-point vibrational energy     455505.2 (Joules/Mol)
                                  108.86835 (Kcal/Mol)
 Warning -- explicit consideration of  15 degrees of freedom as
           vibrations may cause significant error
 Vibrational temperatures:     65.87   100.17   206.77   303.62   368.20
          (Kelvin)            388.78   401.53   422.82   511.65   547.02
                              605.86   647.68   739.48   860.38   880.89
                              927.17   981.86  1075.04  1105.43  1240.06
                             1269.18  1316.83  1343.91  1369.36  1398.71
                             1472.05  1512.32  1515.56  1588.40  1650.07
                             1674.40  1754.34  1762.18  1840.61  1863.35
                             1904.90  1919.98  1937.19  1954.91  1977.15
                             1985.75  2163.12  2176.40  2193.06  2460.16
                             2646.27  3874.36  4407.32  4431.30  4440.18
                             4477.46  4502.22  4514.76  4525.16  4977.60
                             5089.04  5299.52

 Zero-point correction=                           0.173493 (Hartree/Particle)
 Thermal correction to Energy=                    0.183767
 Thermal correction to Enthalpy=                  0.184711
 Thermal correction to Gibbs Free Energy=         0.137454
 Sum of electronic and zero-point Energies=           -838.520999
 Sum of electronic and thermal Energies=              -838.510725
 Sum of electronic and thermal Enthalpies=            -838.509781
 Sum of electronic and thermal Free Energies=         -838.557038

                     E (Thermal)             CV                S
                      KCal/Mol        Cal/Mol-Kelvin    Cal/Mol-Kelvin
 Total                  115.316             39.205             99.461
 Electronic               0.000              0.000              0.000
 Translational            0.889              2.981             41.139
 Rotational               0.889              2.981             30.050
 Vibrational            113.538             33.244             28.273
 Vibration     1          0.595              1.979              4.992
 Vibration     2          0.598              1.969              4.164
 Vibration     3          0.616              1.909              2.754
 Vibration     4          0.643              1.824              2.035
 Vibration     5          0.666              1.753              1.689
 Vibration     6          0.674              1.728              1.595
 Vibration     7          0.679              1.712              1.539
 Vibration     8          0.689              1.685              1.452
 Vibration     9          0.731              1.564              1.141
 Vibration    10          0.750              1.512              1.038
 Vibration    11          0.784              1.424              0.888
 Vibration    12          0.809              1.361              0.795
 Vibration    13          0.869              1.219              0.624
 Vibration    14          0.956              1.036              0.453
 Vibration    15          0.971              1.006              0.429

 Optimization completed.
    -- Stationary point found.
 Normal termination of Gaussian 16 at Tue Dec  8 10:26:21 2020.

 ----------------------------------------------------------------------
 # B3LYP/6-311++G(d,p) empiricaldispersion=gd3bj scf=xqc pop=npa geom=c
 heck
 ----------------------------------------------------------------------

 -------------------------------------
 CID_19354182_JID_237_Energie_neutraal
 -------------------------------------
 Structure from the checkpoint file:  "JID_237.chk"
 Charge =  0 Multiplicity = 1

 SCF Done:  E(RB3LYP) =  -838.867645772     A.U. after   14 cycles
 Normal termination of Gaussian 16 at Tue Dec  8 10:28:09 2020.

 ----------------------------------------------------------------------
 # B3LYP/6-311++G(d,p) empiricaldispersion=gd3bj scf=xqc pop=npa geom=c
 heck
 ----------------------------------------------------------------------

 -----------------------------------
 CID_19354182_JID_237_Energie_kation
 -----------------------------------
 Structure from the checkpoint file:  "JID_237.chk"
 Charge =  1 Multiplicity = 2

 SCF Done:  E(UB3LYP) =  -838.544525615     A.U. after   25 cycles
 Normal termination of Gaussian 16 at Tue Dec  8 10:33:28 2020.
 Gaussian 16:  ES64L-G16RevA.03 25-Dec-2016

 ----------------------------------------------------------------------
 # B3LYP/6-311++G(d,p) empiricaldispersion=gd3bj scf=xqc pop=npa geom=c
 heck
 ----------------------------------------------------------------------

 ----------------------------------
 CID_19354182_JID_237_Energie_anion
 ----------------------------------
 Structure from the checkpoint file:  "JID_237.chk"
 Charge = -1 Multiplicity = 2

                         Standard orientation:
 ---------------------------------------------------------------------
 Center     Atomic      Atomic             Coordinates (Angstroms)
 Number     Number       Type             X           Y           Z
 ---------------------------------------------------------------------
      1          6           0       -1.201457    1.474427    0.741313
      2          6           0        0.090430    0.812142    1.227629
      3          6           0        0.871518    0.513395   -0.085312
      4          6           0       -0.233120    0.373703   -1.187639
      5          6           0       -1.586440    0.644085   -0.492116
      6         16           0       -2.518259   -0.904308   -0.079928
      7          6           0        1.697102   -0.765632    0.049064
      8          8           0        2.903173   -0.832123   -0.040356
      9          8           0        0.932252   -1.862768    0.297330
     10          7           0        1.715278    1.665167   -0.402082
     11          1           0       -0.980813    2.499774    0.420402
     12          1           0       -1.988789    1.504763    1.498059
     13          1           0        0.681242    1.449260    1.892219
     14          1           0       -0.136920   -0.115208    1.760858
     15          1           0       -0.215911   -0.592416   -1.694845
     16          1           0       -0.047313    1.151514   -1.935033
     17          1           0       -2.274860    1.180653   -1.149718
     18          1           0       -1.463803   -1.608717    0.379532
     19          1           0        1.547550   -2.616387    0.370845
     20          1           0        2.477325    1.705899    0.274959
     21          1           0        2.175898    1.500027   -1.297287
 ---------------------------------------------------------------------

 SCF Done:  E(UB3LYP) =  -838.854315882     A.U. after   33 cycles
 SCF Done:  E(UB3LYP) =  -838.854315882     a.u. after    1 cycles

 The electronic state is 2-A.
 Alpha  occ. eigenvalues --  -88.72996 -19.06104 -19.01227 -14.19474 -10.19795
 Alpha  occ. eigenvalues --  -10.12101 -10.10658 -10.07448 -10.06956 -10.06848
 Alpha  occ. eigenvalues --   -7.81721  -5.78080  -5.77744  -5.77117  -1.00316
 Alpha  occ. eigenvalues --   -0.91567  -0.80568  -0.73241  -0.64645  -0.62104
 Alpha  occ. eigenvalues --   -0.58805  -0.52771  -0.46962  -0.46227  -0.40959
 Alpha  occ. eigenvalues --   -0.39859  -0.38398  -0.37676  -0.34872  -0.34074
 Alpha  occ. eigenvalues --   -0.31767  -0.30789  -0.28454  -0.27545  -0.25798
 Alpha  occ. eigenvalues --   -0.25286  -0.24011  -0.23590  -0.22046  -0.21109
 Alpha  occ. eigenvalues --   -0.17886  -0.15582  -0.13236   0.04804
 Alpha virt. eigenvalues --    0.07102   0.08151   0.08453   0.09845   0.10226
 Alpha virt. eigenvalues --    0.10617   0.10998   0.11036   0.11536   0.13262
 Alpha virt. eigenvalues --    0.13831   0.13974   0.15195   0.16147   0.17268

  Beta  occ. eigenvalues --  -88.72986 -19.06025 -19.01206 -14.19440 -10.19792
  Beta  occ. eigenvalues --  -10.12091 -10.10647 -10.07422 -10.06931 -10.06835
  Beta  occ. eigenvalues --   -7.81709  -5.78062  -5.77735  -5.77109  -1.00225
  Beta  occ. eigenvalues --   -0.91486  -0.80530  -0.73203  -0.64594  -0.62045
  Beta  occ. eigenvalues --   -0.58740  -0.52668  -0.46911  -0.46124  -0.40889
  Beta  occ. eigenvalues --   -0.39806  -0.38355  -0.37625  -0.34822  -0.34034
  Beta  occ. eigenvalues --   -0.31711  -0.30741  -0.28408  -0.27504  -0.25765
  Beta  occ. eigenvalues --   -0.25251  -0.23965  -0.23549  -0.21992  -0.21077
  Beta  occ. eigenvalues --   -0.17842  -0.15524  -0.13212
  Beta virt. eigenvalues --    0.07216   0.08418   0.08914   0.09176   0.09923
  Beta virt. eigenvalues --    0.10772   0.11060   0.11165   0.11393   0.12158
  Beta virt. eigenvalues --    0.13653   0.14192   0.14432   0.15560   0.16275

 Mulliken charges and spin densities:
               1          2
     1  C   -0.961619   0.597591
     2  C    0.596144  -1.129797
     3  C   -0.153666   0.320853
     4  C   -0.282673  -0.488911
     5  C    0.897968  -0.383739
     6  S    0.265207  -0.582922
     7  C    1.702348  -1.914157
     8  O   -0.272805   0.023362
     9  O   -0.288667   0.123269
    10  N   -0.446991   0.161982
    11  H    0.038548   0.121010
    12  H   -0.229476   0.393344
    13  H   -0.138227   0.272455
    14  H   -0.367452   0.555256
    15  H   -0.447837   0.673526
    16  H   -0.157304   0.302856
    17  H   -0.167295   0.463433
    18  H    0.085302  -0.020304
    19  H   -0.617989   0.946773
    20  H    0.029689   0.227943
    21  H   -0.083206   0.336177
 Sum of Mulliken charges =  -1.00000   1.00000

 Dipole moment (field-independent basis, Debye):
    X=             -2.2108    Y=              3.3206    Z=             -0.0150  Tot=              3.9892
 Quadrupole moment (field-independent basis, Debye-Ang):
   XX=           -114.6555   YY=           -112.4011   ZZ=            -99.3552
   XY=              5.4643   XZ=             -0.8338   YZ=              2.3523

 Summary of Natural Population Analysis:

                                       Natural Population
                Natural  -----------------------------------------------
    Atom  No    Charge         Core      Valence    Rydberg      Total
 -----------------------------------------------------------------------
      C    1   -0.19514      0.99960     2.18698    0.00857     3.19514
      C    2   -0.18943      0.99959     2.17905    0.01078     3.18943
      C    3    0.00931      0.99954     1.97450    0.01665     2.99069
      C    4   -0.19233      0.99957     2.18162    0.01114     3.19233
      C    5   -0.15913      0.99956     2.14595    0.01362     3.15913
      S    6   -0.03642      4.99963     3.02187    0.01491     8.03642
      C    7    0.40849      0.99961     1.56578    0.02612     2.59151
      O    8   -0.30655      0.99987     3.29978    0.00690     4.30655
      O    9   -0.35327      0.99987     3.34469    0.00871     4.35327
      N   10   -0.41687      0.99976     2.90665    0.01046     3.91687
      H   11    0.10350      0.00000     0.39482    0.00168     0.39650
      H   12    0.10549      0.00000     0.39313    0.00137     0.39451
      H   13    0.10524      0.00000     0.39347    0.00129     0.39476
      H   14    0.10764      0.00000     0.39001    0.00235     0.39236
      H   15    0.11323      0.00000     0.38474    0.00204     0.38677
      H   16    0.10930      0.00000     0.38888    0.00182     0.39070
      H   17    0.10622      0.00000     0.39261    0.00116     0.39378
      H   18    0.07329      0.00000     0.42328    0.00343     0.42671
      H   19    0.25067      0.00000     0.21546    0.03387     0.24933
      H   20    0.17895      0.00000     0.31903    0.00202     0.32105
      H   21    0.17779      0.00000     0.32016    0.00205     0.32221
 =======================================================================
   * Total *   -0.00000     13.99660    28.82246    0.18094    43.00000

 Normal termination of Gaussian 16 at Tue Dec  8 10:42:02 2020.
