 Gaussian 16, Revision A.03,

 -----------------------------------------------------------
 # opt freq B3LYP/6-31G(d) empiricaldispersion=gd3bj scf=xqc
 -----------------------------------------------------------

 -------------------------------
 CID_84600304_JID_10234_neutraal
 -------------------------------
 Symbolic Z-matrix:
 Charge =  0 Multiplicity = 1

 SCF Done:  E(RB3LYP) =  -933.677682219     A.U. after   15 cycles
 SCF Done:  E(RB3LYP) =  -933.685932817     A.U. after   13 cycles
 SCF Done:  E(RB3LYP) =  -933.688134700     A.U. after   13 cycles
 SCF Done:  E(RB3LYP) =  -933.688648637     A.U. after   13 cycles
 SCF Done:  E(RB3LYP) =  -933.690734348     A.U. after   12 cycles
 SCF Done:  E(RB3LYP) =  -933.690917872     A.U. after   13 cycles
 SCF Done:  E(RB3LYP) =  -933.690393960     A.U. after   13 cycles
 SCF Done:  E(RB3LYP) =  -933.691729848     A.U. after   12 cycles
 SCF Done:  E(RB3LYP) =  -933.691936565     A.U. after   12 cycles
 SCF Done:  E(RB3LYP) =  -933.692074419     A.U. after   11 cycles
 SCF Done:  E(RB3LYP) =  -933.693786238     A.U. after    8 cycles
 SCF Done:  E(RB3LYP) =  -933.693786605     A.U. after    8 cycles
 SCF Done:  E(RB3LYP) =  -933.693786716     A.U. after    7 cycles
 SCF Done:  E(RB3LYP) =  -933.693786765     A.U. after    7 cycles
 SCF Done:  E(RB3LYP) =  -933.693786782     A.U. after    6 cycles
 Optimization completed.
    -- Stationary point found.
 Normal termination of Gaussian 16 at Sun Dec 13 12:56:19 2020.

 --------------------------------------------------------------------
 #N Geom=AllCheck Guess=TCheck SCRF=Check GenChk RB3LYP/6-31G(d) Freq
 --------------------------------------------------------------------

 Structure from the checkpoint file:  "JID_10234.chk"
 -------------------------------
 CID_84600304_JID_10234_neutraal
 -------------------------------
 Charge =  0 Multiplicity = 1

 SCF Done:  E(RB3LYP) =  -933.693786782     A.U. after    1 cycles

  Exact polarizability: 253.334   5.831 179.748  12.075   9.056 104.077
 Approx polarizability: 340.818   9.811 300.366  32.397  32.686 172.162

                      1                      2                      3
                      A                      A                      A
 Frequencies --     22.9125                32.9209                44.9148
 Red. masses --      4.4109                 4.8178                 2.9980
 Frc consts  --      0.0014                 0.0031                 0.0036
 IR Inten    --      0.1589                 0.1844                 0.1808

                      4                      5                      6
                      A                      A                      A
 Frequencies --     70.2120                76.4092                79.4184
 Red. masses --      3.2891                 2.6516                 2.2991
 Frc consts  --      0.0096                 0.0091                 0.0085
 IR Inten    --      0.5043                 0.8816                 1.3872

                      7                      8                      9
                      A                      A                      A
 Frequencies --     96.5550               121.8198               129.4962
 Red. masses --      1.7264                 4.1836                 2.7617
 Frc consts  --      0.0095                 0.0366                 0.0273
 IR Inten    --      1.5687                 1.5513                 0.1246

                     10                     11                     12
                      A                      A                      A
 Frequencies --    151.3487               165.2500               197.8683
 Red. masses --      3.3695                 3.3920                 1.7983
 Frc consts  --      0.0455                 0.0546                 0.0415
 IR Inten    --      2.3905                 0.3263                 0.7022

                     13                     14                     15
                      A                      A                      A
 Frequencies --    205.6120               218.1438               247.5100
 Red. masses --      1.8216                 2.6612                 2.7047
 Frc consts  --      0.0454                 0.0746                 0.0976
 IR Inten    --      1.7146                 4.4538                 7.0657

                     16                     17                     18
                      A                      A                      A
 Frequencies --    260.9661               272.3015               281.4932
 Red. masses --      4.3178                 4.7867                 2.2437
 Frc consts  --      0.1733                 0.2091                 0.1047
 IR Inten    --      1.0023                 0.9546                 5.7485

                     19                     20                     21
                      A                      A                      A
 Frequencies --    284.9880               320.5114               351.9614
 Red. masses --      2.3899                 4.9338                 2.9326
 Frc consts  --      0.1144                 0.2986                 0.2140
 IR Inten    --      1.2705                 2.5291                11.4048

                     22                     23                     24
                      A                      A                      A
 Frequencies --    374.2911               404.1036               422.8261
 Red. masses --      4.1268                 2.2422                 5.2759
 Frc consts  --      0.3406                 0.2157                 0.5557
 IR Inten    --      3.1528                 0.8746                 1.1251

                     25                     26                     27
                      A                      A                      A
 Frequencies --    466.9622               516.3581               547.0653
 Red. masses --      5.0775                 5.6106                 3.5469
 Frc consts  --      0.6523                 0.8814                 0.6254
 IR Inten    --      5.3731                 4.3060                 9.5662

                     28                     29                     30
                      A                      A                      A
 Frequencies --    566.2955               598.1867               650.5633
 Red. masses --      3.6122                 6.2325                 6.1617
 Frc consts  --      0.6825                 1.3140                 1.5365
 IR Inten    --      7.0737                 2.3872                 2.1611

                     31                     32                     33
                      A                      A                      A
 Frequencies --    675.2505               682.3072               722.0884
 Red. masses --      6.9525                10.4103                 6.1656
 Frc consts  --      1.8678                 2.8554                 1.8941
 IR Inten    --     30.9064                 1.5688                21.4089

                     34                     35                     36
                      A                      A                      A
 Frequencies --    762.9175               771.1266               798.0524
 Red. masses --      6.0242                 5.6135                 1.7937
 Frc consts  --      2.0659                 1.9667                 0.6731
 IR Inten    --     25.0146                 5.3015                13.1191

                     37                     38                     39
                      A                      A                      A
 Frequencies --    804.7047               831.4300               851.0683
 Red. masses --      2.4447                 2.8345                 2.6974
 Frc consts  --      0.9327                 1.1545                 1.1511
 IR Inten    --     13.5754                19.4702                 9.7633

                     40                     41                     42
                      A                      A                      A
 Frequencies --    860.3774               904.1782               916.1834
 Red. masses --      1.4438                 1.9479                 5.4288
 Frc consts  --      0.6297                 0.9383                 2.6849
 IR Inten    --      5.5751                11.0516                 1.2399

                     43                     44                     45
                      A                      A                      A
 Frequencies --    958.9133               966.0515               984.0347
 Red. masses --      1.4758                 6.3090                 2.1779
 Frc consts  --      0.7995                 3.4691                 1.2426
 IR Inten    --      2.8796                52.7975                 8.4011

                     46                     47                     48
                      A                      A                      A
 Frequencies --   1011.0040              1018.5372              1031.9928
 Red. masses --      1.1357                 2.3030                 3.4996
 Frc consts  --      0.6840                 1.4077                 2.1959
 IR Inten    --     28.2239                 6.0297               122.1501

                     49                     50                     51
                      A                      A                      A
 Frequencies --   1043.8258              1095.1600              1115.6852
 Red. masses --      2.1221                 2.0208                 2.6140
 Frc consts  --      1.3623                 1.4280                 1.9171
 IR Inten    --     50.6871                 1.9047                38.7178

                     52                     53                     54
                      A                      A                      A
 Frequencies --   1121.3536              1166.3175              1178.6179
 Red. masses --      3.9241                 1.2939                 1.2570
 Frc consts  --      2.9072                 1.0370                 1.0288
 IR Inten    --     18.0431                 0.0910                 4.0079

                     55                     56                     57
                      A                      A                      A
 Frequencies --   1184.7683              1195.1708              1210.0229
 Red. masses --      2.2698                 2.3217                 1.4654
 Frc consts  --      1.8772                 1.9540                 1.2641
 IR Inten    --    175.7147               166.6428                 6.2422

                     58                     59                     60
                      A                      A                      A
 Frequencies --   1240.6716              1265.9679              1277.4707
 Red. masses --      3.4788                 2.3162                 1.5625
 Frc consts  --      3.1550                 2.1871                 1.5023
 IR Inten    --      1.7990               117.9856                51.3420

                     61                     62                     63
                      A                      A                      A
 Frequencies --   1284.4799              1304.1326              1312.3504
 Red. masses --      1.9510                 1.1616                 6.3463
 Frc consts  --      1.8966                 1.1639                 6.4398
 IR Inten    --     31.4878                 7.2015               147.8143

                     64                     65                     66
                      A                      A                      A
 Frequencies --   1340.9039              1349.8411              1359.3312
 Red. masses --      1.3187                 1.3586                 3.8124
 Frc consts  --      1.3970                 1.4585                 4.1505
 IR Inten    --      8.8956                22.0266               206.0362

                     67                     68                     69
                      A                      A                      A
 Frequencies --   1388.3022              1394.3399              1411.9725
 Red. masses --      1.4174                 2.0975                 2.7234
 Frc consts  --      1.6095                 2.4026                 3.1990
 IR Inten    --     14.2825                44.7923               117.4244

                     70                     71                     72
                      A                      A                      A
 Frequencies --   1421.7563              1434.8265              1466.0971
 Red. masses --      1.8594                 1.2212                 1.3701
 Frc consts  --      2.2145                 1.4812                 1.7352
 IR Inten    --     81.9261                 0.1701                17.7522

                     73                     74                     75
                      A                      A                      A
 Frequencies --   1468.2726              1493.5609              1511.8119
 Red. masses --      2.6374                 2.3585                 1.0961
 Frc consts  --      3.3500                 3.0998                 1.4760
 IR Inten    --     37.2185                15.0112                 5.7227

                     76                     77                     78
                      A                      A                      A
 Frequencies --   1513.3181              1514.1845              1514.7783
 Red. masses --      1.0434                 1.0846                 1.1276
 Frc consts  --      1.4079                 1.4652                 1.5244
 IR Inten    --      6.9376                 2.0394                33.9979

                     79                     80                     81
                      A                      A                      A
 Frequencies --   1518.5793              1526.1259              1527.9589
 Red. masses --      1.6245                 1.1207                 1.0637
 Frc consts  --      2.2072                 1.5378                 1.4632
 IR Inten    --      3.8906                16.0388                 4.7588

                     82                     83                     84
                      A                      A                      A
 Frequencies --   1536.0665              1540.6869              1561.7100
 Red. masses --      1.0952                 1.4200                 2.9380
 Frc consts  --      1.5225                 1.9859                 4.2218
 IR Inten    --     12.5609                15.5948                46.7838

                     85                     86                     87
                      A                      A                      A
 Frequencies --   1606.4529              1652.4014              1754.0656
 Red. masses --      6.3422                 8.2856                 5.9914
 Frc consts  --      9.6434                13.3293                10.8610
 IR Inten    --     86.1639               330.3159                 5.6063

                     88                     89                     90
                      A                      A                      A
 Frequencies --   1782.3642              3029.8875              3048.8820
 Red. masses --     11.2982                 1.0638                 1.0346
 Frc consts  --     21.1472                 5.7541                 5.6666
 IR Inten    --    235.6060                35.8426                26.0675

                     91                     92                     93
                      A                      A                      A
 Frequencies --   3064.9823              3072.2909              3074.9489
 Red. masses --      1.0356                 1.0329                 1.0984
 Frc consts  --      5.7320                 5.7443                 6.1188
 IR Inten    --     49.5913                57.0990                10.3113

                     94                     95                     96
                      A                      A                      A
 Frequencies --   3099.6768              3117.7302              3122.0718
 Red. masses --      1.0579                 1.1026                 1.1030
 Frc consts  --      5.9886                 6.3143                 6.3344
 IR Inten    --     39.4678                33.5258                52.7051

                     97                     98                     99
                      A                      A                      A
 Frequencies --   3137.6900              3148.5799              3149.0718
 Red. masses --      1.1065                 1.1022                 1.0989
 Frc consts  --      6.4183                 6.4381                 6.4207
 IR Inten    --     16.7616                27.4393                 2.2522

                    100                    101                    102
                      A                      A                      A
 Frequencies --   3157.9547              3165.4847              3179.9579
 Red. masses --      1.0933                 1.0953                 1.1035
 Frc consts  --      6.4240                 6.4666                 6.5747
 IR Inten    --      3.4881                32.4165                 1.9006

                    103                    104                    105
                      A                      A                      A
 Frequencies --   3192.2384              3210.0817              3274.5450
 Red. masses --      1.1047                 1.0903                 1.0963
 Frc consts  --      6.6326                 6.6195                 6.9260
 IR Inten    --      5.5796                 5.8820                 3.9224

 - Thermochemistry -
 -------------------
 Temperature   298.150 Kelvin.  Pressure   1.00000 Atm.
 Atom     1 has atomic number  6 and mass  12.00000

 Molecular mass:   275.12699 amu.
 Principal axes and moments of inertia in atomic units:
                           1         2         3
     Eigenvalues --  2296.34047********************
           X            0.99987   0.01575  -0.00264
           Y           -0.01577   0.99986  -0.00557
           Z            0.00255   0.00561   0.99998
 This molecule is an asymmetric top.
 Rotational symmetry number  1.
 Warning -- assumption of classical behavior for rotation
           may cause significant error
 Rotational temperatures (Kelvin)      0.03772     0.00812     0.00702
 Rotational constants (GHZ):           0.78592     0.16910     0.14633
 Zero-point vibrational energy     792892.4 (Joules/Mol)
                                  189.50584 (Kcal/Mol)
 Warning -- explicit consideration of  29 degrees of freedom as
           vibrations may cause significant error
 Vibrational temperatures:     32.97    47.37    64.62   101.02   109.94
          (Kelvin)            114.27   138.92   175.27   186.32   217.76
                              237.76   284.69   295.83   313.86   356.11
                              375.47   391.78   405.01   410.03   461.14
                              506.39   538.52   581.41   608.35   671.85
                              742.92   787.10   814.77   860.66   936.02
                              971.53   981.69  1038.92  1097.67  1109.48
                             1148.22  1157.79  1196.24  1224.50  1237.89
                             1300.91  1318.18  1379.66  1389.93  1415.81
                             1454.61  1465.45  1484.81  1501.83  1575.69
                             1605.22  1613.38  1678.07  1695.77  1704.62
                             1719.58  1740.95  1785.05  1821.45  1838.00
                             1848.08  1876.36  1888.18  1929.26  1942.12
                             1955.77  1997.46  2006.14  2031.51  2045.59
                             2064.40  2109.39  2112.52  2148.90  2175.16
                             2177.33  2178.57  2179.43  2184.90  2195.75
                             2198.39  2210.06  2216.70  2246.95  2311.33
                             2377.44  2523.71  2564.42  4359.33  4386.66
                             4409.83  4420.34  4424.17  4459.74  4485.72
                             4491.96  4514.44  4530.10  4530.81  4543.59
                             4554.43  4575.25  4592.92  4618.59  4711.34

 Zero-point correction=                           0.301997 (Hartree/Particle)
 Thermal correction to Energy=                    0.321525
 Thermal correction to Enthalpy=                  0.322469
 Thermal correction to Gibbs Free Energy=         0.252359
 Sum of electronic and zero-point Energies=           -933.391790
 Sum of electronic and thermal Energies=              -933.372262
 Sum of electronic and thermal Enthalpies=            -933.371317
 Sum of electronic and thermal Free Energies=         -933.441428

                     E (Thermal)             CV                S
                      KCal/Mol        Cal/Mol-Kelvin    Cal/Mol-Kelvin
 Total                  201.760             71.265            147.560
 Electronic               0.000              0.000              0.000
 Translational            0.889              2.981             42.735
 Rotational               0.889              2.981             34.068
 Vibrational            199.983             65.303             70.756
 Vibration     1          0.593              1.985              6.364
 Vibration     2          0.594              1.983              5.645
 Vibration     3          0.595              1.979              5.030
 Vibration     4          0.598              1.968              4.147
 Vibration     5          0.599              1.965              3.981
 Vibration     6          0.600              1.963              3.905
 Vibration     7          0.603              1.952              3.523
 Vibration     8          0.609              1.931              3.071
 Vibration     9          0.612              1.924              2.954
 Vibration    10          0.619              1.901              2.655
 Vibration    11          0.624              1.885              2.489
 Vibration    12          0.637              1.843              2.153
 Vibration    13          0.640              1.832              2.082
 Vibration    14          0.646              1.813              1.974
 Vibration    15          0.661              1.767              1.748
 Vibration    16          0.669              1.744              1.655
 Vibration    17          0.675              1.724              1.582
 Vibration    18          0.681              1.708              1.525
 Vibration    19          0.683              1.702              1.504
 Vibration    20          0.706              1.634              1.307
 Vibration    21          0.729              1.571              1.157
 Vibration    22          0.745              1.525              1.062
 Vibration    23          0.769              1.461              0.948
 Vibration    24          0.785              1.421              0.882
 Vibration    25          0.824              1.323              0.746
 Vibration    26          0.871              1.214              0.618
 Vibration    27          0.902              1.146              0.550
 Vibration    28          0.922              1.104              0.511
 Vibration    29          0.956              1.036              0.453

                           ! Non-Optimized Parameters !
 Normal termination of Gaussian 16 at Sun Dec 13 13:16:09 2020.

 ----------------------------------------------------------------------
 # B3LYP/6-311++G(d,p) empiricaldispersion=gd3bj scf=xqc pop=npa geom=c
 heck
 ----------------------------------------------------------------------

 ---------------------------------------
 CID_84600304_JID_10234_Energie_neutraal
 ---------------------------------------
 Structure from the checkpoint file:  "JID_10234.chk"
 Charge =  0 Multiplicity = 1

 SCF Done:  E(RB3LYP) =  -933.946903021     A.U. after   16 cycles
 Normal termination of Gaussian 16 at Sun Dec 13 13:25:19 2020.

 ----------------------------------------------------------------------
 # B3LYP/6-311++G(d,p) empiricaldispersion=gd3bj scf=xqc pop=npa geom=c
 heck
 ----------------------------------------------------------------------

 -------------------------------------
 CID_84600304_JID_10234_Energie_kation
 -------------------------------------
 Structure from the checkpoint file:  "JID_10234.chk"
 Charge =  1 Multiplicity = 2

 SCF Done:  E(UB3LYP) =  -933.648288327     A.U. after   29 cycles
 Normal termination of Gaussian 16 at Sun Dec 13 13:49:43 2020.
 Gaussian 16:  ES64L-G16RevA.03 25-Dec-2016

 ----------------------------------------------------------------------
 # B3LYP/6-311++G(d,p) empiricaldispersion=gd3bj scf=xqc pop=npa geom=c
 heck
 ----------------------------------------------------------------------

 ------------------------------------
 CID_84600304_JID_10234_Energie_anion
 ------------------------------------
 Structure from the checkpoint file:  "JID_10234.chk"
 Charge = -1 Multiplicity = 2

                         Standard orientation:
 ---------------------------------------------------------------------
 Center     Atomic      Atomic             Coordinates (Angstroms)
 Number     Number       Type             X           Y           Z
 ---------------------------------------------------------------------
      1          6           0        4.760061    2.073071   -0.686855
      2          6           0        5.326367    0.643723   -0.732823
      3          6           0        4.457034   -0.323786    0.015713
      4          6           0        3.783418   -1.337794   -0.532780
      5          6           0        2.867908   -2.233362    0.246022
      6          8           0        1.479329   -1.908165   -0.047609
      7          6           0        0.971556   -0.859544    0.643948
      8          8           0        1.586947   -0.274546    1.517341
      9          6           0       -0.421686   -0.559073    0.243340
     10          6           0       -1.266483   -1.660416   -0.086291
     11          7           0       -2.575379   -1.613665   -0.283579
     12          6           0       -3.088942   -0.379096   -0.147927
     13          6           0       -2.382211    0.809637    0.143592
     14          6           0       -0.988576    0.730547    0.327069
     15          8           0       -0.365233    1.904015    0.519518
     16          6           0        0.998110    2.111444    0.129089
     17          6           0       -3.375627    1.828183    0.127474
     18          7           0       -4.571006    1.322066   -0.133472
     19          7           0       -4.392893   -0.020227   -0.305931
     20          6           0       -5.508760   -0.884247   -0.623996
     21          1           0        3.782206    2.116542   -1.179175
     22          1           0        5.428083    2.779002   -1.192087
     23          1           0        4.629777    2.412334    0.347374
     24          1           0        5.436023    0.319536   -1.774967
     25          1           0        6.334286    0.646839   -0.293819
     26          1           0        4.344899   -0.143888    1.085274
     27          1           0        3.846660   -1.520726   -1.605400
     28          1           0        2.959756   -3.279531   -0.054365
     29          1           0        3.035287   -2.140206    1.320484
     30          1           0       -0.803214   -2.639363   -0.164141
     31          1           0        1.676149    1.867430    0.945357
     32          1           0        1.246714    1.497708   -0.743154
     33          1           0        1.063759    3.169351   -0.133205
     34          1           0       -3.260560    2.887954    0.305768
     35          1           0       -6.256882   -0.842602    0.172682
     36          1           0       -5.968955   -0.574226   -1.566476
     37          1           0       -5.120412   -1.899515   -0.716720
 ---------------------------------------------------------------------

 SCF Done:  E(UB3LYP) =  -933.948702609     A.U. after   33 cycles
 SCF Done:  E(UB3LYP) =  -933.948702609     a.u. after    1 cycles

 The electronic state is 2-A.
 Alpha  occ. eigenvalues --  -19.05254 -19.03283 -18.98733 -14.26453 -14.20361
 Alpha  occ. eigenvalues --  -14.17823 -10.17922 -10.13241 -10.11143 -10.10785
 Alpha  occ. eigenvalues --  -10.10528 -10.10510 -10.08770 -10.08509 -10.08396
 Alpha  occ. eigenvalues --  -10.07843 -10.07221 -10.06716 -10.05830 -10.04695
 Alpha  occ. eigenvalues --   -0.99102  -0.95082  -0.92958  -0.90122  -0.81915
 Alpha  occ. eigenvalues --   -0.73285  -0.72219  -0.68386  -0.67178  -0.65527
 Alpha  occ. eigenvalues --   -0.61607  -0.59558  -0.58672  -0.53745  -0.51945
 Alpha  occ. eigenvalues --   -0.51439  -0.46937  -0.46178  -0.45526  -0.42457
 Alpha  occ. eigenvalues --   -0.41563  -0.39927  -0.38509  -0.37138  -0.36871
 Alpha  occ. eigenvalues --   -0.36263  -0.35647  -0.35245  -0.34685  -0.33846
 Alpha  occ. eigenvalues --   -0.32454  -0.31901  -0.31381  -0.30959  -0.29928
 Alpha  occ. eigenvalues --   -0.29612  -0.28884  -0.28463  -0.27919  -0.26052
 Alpha  occ. eigenvalues --   -0.25432  -0.24950  -0.24788  -0.23723  -0.21095
 Alpha  occ. eigenvalues --   -0.19591  -0.17936  -0.17580  -0.16237  -0.15422
 Alpha  occ. eigenvalues --   -0.14689  -0.12751  -0.10977   0.04098
 Alpha virt. eigenvalues --    0.05592   0.07372   0.07656   0.08161   0.08256
 Alpha virt. eigenvalues --    0.08649   0.08808   0.09491   0.10360   0.10751
 Alpha virt. eigenvalues --    0.10909   0.11191   0.11661   0.12270   0.12706

  Beta  occ. eigenvalues --  -19.05211 -19.03161 -18.98662 -14.26479 -14.20085
  Beta  occ. eigenvalues --  -14.17642 -10.17828 -10.13240 -10.11131 -10.10783
  Beta  occ. eigenvalues --  -10.10498 -10.09962 -10.08713 -10.08495 -10.08390
  Beta  occ. eigenvalues --  -10.07824 -10.07191 -10.06608 -10.05898 -10.04753
  Beta  occ. eigenvalues --   -0.98990  -0.94737  -0.92773  -0.90001  -0.81645
  Beta  occ. eigenvalues --   -0.73106  -0.72185  -0.68117  -0.66886  -0.65399
  Beta  occ. eigenvalues --   -0.61462  -0.59489  -0.58570  -0.53596  -0.51603
  Beta  occ. eigenvalues --   -0.51318  -0.46875  -0.46048  -0.45397  -0.42340
  Beta  occ. eigenvalues --   -0.41414  -0.39739  -0.38436  -0.36947  -0.36749
  Beta  occ. eigenvalues --   -0.36133  -0.35506  -0.34905  -0.34535  -0.33758
  Beta  occ. eigenvalues --   -0.32395  -0.31795  -0.31238  -0.30763  -0.29695
  Beta  occ. eigenvalues --   -0.29461  -0.28800  -0.28383  -0.27790  -0.25948
  Beta  occ. eigenvalues --   -0.25347  -0.24764  -0.24153  -0.23044  -0.20720
  Beta  occ. eigenvalues --   -0.19256  -0.17728  -0.17363  -0.16103  -0.14870
  Beta  occ. eigenvalues --   -0.14501  -0.12132  -0.09980
  Beta virt. eigenvalues --    0.06199   0.07395   0.07641   0.08219   0.08315
  Beta virt. eigenvalues --    0.08893   0.09186   0.09400   0.09662   0.10430
  Beta virt. eigenvalues --    0.10756   0.10948   0.11278   0.11654   0.12303

 Mulliken charges and spin densities:
               1          2
     1  C    0.242087  -0.794759
     2  C   -0.267520  -0.148906
     3  C   -0.181804   0.350699
     4  C    0.459192  -0.356369
     5  C   -0.418224  -0.091729
     6  O    0.077924   0.009579
     7  C   -0.424916   0.138276
     8  O   -0.244036   0.024433
     9  C    1.405689  -0.183714
    10  C   -0.233645  -0.013004
    11  N   -0.165446   0.083262
    12  C   -0.444561   0.015000
    13  C   -0.159865  -0.002091
    14  C   -0.874133   0.392580
    15  O   -0.128889   0.024814
    16  C   -0.222500  -0.127252
    17  C   -0.202507   0.087136
    18  N   -0.341117   0.128783
    19  N    0.250820  -0.022727
    20  C   -0.309964  -0.003634
    21  H    0.025541   0.097604
    22  H   -0.404569   0.556337
    23  H    0.077816   0.063793
    24  H   -0.090676   0.238890
    25  H   -0.089955   0.216252
    26  H    0.077442   0.118844
    27  H    0.096724   0.046619
    28  H    0.123259   0.038001
    29  H    0.173613   0.000270
    30  H    0.183062  -0.004032
    31  H    0.196017   0.007557
    32  H    0.118206   0.054555
    33  H    0.091091   0.054240
    34  H    0.154104  -0.005138
    35  H    0.143038   0.000427
    36  H    0.138444   0.006118
    37  H    0.170257  -0.000716
 Sum of Mulliken charges =  -1.00000   1.00000

 Dipole moment (field-independent basis, Debye):
    X=             -0.3530    Y=             -3.4377    Z=             -0.1181  Tot=              3.4578
 Quadrupole moment (field-independent basis, Debye-Ang):
   XX=           -204.8491   YY=           -144.3336   ZZ=           -135.9874
   XY=             -5.8674   XZ=              6.8343   YZ=              2.1028

 Summary of Natural Population Analysis:

                                       Natural Population
                Natural  -----------------------------------------------
    Atom  No    Charge         Core      Valence    Rydberg      Total
 -----------------------------------------------------------------------
      C    1   -0.28217      0.99966     2.27690    0.00561     3.28217
      C    2   -0.20850      0.99963     2.19932    0.00954     3.20850
      C    3   -0.07009      0.99952     2.05927    0.01130     3.07009
      C    4   -0.11243      0.99951     2.10434    0.00858     3.11243
      C    5   -0.03231      0.99955     2.02052    0.01224     3.03231
      O    6   -0.28171      0.99986     3.27371    0.00814     4.28171
      C    7    0.41237      0.99962     1.56324    0.02477     2.58763
      O    8   -0.31831      0.99987     3.31288    0.00556     4.31831
      C    9   -0.16261      0.99944     2.15462    0.00856     3.16261
      C   10    0.06514      0.99961     1.92185    0.01340     2.93486
      N   11   -0.24757      0.99967     2.73751    0.01039     3.74757
      C   12    0.19311      0.99947     1.79091    0.01650     2.80689
      C   13   -0.11188      0.99945     2.10384    0.00859     3.11188
      C   14    0.30369      0.99934     1.68500    0.01198     2.69631
      O   15   -0.25821      0.99984     3.24961    0.00875     4.25821
      C   16   -0.09798      0.99959     2.09047    0.00792     3.09798
      C   17    0.01687      0.99963     1.96912    0.01438     2.98313
      N   18   -0.11529      0.99972     2.60392    0.01164     3.61529
      N   19   -0.13277      0.99961     2.61892    0.01424     3.63277
      C   20   -0.17315      0.99966     2.16687    0.00662     3.17315
      H   21    0.09921      0.00000     0.39960    0.00120     0.40079
      H   22    0.09926      0.00000     0.39928    0.00146     0.40074
      H   23    0.09703      0.00000     0.40200    0.00097     0.40297
      H   24    0.09642      0.00000     0.40236    0.00122     0.40358
      H   25    0.09913      0.00000     0.39964    0.00123     0.40087
      H   26    0.09717      0.00000     0.40158    0.00125     0.40283
      H   27    0.09144      0.00000     0.40722    0.00134     0.40856
      H   28    0.09007      0.00000     0.40875    0.00118     0.40993
      H   29    0.09741      0.00000     0.40100    0.00159     0.40259
      H   30    0.09018      0.00000     0.40873    0.00109     0.40982
      H   31    0.09814      0.00000     0.40017    0.00168     0.40186
      H   32    0.08404      0.00000     0.41418    0.00178     0.41596
      H   33    0.08386      0.00000     0.41491    0.00122     0.41614
      H   34    0.09497      0.00000     0.40401    0.00102     0.40503
      H   35    0.09330      0.00000     0.40559    0.00111     0.40670
      H   36    0.09343      0.00000     0.40544    0.00113     0.40657
      H   37    0.10872      0.00000     0.39018    0.00110     0.39128
 =======================================================================
   * Total *   -0.00000     19.99224    52.76748    0.24027    73.00000

 Normal termination of Gaussian 16 at Sun Dec 13 14:17:57 2020.
