 Gaussian 16, Revision A.03,

 -----------------------------------------------------------
 # opt freq B3LYP/6-31G(d) empiricaldispersion=gd3bj scf=xqc
 -----------------------------------------------------------

 ------------------------------
 CID_54885310_JID_9906_neutraal
 ------------------------------
 Symbolic Z-matrix:
 Charge =  0 Multiplicity = 1

 SCF Done:  E(RB3LYP) =  -838.544560080     A.U. after   14 cycles
 SCF Done:  E(RB3LYP) =  -838.564592053     A.U. after   12 cycles
 SCF Done:  E(RB3LYP) =  -838.568137656     A.U. after   13 cycles
 SCF Done:  E(RB3LYP) =  -838.569130756     A.U. after   12 cycles
 SCF Done:  E(RB3LYP) =  -838.569644631     A.U. after   11 cycles
 SCF Done:  E(RB3LYP) =  -838.569816144     A.U. after   12 cycles
 SCF Done:  E(RB3LYP) =  -838.569909516     A.U. after   11 cycles
 SCF Done:  E(RB3LYP) =  -838.569970793     A.U. after   11 cycles
 SCF Done:  E(RB3LYP) =  -838.569999939     A.U. after   11 cycles
 SCF Done:  E(RB3LYP) =  -838.570020324     A.U. after   11 cycles
 SCF Done:  E(RB3LYP) =  -838.570036819     A.U. after   11 cycles
 SCF Done:  E(RB3LYP) =  -838.570041705     A.U. after    9 cycles
 SCF Done:  E(RB3LYP) =  -838.570043198     A.U. after    9 cycles
 SCF Done:  E(RB3LYP) =  -838.570043790     A.U. after    8 cycles
 SCF Done:  E(RB3LYP) =  -838.570043903     A.U. after    6 cycles
 SCF Done:  E(RB3LYP) =  -838.570043951     A.U. after    6 cycles
 Optimization completed.
    -- Stationary point found.
 Normal termination of Gaussian 16 at Sat Dec 12 10:07:30 2020.

 --------------------------------------------------------------------
 #N Geom=AllCheck Guess=TCheck SCRF=Check GenChk RB3LYP/6-31G(d) Freq
 --------------------------------------------------------------------

 Structure from the checkpoint file:  "JID_9906.chk"
 ------------------------------
 CID_54885310_JID_9906_neutraal
 ------------------------------
 Charge =  0 Multiplicity = 1

 SCF Done:  E(RB3LYP) =  -838.570043951     A.U. after    1 cycles

  Exact polarizability: 204.689  19.003 148.312   1.865 -13.708 149.394
 Approx polarizability: 261.256  30.998 232.377   7.393 -37.777 259.423

                      1                      2                      3
                      A                      A                      A
 Frequencies --     18.3847                20.9330                30.9016
 Red. masses --      5.6113                 4.6245                 4.3997
 Frc consts  --      0.0011                 0.0012                 0.0025
 IR Inten    --      0.0869                 1.6319                 0.9484

                      4                      5                      6
                      A                      A                      A
 Frequencies --     45.2246                66.2114                75.8593
 Red. masses --      4.4450                 4.0442                 3.3720
 Frc consts  --      0.0054                 0.0104                 0.0114
 IR Inten    --      0.4218                 1.3987                 4.8599

                      7                      8                      9
                      A                      A                      A
 Frequencies --    118.4527               148.9159               166.5748
 Red. masses --      3.4098                 5.1143                 3.6657
 Frc consts  --      0.0282                 0.0668                 0.0599
 IR Inten    --      1.8967                 1.4359                 0.4149

                     10                     11                     12
                      A                      A                      A
 Frequencies --    212.9848               222.1090               263.8268
 Red. masses --      2.5614                 3.6283                 1.5840
 Frc consts  --      0.0685                 0.1055                 0.0650
 IR Inten    --      0.2664                 2.8423                 0.2367

                     13                     14                     15
                      A                      A                      A
 Frequencies --    286.8324               293.2313               320.6144
 Red. masses --      2.9972                 3.1191                 4.0085
 Frc consts  --      0.1453                 0.1580                 0.2428
 IR Inten    --      0.9756                 1.1375                 2.0596

                     16                     17                     18
                      A                      A                      A
 Frequencies --    354.4916               418.5129               425.8136
 Red. masses --      2.1593                 4.3868                 3.1575
 Frc consts  --      0.1599                 0.4527                 0.3373
 IR Inten    --      4.5050                 1.5567                 0.0074

                     19                     20                     21
                      A                      A                      A
 Frequencies --    441.0066               482.1801               509.1526
 Red. masses --      2.3455                 3.5560                 2.9995
 Frc consts  --      0.2688                 0.4871                 0.4581
 IR Inten    --      3.5755                11.0187                14.8185

                     22                     23                     24
                      A                      A                      A
 Frequencies --    532.4547               545.6218               558.3940
 Red. masses --      2.7215                 1.7258                 2.1326
 Frc consts  --      0.4546                 0.3027                 0.3918
 IR Inten    --      1.2300                50.2626                17.1996

                     25                     26                     27
                      A                      A                      A
 Frequencies --    601.8254               656.0272               673.6900
 Red. masses --      3.3243                 5.9527                 3.2799
 Frc consts  --      0.7094                 1.5094                 0.8771
 IR Inten    --     14.1769                 1.3423                 7.5354

                     28                     29                     30
                      A                      A                      A
 Frequencies --    695.3678               719.8414               734.3473
 Red. masses --      3.0562                 3.0197                 4.0372
 Frc consts  --      0.8707                 0.9219                 1.2827
 IR Inten    --     49.5103                24.7762                 0.3783

                     31                     32                     33
                      A                      A                      A
 Frequencies --    763.8915               814.2751               819.8601
 Red. masses --      2.0421                 2.1828                 1.9777
 Frc consts  --      0.7021                 0.8527                 0.7832
 IR Inten    --     25.4248                28.5768                 4.8771

                     34                     35                     36
                      A                      A                      A
 Frequencies --    822.5982               831.8559               845.1701
 Red. masses --      1.3633                 2.5810                 1.5951
 Frc consts  --      0.5435                 1.0523                 0.6713
 IR Inten    --      9.1488                41.0383                36.0725

                     37                     38                     39
                      A                      A                      A
 Frequencies --    894.6041               904.2009               926.9717
 Red. masses --      1.3735                 3.1757                 1.7611
 Frc consts  --      0.6476                 1.5298                 0.8916
 IR Inten    --      9.7880                 8.3189                 2.4451

                     40                     41                     42
                      A                      A                      A
 Frequencies --    940.1335               948.9582               957.6800
 Red. masses --      1.6342                 1.7720                 1.3268
 Frc consts  --      0.8510                 0.9402                 0.7170
 IR Inten    --      1.9695                 2.0305                 0.3440

                     43                     44                     45
                      A                      A                      A
 Frequencies --    983.6203               993.7994              1034.9934
 Red. masses --      7.8941                 2.2140                 2.6667
 Frc consts  --      4.4999                 1.2883                 1.6830
 IR Inten    --     13.0061                 1.1699                 0.8460

                     46                     47                     48
                      A                      A                      A
 Frequencies --   1037.5591              1045.4673              1065.1749
 Red. masses --      1.7312                 4.1405                 3.1291
 Frc consts  --      1.0981                 2.6664                 2.0918
 IR Inten    --      0.2037                19.2020                10.3733

                     49                     50                     51
                      A                      A                      A
 Frequencies --   1075.4123              1086.3464              1116.8724
 Red. masses --      3.1024                 5.4638                 2.0865
 Frc consts  --      2.1140                 3.7991                 1.5335
 IR Inten    --     18.6742                42.4669                17.4890

                     52                     53                     54
                      A                      A                      A
 Frequencies --   1130.0686              1152.3424              1165.2550
 Red. masses --      2.9599                 1.4681                 3.2473
 Frc consts  --      2.2271                 1.1486                 2.5978
 IR Inten    --      7.4027                 1.6791                77.5818

                     55                     56                     57
                      A                      A                      A
 Frequencies --   1186.9220              1188.5033              1214.0261
 Red. masses --      1.2716                 1.2417                 1.1765
 Frc consts  --      1.0555                 1.0334                 1.0216
 IR Inten    --      0.7267                14.8807                22.1206

                     58                     59                     60
                      A                      A                      A
 Frequencies --   1215.9199              1219.7088              1233.4762
 Red. masses --      2.4167                 1.3893                 1.3805
 Frc consts  --      2.1051                 1.2178                 1.2375
 IR Inten    --     21.3278                10.7515                 2.4519

                     61                     62                     63
                      A                      A                      A
 Frequencies --   1245.9506              1263.3131              1271.2539
 Red. masses --      2.1128                 1.1886                 1.4628
 Frc consts  --      1.9324                 1.1176                 1.3929
 IR Inten    --      2.9960                 0.7733                 5.9761

                     64                     65                     66
                      A                      A                      A
 Frequencies --   1285.2004              1299.1658              1301.9558
 Red. masses --      1.8985                 1.3658                 4.2987
 Frc consts  --      1.8476                 1.3582                 4.2932
 IR Inten    --     25.3996                 0.1689               250.8634

                     67                     68                     69
                      A                      A                      A
 Frequencies --   1312.4562              1331.7593              1340.1142
 Red. masses --      2.6301                 1.6396                 1.6885
 Frc consts  --      2.6693                 1.7133                 1.7867
 IR Inten    --     13.1917                 2.9258                24.1266

                     70                     71                     72
                      A                      A                      A
 Frequencies --   1355.7038              1385.9754              1400.5324
 Red. masses --      3.2202                 1.2947                 1.5148
 Frc consts  --      3.4870                 1.4654                 1.7506
 IR Inten    --     51.0050                13.9165                14.3152

                     73                     74                     75
                      A                      A                      A
 Frequencies --   1414.4486              1439.5612              1476.5229
 Red. masses --      1.7395                 2.7069                 2.4877
 Frc consts  --      2.0504                 3.3051                 3.1954
 IR Inten    --      1.9062                 3.3811                 0.8957

                     76                     77                     78
                      A                      A                      A
 Frequencies --   1490.8741              1496.2212              1500.7217
 Red. masses --      1.3400                 2.2869                 1.1999
 Frc consts  --      1.7549                 3.0164                 1.5922
 IR Inten    --     13.1940                13.2486                17.2106

                     79                     80                     81
                      A                      A                      A
 Frequencies --   1503.9764              1520.7505              1523.2890
 Red. masses --      1.0986                 1.0480                 1.2331
 Frc consts  --      1.4641                 1.4279                 1.6858
 IR Inten    --      2.0820                 5.2828                37.6669

                     82                     83                     84
                      A                      A                      A
 Frequencies --   1529.7982              1536.5017              1570.7666
 Red. masses --      1.1655                 1.0648                 2.4649
 Frc consts  --      1.6070                 1.4811                 3.5832
 IR Inten    --      1.7043                46.6983               123.0447

                     85                     86                     87
                      A                      A                      A
 Frequencies --   1591.9262              1637.1030              1678.9198
 Red. masses --      3.9531                 6.4010                 5.8199
 Frc consts  --      5.9024                10.1076                 9.6655
 IR Inten    --     15.9131                10.4479                48.9511

                     88                     89                     90
                      A                      A                      A
 Frequencies --   3022.5483              3056.4068              3057.1887
 Red. masses --      1.0350                 1.0623                 1.0676
 Frc consts  --      5.5711                 5.8468                 5.8788
 IR Inten    --     56.8040                26.8144                28.9796

                     91                     92                     93
                      A                      A                      A
 Frequencies --   3058.0863              3066.9609              3074.6614
 Red. masses --      1.0719                 1.0826                 1.0783
 Frc consts  --      5.9064                 6.0000                 6.0060
 IR Inten    --     15.8328                10.9710                34.3503

                     94                     95                     96
                      A                      A                      A
 Frequencies --   3079.7982              3120.4155              3122.0640
 Red. masses --      1.1065                 1.0999                 1.1044
 Frc consts  --      6.1835                 6.3101                 6.3423
 IR Inten    --     45.7149                 7.1324                50.0775

                     97                     98                     99
                      A                      A                      A
 Frequencies --   3145.3001              3157.1277              3177.1572
 Red. masses --      1.1006                 1.0994                 1.0881
 Frc consts  --      6.4148                 6.4562                 6.4713
 IR Inten    --     21.0406                31.2025                22.7532

                    100                    101                    102
                      A                      A                      A
 Frequencies --   3180.3066              3214.7004              3225.1403
 Red. masses --      1.0886                 1.0930                 1.0911
 Frc consts  --      6.4874                 6.6550                 6.6866
 IR Inten    --     17.1470                10.4326                12.7272

                    103                    104                    105
                      A                      A                      A
 Frequencies --   3278.7683              3475.8734              3650.3894
 Red. masses --      1.0972                 1.0737                 1.0814
 Frc consts  --      6.9494                 7.6429                 8.4904
 IR Inten    --      6.7797                 1.7667                49.3587

 - Thermochemistry -
 -------------------
 Temperature   298.150 Kelvin.  Pressure   1.00000 Atm.
 Atom     1 has atomic number  6 and mass  12.00000

 Molecular mass:   258.14806 amu.
 Principal axes and moments of inertia in atomic units:
                           1         2         3
     Eigenvalues --  2397.75624********************
           X            0.99993   0.01188  -0.00240
           Y           -0.01195   0.99945  -0.03087
           Z            0.00204   0.03089   0.99952
 This molecule is an asymmetric top.
 Rotational symmetry number  1.
 Warning -- assumption of classical behavior for rotation
           may cause significant error
 Rotational temperatures (Kelvin)      0.03612     0.00721     0.00669
 Rotational constants (GHZ):           0.75268     0.15019     0.13930
 Zero-point vibrational energy     820178.3 (Joules/Mol)
                                  196.02732 (Kcal/Mol)
 Warning -- explicit consideration of  25 degrees of freedom as
           vibrations may cause significant error
 Vibrational temperatures:     26.45    30.12    44.46    65.07    95.26
          (Kelvin)            109.14   170.43   214.26   239.66   306.44
                              319.57   379.59   412.69   421.89   461.29
                              510.03   602.15   612.65   634.51   693.75
                              732.56   766.08   785.03   803.40   865.89
                              943.88   969.29  1000.48  1035.69  1056.56
                             1099.07  1171.56  1179.60  1183.54  1196.86
                             1216.01  1287.14  1300.94  1333.71  1352.64
                             1365.34  1377.89  1415.21  1429.86  1489.12
                             1492.82  1504.19  1532.55  1547.28  1563.01
                             1606.93  1625.92  1657.96  1676.54  1707.72
                             1709.99  1746.71  1749.44  1754.89  1774.70
                             1792.65  1817.63  1829.05  1849.12  1869.21
                             1873.22  1888.33  1916.10  1928.13  1950.56
                             1994.11  2015.05  2035.08  2071.21  2124.39
                             2145.04  2152.73  2159.20  2163.89  2188.02
                             2191.67  2201.04  2210.68  2259.98  2290.43
                             2355.43  2415.59  4348.77  4397.49  4398.61
                             4399.90  4412.67  4423.75  4431.14  4489.58
                             4491.95  4525.39  4542.40  4571.22  4575.75
                             4625.24  4640.26  4717.42  5001.01  5252.10

 Zero-point correction=                           0.312389 (Hartree/Particle)
 Thermal correction to Energy=                    0.329421
 Thermal correction to Enthalpy=                  0.330366
 Thermal correction to Gibbs Free Energy=         0.264041
 Sum of electronic and zero-point Energies=           -838.257655
 Sum of electronic and thermal Energies=              -838.240623
 Sum of electronic and thermal Enthalpies=            -838.239678
 Sum of electronic and thermal Free Energies=         -838.306003

                     E (Thermal)             CV                S
                      KCal/Mol        Cal/Mol-Kelvin    Cal/Mol-Kelvin
 Total                  206.715             65.068            139.591
 Electronic               0.000              0.000              0.000
 Translational            0.889              2.981             42.545
 Rotational               0.889              2.981             34.278
 Vibrational            204.938             59.106             62.768
 Vibration     1          0.593              1.986              6.801
 Vibration     2          0.593              1.986              6.544
 Vibration     3          0.594              1.984              5.771
 Vibration     4          0.595              1.979              5.016
 Vibration     5          0.598              1.970              4.263
 Vibration     6          0.599              1.965              3.995
 Vibration     7          0.609              1.934              3.125
 Vibration     8          0.618              1.904              2.686
 Vibration     9          0.624              1.884              2.474
 Vibration    10          0.644              1.821              2.018
 Vibration    11          0.648              1.807              1.942
 Vibration    12          0.670              1.739              1.636
 Vibration    13          0.684              1.698              1.493
 Vibration    14          0.688              1.686              1.455
 Vibration    15          0.706              1.634              1.307
 Vibration    16          0.730              1.566              1.146
 Vibration    17          0.781              1.430              0.897
 Vibration    18          0.788              1.414              0.872
 Vibration    19          0.801              1.381              0.823
 Vibration    20          0.838              1.290              0.704
 Vibration    21          0.864              1.230              0.636
 Vibration    22          0.887              1.178              0.582
 Vibration    23          0.901              1.149              0.553
 Vibration    24          0.914              1.121              0.527
 Vibration    25          0.960              1.028              0.447

                           ! Non-Optimized Parameters !
 Normal termination of Gaussian 16 at Sat Dec 12 10:22:55 2020.

 ----------------------------------------------------------------------
 # B3LYP/6-311++G(d,p) empiricaldispersion=gd3bj scf=xqc pop=npa geom=c
 heck
 ----------------------------------------------------------------------

 --------------------------------------
 CID_54885310_JID_9906_Energie_neutraal
 --------------------------------------
 Structure from the checkpoint file:  "JID_9906.chk"
 Charge =  0 Multiplicity = 1

 SCF Done:  E(RB3LYP) =  -838.799026969     A.U. after   14 cycles
 Normal termination of Gaussian 16 at Sat Dec 12 10:28:44 2020.

 ----------------------------------------------------------------------
 # B3LYP/6-311++G(d,p) empiricaldispersion=gd3bj scf=xqc pop=npa geom=c
 heck
 ----------------------------------------------------------------------

 ------------------------------------
 CID_54885310_JID_9906_Energie_kation
 ------------------------------------
 Structure from the checkpoint file:  "JID_9906.chk"
 Charge =  1 Multiplicity = 2

 SCF Done:  E(UB3LYP) =  -838.520614058     A.U. after   20 cycles
 Normal termination of Gaussian 16 at Sat Dec 12 10:39:54 2020.
 Gaussian 16:  ES64L-G16RevA.03 25-Dec-2016

 ----------------------------------------------------------------------
 # B3LYP/6-311++G(d,p) empiricaldispersion=gd3bj scf=xqc pop=npa geom=c
 heck
 ----------------------------------------------------------------------

 -----------------------------------
 CID_54885310_JID_9906_Energie_anion
 -----------------------------------
 Structure from the checkpoint file:  "JID_9906.chk"
 Charge = -1 Multiplicity = 2

                         Standard orientation:
 ---------------------------------------------------------------------
 Center     Atomic      Atomic             Coordinates (Angstroms)
 Number     Number       Type             X           Y           Z
 ---------------------------------------------------------------------
      1          6           0        5.794364    1.685257   -0.987194
      2          8           0        5.466942    0.831304    0.094406
      3          6           0        4.198076    0.326991    0.146923
      4          6           0        3.916349   -0.509362    1.233889
      5          6           0        2.652384   -1.068761    1.371487
      6          6           0        1.632109   -0.819193    0.441909
      7          6           0        1.934150    0.018543   -0.635481
      8          6           0        3.196977    0.591498   -0.794204
      9          6           0        0.269659   -1.433111    0.605988
     10          6           0       -0.998454   -0.529317    0.575597
     11          6           0       -1.735423   -1.669119   -0.192914
     12          6           0       -0.355321   -2.251374   -0.564510
     13          7           0       -2.640383   -1.413412   -1.298746
     14          6           0       -3.967002   -0.923395   -0.922347
     15          6           0       -3.999848    0.375386   -0.162735
     16          7           0       -4.087380    0.525714    1.153018
     17          6           0       -3.985743    1.875834    1.323988
     18          7           0       -3.840694    2.579849    0.210457
     19          7           0       -3.850231    1.598623   -0.731276
     20          1           0        6.837089    1.971795   -0.839644
     21          1           0        5.167564    2.587089   -0.993689
     22          1           0        5.692346    1.171589   -1.952622
     23          1           0        4.702742   -0.704769    1.955885
     24          1           0        2.448937   -1.715814    2.221475
     25          1           0        1.169938    0.238094   -1.377210
     26          1           0        3.386128    1.235754   -1.644809
     27          1           0        0.257861   -2.040644    1.517641
     28          1           0       -1.415347   -0.191179    1.526450
     29          1           0       -0.846043    0.342619   -0.072252
     30          1           0       -2.257901   -2.321794    0.515749
     31          1           0       -0.019081   -1.862504   -1.533426
     32          1           0       -0.230985   -3.338279   -0.564172
     33          1           0       -2.200208   -0.766455   -1.951955
     34          1           0       -4.567024   -0.834577   -1.836311
     35          1           0       -4.444230   -1.677116   -0.289263
     36          1           0       -4.022043    2.352951    2.293606
     37          1           0       -3.778122    1.848123   -1.707256
 ---------------------------------------------------------------------

 SCF Done:  E(UB3LYP) =  -838.794359463     A.U. after   32 cycles

 The electronic state is 2-A.
 Alpha  occ. eigenvalues --  -19.07195 -14.29922 -14.25080 -14.21605 -14.21454
 Alpha  occ. eigenvalues --  -10.15189 -10.15042 -10.13980 -10.12988 -10.12172
 Alpha  occ. eigenvalues --  -10.11127 -10.09347 -10.09284 -10.09065 -10.08922
 Alpha  occ. eigenvalues --  -10.08894 -10.08865 -10.08054 -10.07339  -0.98796
 Alpha  occ. eigenvalues --   -0.98584  -0.83135  -0.80472  -0.77820  -0.75275
 Alpha  occ. eigenvalues --   -0.73609  -0.67832  -0.66725  -0.62751  -0.61043
 Alpha  occ. eigenvalues --   -0.57382  -0.55495  -0.53811  -0.53075  -0.52668
 Alpha  occ. eigenvalues --   -0.50135  -0.47310  -0.45529  -0.44945  -0.41446
 Alpha  occ. eigenvalues --   -0.41077  -0.39452  -0.38826  -0.37975  -0.37289
 Alpha  occ. eigenvalues --   -0.36944  -0.35964  -0.34866  -0.34036  -0.33711
 Alpha  occ. eigenvalues --   -0.33196  -0.30774  -0.30418  -0.30107  -0.28797
 Alpha  occ. eigenvalues --   -0.28421  -0.27551  -0.25575  -0.24907  -0.24169
 Alpha  occ. eigenvalues --   -0.23817  -0.22861  -0.22377  -0.20912  -0.19558
 Alpha  occ. eigenvalues --   -0.17936  -0.17418  -0.14483  -0.13308   0.03645
 Alpha virt. eigenvalues --    0.05066   0.06536   0.06652   0.07335   0.07750
 Alpha virt. eigenvalues --    0.07960   0.08165   0.08483   0.08904   0.09145
 Alpha virt. eigenvalues --    0.09417   0.10106   0.10174   0.10987   0.11376

  Beta  occ. eigenvalues --  -19.07188 -14.29841 -14.25069 -14.21600 -14.21423
  Beta  occ. eigenvalues --  -10.15185 -10.15042 -10.13942 -10.12990 -10.12148
  Beta  occ. eigenvalues --  -10.11127 -10.09346 -10.09283 -10.09066 -10.08910
  Beta  occ. eigenvalues --  -10.08893 -10.08854 -10.08048 -10.07333  -0.98780
  Beta  occ. eigenvalues --   -0.98536  -0.83088  -0.80420  -0.77809  -0.75244
  Beta  occ. eigenvalues --   -0.73557  -0.67814  -0.66711  -0.62707  -0.60988
  Beta  occ. eigenvalues --   -0.57365  -0.55454  -0.53744  -0.53046  -0.52603
  Beta  occ. eigenvalues --   -0.50103  -0.47286  -0.45493  -0.44895  -0.41409
  Beta  occ. eigenvalues --   -0.41055  -0.39420  -0.38802  -0.37928  -0.37254
  Beta  occ. eigenvalues --   -0.36904  -0.35930  -0.34832  -0.34009  -0.33685
  Beta  occ. eigenvalues --   -0.33174  -0.30759  -0.30388  -0.30090  -0.28769
  Beta  occ. eigenvalues --   -0.28403  -0.27525  -0.25555  -0.24883  -0.24142
  Beta  occ. eigenvalues --   -0.23797  -0.22846  -0.22363  -0.20861  -0.19546
  Beta  occ. eigenvalues --   -0.17895  -0.17412  -0.14458  -0.13296
  Beta virt. eigenvalues --    0.05778   0.06485   0.06646   0.07051   0.07874
  Beta virt. eigenvalues --    0.07925   0.07992   0.08176   0.08724   0.09194
  Beta virt. eigenvalues --    0.09413   0.09771   0.10407   0.10741   0.11001

 Mulliken charges and spin densities:
               1          2
     1  C    0.458956  -0.809090
     2  O   -0.196386   0.038742
     3  C   -0.713390   0.089207
     4  C   -0.671621   0.242632
     5  C   -0.447391   0.189739
     6  C    1.506801  -0.463305
     7  C    0.445051  -0.609571
     8  C    0.225345  -0.068563
     9  C   -0.005560  -0.190513
    10  C   -0.913889   0.177666
    11  C    0.090050  -0.296365
    12  C   -0.298335  -0.257771
    13  N    0.028644   0.090683
    14  C    0.333695  -1.250064
    15  C    0.127921  -0.224545
    16  N   -0.044506   0.048652
    17  C   -0.111967   0.221509
    18  N   -0.160086   0.095717
    19  N    0.141913  -0.084592
    20  H   -0.387033   0.557487
    21  H   -0.070291   0.227043
    22  H   -0.115436   0.270398
    23  H    0.135498   0.037106
    24  H    0.095270   0.031366
    25  H   -0.501132   0.693016
    26  H   -0.181880   0.389548
    27  H    0.178270  -0.000056
    28  H    0.140618   0.022492
    29  H    0.292002  -0.155997
    30  H    0.160208  -0.012531
    31  H    0.164583  -0.014202
    32  H    0.140057   0.022774
    33  H   -0.124576   0.380914
    34  H   -0.566126   0.779985
    35  H    0.200221  -0.029609
    36  H    0.114871   0.040331
    37  H   -0.470372   0.819766
 Sum of Mulliken charges =  -1.00000   1.00000

 Dipole moment (field-independent basis, Debye):
    X=              1.4002    Y=             -5.2624    Z=              7.4574  Tot=              9.2340
 Quadrupole moment (field-independent basis, Debye-Ang):
   XX=           -227.4876   YY=           -150.8549   ZZ=           -157.0108
   XY=             -1.4642   XZ=             -8.2504   YZ=              5.6389

 Summary of Natural Population Analysis:

                                       Natural Population
                Natural  -----------------------------------------------
    Atom  No    Charge         Core      Valence    Rydberg      Total
 -----------------------------------------------------------------------
      C    1   -0.10165      0.99960     2.09296    0.00910     3.10165
      O    2   -0.27449      0.99986     3.26504    0.00959     4.27449
      C    3    0.15565      0.99938     1.83090    0.01407     2.84435
      C    4   -0.12151      0.99953     2.11279    0.00919     3.12151
      C    5   -0.09088      0.99953     2.08369    0.00766     3.09088
      C    6   -0.03110      0.99949     2.02130    0.01031     3.03110
      C    7   -0.08674      0.99953     2.07784    0.00937     3.08674
      C    8   -0.13956      0.99952     2.13118    0.00886     3.13956
      C    9   -0.11431      0.99958     2.10427    0.01046     3.11431
      C   10   -0.19170      0.99961     2.18383    0.00826     3.19170
      C   11   -0.01047      0.99959     1.99812    0.01276     3.01047
      C   12   -0.18011      0.99961     2.17184    0.00866     3.18011
      N   13   -0.32953      0.99973     2.81679    0.01301     3.82953
      C   14   -0.11084      0.99958     2.09796    0.01330     3.11084
      C   15    0.18342      0.99962     1.79900    0.01796     2.81658
      N   16   -0.27114      0.99970     2.76280    0.00864     3.77114
      C   17    0.08303      0.99969     1.89934    0.01794     2.91697
      N   18   -0.15653      0.99974     2.64427    0.01252     3.65653
      N   19   -0.17436      0.99964     2.66023    0.01448     3.67436
      H   20    0.09391      0.00000     0.40493    0.00117     0.40609
      H   21    0.08597      0.00000     0.41261    0.00142     0.41403
      H   22    0.08579      0.00000     0.41269    0.00152     0.41421
      H   23    0.10446      0.00000     0.39458    0.00096     0.39554
      H   24    0.09744      0.00000     0.40167    0.00090     0.40256
      H   25    0.10446      0.00000     0.39392    0.00163     0.39554
      H   26    0.10847      0.00000     0.39005    0.00148     0.39153
      H   27    0.09549      0.00000     0.40289    0.00162     0.40451
      H   28    0.10439      0.00000     0.39465    0.00096     0.39561
      H   29    0.10038      0.00000     0.39801    0.00161     0.39962
      H   30    0.09171      0.00000     0.40716    0.00113     0.40829
      H   31    0.10053      0.00000     0.39815    0.00132     0.39947
      H   32    0.09644      0.00000     0.40273    0.00083     0.40356
      H   33    0.17748      0.00000     0.31624    0.00627     0.32252
      H   34    0.10866      0.00000     0.38976    0.00158     0.39134
      H   35    0.10286      0.00000     0.39594    0.00120     0.39714
      H   36    0.09055      0.00000     0.40872    0.00073     0.40945
      H   37    0.21384      0.00000     0.26652    0.01964     0.28616
 =======================================================================
   * Total *    0.00000     18.99253    49.74534    0.26213    69.00000

 Normal termination of Gaussian 16 at Sat Dec 12 10:57:30 2020.
