 Gaussian 16, Revision A.03,

 -----------------------------------------------------------
 # opt freq B3LYP/6-31G(d) empiricaldispersion=gd3bj scf=xqc
 -----------------------------------------------------------

 ------------------------------
 CID_89778506_JID_1438_neutraal
 ------------------------------
 Symbolic Z-matrix:
 Charge =  0 Multiplicity = 1

 SCF Done:  E(RB3LYP) =  -535.194967701     A.U. after   15 cycles
 SCF Done:  E(RB3LYP) =  -535.199167992     A.U. after   14 cycles
 SCF Done:  E(RB3LYP) =  -535.199993669     A.U. after   12 cycles
 SCF Done:  E(RB3LYP) =  -535.200314232     A.U. after   13 cycles
 SCF Done:  E(RB3LYP) =  -535.200656025     A.U. after   12 cycles
 SCF Done:  E(RB3LYP) =  -535.200711272     A.U. after   11 cycles
 SCF Done:  E(RB3LYP) =  -535.200734310     A.U. after   10 cycles
 SCF Done:  E(RB3LYP) =  -535.200744962     A.U. after   10 cycles
 SCF Done:  E(RB3LYP) =  -535.200750633     A.U. after   10 cycles
 SCF Done:  E(RB3LYP) =  -535.200755523     A.U. after    9 cycles
 SCF Done:  E(RB3LYP) =  -535.202092476     A.U. after   10 cycles
 SCF Done:  E(RB3LYP) =  -535.202096426     A.U. after   10 cycles
 SCF Done:  E(RB3LYP) =  -535.202096933     A.U. after   10 cycles
 SCF Done:  E(RB3LYP) =  -535.202097494     A.U. after    8 cycles
 SCF Done:  E(RB3LYP) =  -535.202097524     A.U. after    7 cycles
 Optimization completed.
    -- Stationary point found.
 Normal termination of Gaussian 16 at Tue Dec  8 20:18:06 2020.

 --------------------------------------------------------------------
 #N Geom=AllCheck Guess=TCheck SCRF=Check GenChk RB3LYP/6-31G(d) Freq
 --------------------------------------------------------------------

 Structure from the checkpoint file:  "JID_1438.chk"
 ------------------------------
 CID_89778506_JID_1438_neutraal
 ------------------------------
 Charge =  0 Multiplicity = 1

 SCF Done:  E(RB3LYP) =  -535.202097524     A.U. after    1 cycles

  Exact polarizability:  96.304  -2.077  92.297  -0.218  -6.320  81.308
 Approx polarizability: 123.227  -1.942 136.439  -4.657 -25.009 131.422

                      1                      2                      3
                      A                      A                      A
 Frequencies --     44.0680                54.1856                70.5179
 Red. masses --      3.9713                 4.1479                 4.6546
 Frc consts  --      0.0045                 0.0072                 0.0136
 IR Inten    --      0.6599                 2.2845                 6.7476

                      4                      5                      6
                      A                      A                      A
 Frequencies --     85.4077               114.0648               140.5611
 Red. masses --      3.0751                 2.2227                 1.3796
 Frc consts  --      0.0132                 0.0170                 0.0161
 IR Inten    --      6.0636                 0.7312                 0.8481

                      7                      8                      9
                      A                      A                      A
 Frequencies --    189.2518               191.8866               257.2159
 Red. masses --      1.8581                 5.3368                 1.3504
 Frc consts  --      0.0392                 0.1158                 0.0526
 IR Inten    --      1.0195                 8.7617                 1.0856

                     10                     11                     12
                      A                      A                      A
 Frequencies --    286.4092               330.5500               385.0373
 Red. masses --      3.4044                 2.7789                 3.9555
 Frc consts  --      0.1645                 0.1789                 0.3455
 IR Inten    --      4.9713                 0.6702                14.6331

                     13                     14                     15
                      A                      A                      A
 Frequencies --    435.9930               443.2173               468.8876
 Red. masses --      1.9475                 2.0052                 1.3854
 Frc consts  --      0.2181                 0.2321                 0.1795
 IR Inten    --      9.8339                61.1493               237.1370

                     16                     17                     18
                      A                      A                      A
 Frequencies --    521.7919               536.3253               577.9036
 Red. masses --      2.7565                 2.8620                 1.9535
 Frc consts  --      0.4422                 0.4850                 0.3844
 IR Inten    --     12.1711                21.2860                42.0464

                     19                     20                     21
                      A                      A                      A
 Frequencies --    615.5995               681.9396               713.5491
 Red. masses --      2.6241                 2.1047                 2.7499
 Frc consts  --      0.5859                 0.5767                 0.8249
 IR Inten    --      8.8095                 4.9829                 3.7627

                     22                     23                     24
                      A                      A                      A
 Frequencies --    777.1828               824.5966               874.7354
 Red. masses --      2.0470                 1.9841                 2.6963
 Frc consts  --      0.7285                 0.7949                 1.2156
 IR Inten    --      0.6528                 3.8365                 2.5357

                     25                     26                     27
                      A                      A                      A
 Frequencies --    898.7176               913.1564               972.6235
 Red. masses --      2.6013                 1.9379                 2.0922
 Frc consts  --      1.2379                 0.9521                 1.1661
 IR Inten    --      3.4387                 4.9591                10.7101

                     28                     29                     30
                      A                      A                      A
 Frequencies --   1004.1571              1065.3083              1110.7016
 Red. masses --      1.8330                 2.2761                 1.4534
 Frc consts  --      1.0890                 1.5219                 1.0564
 IR Inten    --      3.4417                 0.8468                52.0790

                     31                     32                     33
                      A                      A                      A
 Frequencies --   1117.0960              1121.5020              1158.3505
 Red. masses --      1.6366                 1.7714                 1.3063
 Frc consts  --      1.2033                 1.3127                 1.0327
 IR Inten    --     10.6534                 5.3526                 2.6901

                     34                     35                     36
                      A                      A                      A
 Frequencies --   1167.9565              1220.0151              1257.9579
 Red. masses --      1.6653                 1.6282                 2.1092
 Frc consts  --      1.3384                 1.4279                 1.9665
 IR Inten    --     25.5027                21.7343                 7.8777

                     37                     38                     39
                      A                      A                      A
 Frequencies --   1290.0011              1314.2866              1330.2725
 Red. masses --      1.5144                 1.2156                 2.1283
 Frc consts  --      1.4848                 1.2372                 2.2190
 IR Inten    --      9.4320                 0.2867               127.6291

                     40                     41                     42
                      A                      A                      A
 Frequencies --   1364.2892              1396.6901              1418.0951
 Red. masses --      2.6707                 1.3915                 1.3198
 Frc consts  --      2.9288                 1.5993                 1.5637
 IR Inten    --     85.8382                18.8462                 0.9849

                     43                     44                     45
                      A                      A                      A
 Frequencies --   1447.9557              1459.2338              1502.5937
 Red. masses --      1.2561                 1.8335                 1.1209
 Frc consts  --      1.5516                 2.3002                 1.4911
 IR Inten    --      3.7870                61.8960                19.0219

                     46                     47                     48
                      A                      A                      A
 Frequencies --   1507.8399              1516.4970              1517.0283
 Red. masses --      1.1061                 1.1557                 1.2273
 Frc consts  --      1.4816                 1.5660                 1.6641
 IR Inten    --      5.2514                23.1861                15.6305

                     49                     50                     51
                      A                      A                      A
 Frequencies --   1527.3550              1538.9218              1542.4916
 Red. masses --      1.0641                 1.0613                 1.0922
 Frc consts  --      1.4625                 1.4809                 1.5311
 IR Inten    --     14.3206                 5.1552                22.4493

                     52                     53                     54
                      A                      A                      A
 Frequencies --   1555.0104              1649.6068              1736.8650
 Red. masses --      1.1155                 1.2728                 7.5941
 Frc consts  --      1.5892                 2.0407                13.4977
 IR Inten    --     34.3594               143.3941               252.3674

                     55                     56                     57
                      A                      A                      A
 Frequencies --   1808.4646              3033.5644              3038.6513
 Red. masses --      8.9481                 1.0618                 1.0485
 Frc consts  --     17.2425                 5.7572                 5.7041
 IR Inten    --    299.5856                22.2772                44.2118

                     58                     59                     60
                      A                      A                      A
 Frequencies --   3055.9290              3057.8321              3068.4724
 Red. masses --      1.0667                 1.0405                 1.0989
 Frc consts  --      5.8690                 5.7322                 6.0960
 IR Inten    --     69.1229                 4.1430                37.3959

                     61                     62                     63
                      A                      A                      A
 Frequencies --   3110.2060              3122.3434              3126.6543
 Red. masses --      1.0626                 1.1021                 1.0881
 Frc consts  --      6.0563                 6.3307                 6.2675
 IR Inten    --      3.2446                41.7315                14.6030

                     64                     65                     66
                      A                      A                      A
 Frequencies --   3133.3196              3151.5593              3162.9710
 Red. masses --      1.1027                 1.0954                 1.1054
 Frc consts  --      6.3787                 6.4101                 6.5155
 IR Inten    --     23.9249                 8.6793                 3.6844

                     67                     68                     69
                      A                      A                      A
 Frequencies --   3180.1951              3549.3631              3685.5706
 Red. masses --      1.1029                 1.0475                 1.1029
 Frc consts  --      6.5720                 7.7751                 8.8268
 IR Inten    --      5.4253                39.8837                55.5446

 - Thermochemistry -
 -------------------
 Temperature   298.150 Kelvin.  Pressure   1.00000 Atm.
 Atom     1 has atomic number  6 and mass  12.00000

 Molecular mass:   158.10553 amu.
 Principal axes and moments of inertia in atomic units:
                           1         2         3
     Eigenvalues --  1170.563202392.829342561.85577
           X            0.99955   0.00423   0.02953
           Y           -0.00569   0.99875   0.04973
           Z           -0.02928  -0.04987   0.99833
 This molecule is an asymmetric top.
 Rotational symmetry number  1.
 Warning -- assumption of classical behavior for rotation
           may cause significant error
 Rotational temperatures (Kelvin)      0.07399     0.03620     0.03381
 Rotational constants (GHZ):           1.54177     0.75423     0.70447
 Zero-point vibrational energy     571387.6 (Joules/Mol)
                                  136.56492 (Kcal/Mol)
 Warning -- explicit consideration of  19 degrees of freedom as
           vibrations may cause significant error
 Vibrational temperatures:     63.40    77.96   101.46   122.88   164.11
          (Kelvin)            202.24   272.29   276.08   370.08   412.08
                              475.59   553.98   627.30   637.69   674.62
                              750.74   771.65   831.47   885.71   981.16
                             1026.64  1118.19  1186.41  1258.55  1293.05
                             1313.83  1399.39  1444.76  1532.74  1598.05
                             1607.25  1613.59  1666.61  1680.43  1755.33
                             1809.92  1856.02  1890.97  1913.97  1962.91
                             2009.53  2040.32  2083.29  2099.51  2161.90
                             2169.45  2181.90  2182.67  2197.52  2214.17
                             2219.30  2237.31  2373.42  2498.96  2601.98
                             4364.62  4371.94  4396.80  4399.54  4414.85
                             4474.89  4492.36  4498.56  4508.15  4534.39
                             4550.81  4575.59  5106.74  5302.71

 Zero-point correction=                           0.217630 (Hartree/Particle)
 Thermal correction to Energy=                    0.230258
 Thermal correction to Enthalpy=                  0.231202
 Thermal correction to Gibbs Free Energy=         0.178095
 Sum of electronic and zero-point Energies=           -534.984467
 Sum of electronic and thermal Energies=              -534.971839
 Sum of electronic and thermal Enthalpies=            -534.970895
 Sum of electronic and thermal Free Energies=         -535.024003

                     E (Thermal)             CV                S
                      KCal/Mol        Cal/Mol-Kelvin    Cal/Mol-Kelvin
 Total                  144.489             45.284            111.774
 Electronic               0.000              0.000              0.000
 Translational            0.889              2.981             41.083
 Rotational               0.889              2.981             30.352
 Vibrational            142.712             39.322             40.339
 Vibration     1          0.595              1.980              5.067
 Vibration     2          0.596              1.976              4.658
 Vibration     3          0.598              1.968              4.139
 Vibration     4          0.601              1.959              3.763
 Vibration     5          0.607              1.938              3.199
 Vibration     6          0.615              1.913              2.796
 Vibration     7          0.633              1.855              2.235
 Vibration     8          0.634              1.851              2.210
 Vibration     9          0.667              1.751              1.681
 Vibration    10          0.684              1.699              1.495
 Vibration    11          0.713              1.614              1.257
 Vibration    12          0.754              1.502              1.019
 Vibration    13          0.796              1.392              0.839
 Vibration    14          0.803              1.376              0.817
 Vibration    15          0.826              1.319              0.741
 Vibration    16          0.877              1.202              0.606
 Vibration    17          0.891              1.170              0.573
 Vibration    18          0.934              1.079              0.489
 Vibration    19          0.975              0.999              0.424

 Optimization completed.
    -- Stationary point found.
 Normal termination of Gaussian 16 at Tue Dec  8 20:23:47 2020.

 ----------------------------------------------------------------------
 # B3LYP/6-311++G(d,p) empiricaldispersion=gd3bj scf=xqc pop=npa geom=c
 heck
 ----------------------------------------------------------------------

 --------------------------------------
 CID_89778506_JID_1438_Energie_neutraal
 --------------------------------------
 Structure from the checkpoint file:  "JID_1438.chk"
 Charge =  0 Multiplicity = 1

 SCF Done:  E(RB3LYP) =  -535.367837333     A.U. after   14 cycles
 Normal termination of Gaussian 16 at Tue Dec  8 20:27:57 2020.

 ----------------------------------------------------------------------
 # B3LYP/6-311++G(d,p) empiricaldispersion=gd3bj scf=xqc pop=npa geom=c
 heck
 ----------------------------------------------------------------------

 ------------------------------------
 CID_89778506_JID_1438_Energie_kation
 ------------------------------------
 Structure from the checkpoint file:  "JID_1438.chk"
 Charge =  1 Multiplicity = 2

 SCF Done:  E(UB3LYP) =  -535.040835859     A.U. after   25 cycles
 Normal termination of Gaussian 16 at Tue Dec  8 20:37:30 2020.
 Gaussian 16:  ES64L-G16RevA.03 25-Dec-2016

 ----------------------------------------------------------------------
 # B3LYP/6-311++G(d,p) empiricaldispersion=gd3bj scf=xqc pop=npa geom=c
 heck
 ----------------------------------------------------------------------

 -----------------------------------
 CID_89778506_JID_1438_Energie_anion
 -----------------------------------
 Structure from the checkpoint file:  "JID_1438.chk"
 Charge = -1 Multiplicity = 2

                         Standard orientation:
 ---------------------------------------------------------------------
 Center     Atomic      Atomic             Coordinates (Angstroms)
 Number     Number       Type             X           Y           Z
 ---------------------------------------------------------------------
      1          6           0       -1.906094   -1.709650   -0.799304
      2          6           0       -2.693460   -0.401902   -0.690016
      3          6           0       -2.196729    0.516715    0.434164
      4          7           0       -0.794848    0.912378    0.277321
      5          6           0       -0.488735    1.956360   -0.698574
      6          6           0        0.152462    0.273940    1.016619
      7          8           0       -0.104495   -0.665948    1.774788
      8          6           0        1.605834    0.692174    0.810368
      9          6           0        2.200489   -0.158367   -0.320519
     10          8           0        2.642000    0.329675   -1.351075
     11          7           0        2.174918   -1.496110   -0.055612
     12          1           0       -0.856325   -1.517097   -1.044767
     13          1           0       -2.321986   -2.350183   -1.584563
     14          1           0       -1.925594   -2.260710    0.146176
     15          1           0       -2.658448    0.132767   -1.649290
     16          1           0       -3.753717   -0.613999   -0.498866
     17          1           0       -2.803659    1.429564    0.475295
     18          1           0       -2.276615    0.008027    1.396051
     19          1           0       -0.406584    2.944764   -0.226907
     20          1           0        0.433152    1.737590   -1.240211
     21          1           0       -1.300322    1.995151   -1.428480
     22          1           0        1.744209    1.741740    0.555599
     23          1           0        2.123496    0.475165    1.747904
     24          1           0        1.592851   -1.833395    0.703003
     25          1           0        2.406413   -2.128686   -0.809048
 ---------------------------------------------------------------------

 SCF Done:  E(UB3LYP) =  -535.354098648     A.U. after   33 cycles
 SCF Done:  E(UB3LYP) =  -535.354098648     a.u. after    1 cycles

 The electronic state is 2-A.
 Alpha  occ. eigenvalues --  -19.00093 -18.98938 -14.24725 -14.23617 -10.18749
 Alpha  occ. eigenvalues --  -10.17661 -10.09963 -10.09698 -10.09107 -10.06528
 Alpha  occ. eigenvalues --  -10.05071  -0.95036  -0.93980  -0.83934  -0.81426
 Alpha  occ. eigenvalues --   -0.68894  -0.66108  -0.61269  -0.58539  -0.50883
 Alpha  occ. eigenvalues --   -0.49088  -0.44796  -0.43782  -0.41482  -0.38691
 Alpha  occ. eigenvalues --   -0.38541  -0.36228  -0.34010  -0.32841  -0.32490
 Alpha  occ. eigenvalues --   -0.31622  -0.30879  -0.30430  -0.28752  -0.28120
 Alpha  occ. eigenvalues --   -0.27436  -0.24946  -0.24369  -0.23429  -0.18485
 Alpha  occ. eigenvalues --   -0.17502  -0.15831  -0.14651   0.04562
 Alpha virt. eigenvalues --    0.06720   0.07299   0.08248   0.08787   0.09249
 Alpha virt. eigenvalues --    0.10327   0.10859   0.11063   0.11510   0.12319
 Alpha virt. eigenvalues --    0.13090   0.13407   0.13974   0.14549   0.14900

  Beta  occ. eigenvalues --  -19.00090 -18.98921 -14.24729 -14.23575 -10.18738
  Beta  occ. eigenvalues --  -10.17640 -10.09912 -10.09676 -10.09092 -10.06499
  Beta  occ. eigenvalues --  -10.05043  -0.95021  -0.93954  -0.83918  -0.81374
  Beta  occ. eigenvalues --   -0.68850  -0.66064  -0.61194  -0.58484  -0.50805
  Beta  occ. eigenvalues --   -0.49016  -0.44743  -0.43723  -0.41444  -0.38646
  Beta  occ. eigenvalues --   -0.38494  -0.36182  -0.33975  -0.32785  -0.32466
  Beta  occ. eigenvalues --   -0.31583  -0.30842  -0.30389  -0.28704  -0.28087
  Beta  occ. eigenvalues --   -0.27375  -0.24896  -0.24311  -0.23389  -0.18450
  Beta  occ. eigenvalues --   -0.17491  -0.15811  -0.14614
  Beta virt. eigenvalues --    0.07017   0.07707   0.08120   0.08868   0.09399
  Beta virt. eigenvalues --    0.10054   0.10717   0.11271   0.11440   0.11899
  Beta virt. eigenvalues --    0.12647   0.13492   0.13569   0.14165   0.14889

 Mulliken charges and spin densities:
               1          2
     1  C    0.440594  -0.916556
     2  C    0.047997  -0.288452
     3  C    0.283890  -0.502101
     4  N   -0.059490   0.242953
     5  C    1.387838  -1.734244
     6  C   -0.642337   0.546800
     7  O   -0.336549   0.024160
     8  C    0.719570  -1.242375
     9  C   -0.227993   0.212967
    10  O   -0.315051   0.012349
    11  N   -0.174521  -0.080752
    12  H    0.044776   0.116807
    13  H   -0.421007   0.567617
    14  H    0.088373   0.070139
    15  H   -0.058911   0.179861
    16  H   -0.379570   0.523416
    17  H   -0.568966   0.757405
    18  H   -0.026390   0.217727
    19  H   -0.719894   0.907129
    20  H    0.122591   0.065768
    21  H   -0.265362   0.416811
    22  H    0.150646   0.045232
    23  H   -0.041056   0.261893
    24  H    0.169084   0.085239
    25  H   -0.218262   0.510208
 Sum of Mulliken charges =  -1.00000   1.00000

 Dipole moment (field-independent basis, Debye):
    X=              3.1031    Y=             -1.5049    Z=              2.3228  Tot=              4.1580
 Quadrupole moment (field-independent basis, Debye-Ang):
   XX=           -123.5772   YY=           -116.4235   ZZ=           -103.0376
   XY=              4.7898   XZ=              2.9748   YZ=             -1.6209

 Summary of Natural Population Analysis:

                                       Natural Population
                Natural  -----------------------------------------------
    Atom  No    Charge         Core      Valence    Rydberg      Total
 -----------------------------------------------------------------------
      C    1   -0.28722      0.99967     2.28151    0.00604     3.28722
      C    2   -0.19294      0.99963     2.18602    0.00729     3.19294
      C    3   -0.08463      0.99959     2.07317    0.01186     3.08463
      N    4   -0.25182      0.99964     2.73848    0.01371     3.75182
      C    5   -0.18076      0.99962     2.17290    0.00824     3.18076
      C    6    0.34945      0.99962     1.62844    0.02250     2.65055
      O    7   -0.34047      0.99988     3.33498    0.00561     4.34047
      C    8   -0.27299      0.99955     2.26576    0.00769     3.27299
      C    9    0.34160      0.99971     1.63605    0.02265     2.65840
      O   10   -0.31961      0.99987     3.31343    0.00631     4.31961
      N   11   -0.40503      0.99970     2.89741    0.00792     3.90503
      H   12    0.09756      0.00000     0.40077    0.00167     0.40244
      H   13    0.09831      0.00000     0.40060    0.00109     0.40169
      H   14    0.10028      0.00000     0.39869    0.00104     0.39972
      H   15    0.09438      0.00000     0.40406    0.00156     0.40562
      H   16    0.09791      0.00000     0.40056    0.00153     0.40209
      H   17    0.09924      0.00000     0.39832    0.00243     0.40076
      H   18    0.11004      0.00000     0.38853    0.00143     0.38996
      H   19    0.09819      0.00000     0.39869    0.00312     0.40181
      H   20    0.10696      0.00000     0.39135    0.00169     0.39304
      H   21    0.10367      0.00000     0.39478    0.00155     0.39633
      H   22    0.11722      0.00000     0.38163    0.00115     0.38278
      H   23    0.11878      0.00000     0.38006    0.00116     0.38122
      H   24    0.20497      0.00000     0.29285    0.00218     0.29503
      H   25    0.19692      0.00000     0.29982    0.00326     0.30308
 =======================================================================
   * Total *    0.00000     10.99647    31.85884    0.14468    43.00000

 Normal termination of Gaussian 16 at Tue Dec  8 20:47:38 2020.
