 Gaussian 16, Revision A.03,

 -----------------------------------------------------------
 # opt freq B3LYP/6-31G(d) empiricaldispersion=gd3bj scf=xqc
 -----------------------------------------------------------

 ------------------------------
 CID_89525539_JID_3758_neutraal
 ------------------------------
 Symbolic Z-matrix:
 Charge =  0 Multiplicity = 1

 SCF Done:  E(RB3LYP) =  -544.550892113     A.U. after   15 cycles
 SCF Done:  E(RB3LYP) =  -544.552941856     A.U. after   13 cycles
 SCF Done:  E(RB3LYP) =  -544.553121883     A.U. after   13 cycles
 SCF Done:  E(RB3LYP) =  -544.553495113     A.U. after   13 cycles
 SCF Done:  E(RB3LYP) =  -544.554261930     A.U. after   13 cycles
 SCF Done:  E(RB3LYP) =  -544.554632766     A.U. after   12 cycles
 SCF Done:  E(RB3LYP) =  -544.555000774     A.U. after   12 cycles
 SCF Done:  E(RB3LYP) =  -544.554853401     A.U. after   12 cycles
 SCF Done:  E(RB3LYP) =  -544.554762052     A.U. after   13 cycles
 SCF Done:  E(RB3LYP) =  -544.551997136     A.U. after   13 cycles
 SCF Done:  E(RB3LYP) =  -544.555784285     A.U. after    7 cycles
 SCF Done:  E(RB3LYP) =  -544.555784391     A.U. after    7 cycles
 SCF Done:  E(RB3LYP) =  -544.555784486     A.U. after    7 cycles
 SCF Done:  E(RB3LYP) =  -544.555784539     A.U. after    7 cycles
 SCF Done:  E(RB3LYP) =  -544.555784578     A.U. after    7 cycles
 Optimization completed.
    -- Stationary point found.
 Normal termination of Gaussian 16 at Sun Dec 13 16:07:29 2020.

 --------------------------------------------------------------------
 #N Geom=AllCheck Guess=TCheck SCRF=Check GenChk RB3LYP/6-31G(d) Freq
 --------------------------------------------------------------------

 Structure from the checkpoint file:  "JID_3758.chk"
 ------------------------------
 CID_89525539_JID_3758_neutraal
 ------------------------------
 Charge =  0 Multiplicity = 1

 SCF Done:  E(RB3LYP) =  -544.555784578     A.U. after    1 cycles

  Exact polarizability: 140.145   6.879 118.451   2.207  -0.101 118.490
 Approx polarizability: 184.934  14.747 169.325   5.270  -4.574 180.979

                      1                      2                      3
                      A                      A                      A
 Frequencies --     23.9666                35.9860                56.1222
 Red. masses --      3.1842                 3.6683                 4.1016
 Frc consts  --      0.0011                 0.0028                 0.0076
 IR Inten    --      0.3735                 0.5503                 2.4794

                      4                      5                      6
                      A                      A                      A
 Frequencies --     67.2223                74.0976               110.1190
 Red. masses --      3.6156                 2.9720                 1.1959
 Frc consts  --      0.0096                 0.0096                 0.0085
 IR Inten    --      0.3406                 3.1030                 0.1460

                      7                      8                      9
                      A                      A                      A
 Frequencies --    138.1341               168.3409               195.6126
 Red. masses --      2.6793                 3.0415                 2.9425
 Frc consts  --      0.0301                 0.0508                 0.0663
 IR Inten    --      0.7169                 0.1713                 0.8018

                     10                     11                     12
                      A                      A                      A
 Frequencies --    219.3647               231.6553               233.8682
 Red. masses --      1.8779                 1.1667                 1.3025
 Frc consts  --      0.0532                 0.0369                 0.0420
 IR Inten    --      0.7920                 0.4077                 0.2440

                     13                     14                     15
                      A                      A                      A
 Frequencies --    284.4996               310.0760               325.8837
 Red. masses --      2.8148                 2.1485                 1.9498
 Frc consts  --      0.1342                 0.1217                 0.1220
 IR Inten    --      0.3433                 0.2324                 0.5804

                     16                     17                     18
                      A                      A                      A
 Frequencies --    340.6056               362.3033               410.5877
 Red. masses --      2.9661                 2.0001                 2.6914
 Frc consts  --      0.2027                 0.1547                 0.2673
 IR Inten    --      0.0948                 0.0913                 0.3996

                     19                     20                     21
                      A                      A                      A
 Frequencies --    426.2784               478.5061               542.0481
 Red. masses --      2.1681                 2.8950                 2.8506
 Frc consts  --      0.2321                 0.3905                 0.4935
 IR Inten    --      2.7768                 7.4453                11.9408

                     22                     23                     24
                      A                      A                      A
 Frequencies --    564.2923               577.6308               608.8038
 Red. masses --      2.5965                 2.5444                 2.6055
 Frc consts  --      0.4871                 0.5002                 0.5690
 IR Inten    --      2.9930                 3.4699                 0.4490

                     25                     26                     27
                      A                      A                      A
 Frequencies --    691.9018               708.4778               788.8261
 Red. masses --      1.6512                 1.1823                 2.1755
 Frc consts  --      0.4657                 0.3496                 0.7976
 IR Inten    --      5.4482                 0.0846                 1.0718

                     28                     29                     30
                      A                      A                      A
 Frequencies --    809.5152               825.4760               898.5040
 Red. masses --      2.4654                 2.4975                 2.1109
 Frc consts  --      0.9519                 1.0027                 1.0041
 IR Inten    --      4.2205                 4.4834                 2.7562

                     31                     32                     33
                      A                      A                      A
 Frequencies --    911.0468               923.5406               941.8486
 Red. masses --      2.1190                 1.3468                 1.3578
 Frc consts  --      1.0363                 0.6768                 0.7097
 IR Inten    --      1.2250                33.8531                39.0521

                     34                     35                     36
                      A                      A                      A
 Frequencies --    954.0243               984.5292               998.4748
 Red. masses --      1.9762                 1.7344                 1.4097
 Frc consts  --      1.0597                 0.9905                 0.8281
 IR Inten    --      3.4711                 3.4112                 2.3121

                     37                     38                     39
                      A                      A                      A
 Frequencies --   1015.8009              1027.6675              1036.8778
 Red. masses --      1.5252                 1.7187                 1.7340
 Frc consts  --      0.9272                 1.0694                 1.0984
 IR Inten    --      1.5416                 4.6107                 2.1626

                     40                     41                     42
                      A                      A                      A
 Frequencies --   1050.6325              1067.6828              1072.5767
 Red. masses --      1.4747                 1.1812                 1.8470
 Frc consts  --      0.9591                 0.7933                 1.2519
 IR Inten    --      4.2134                17.6579                 3.8614

                     43                     44                     45
                      A                      A                      A
 Frequencies --   1088.3456              1114.2540              1141.1514
 Red. masses --      1.5619                 2.5442                 1.8640
 Frc consts  --      1.0900                 1.8611                 1.4302
 IR Inten    --      0.6752                 5.1168                 6.5247

                     46                     47                     48
                      A                      A                      A
 Frequencies --   1203.9487              1229.3064              1253.1210
 Red. masses --      2.0831                 1.8807                 1.7803
 Frc consts  --      1.7790                 1.6745                 1.6472
 IR Inten    --      2.0541                49.8496                10.9490

                     49                     50                     51
                      A                      A                      A
 Frequencies --   1270.1268              1278.5126              1318.7561
 Red. masses --      1.3329                 1.6187                 1.2797
 Frc consts  --      1.2669                 1.5590                 1.3112
 IR Inten    --      2.2309                36.6904                 1.1252

                     52                     53                     54
                      A                      A                      A
 Frequencies --   1344.1761              1347.4987              1366.7411
 Red. masses --      1.2982                 1.4283                 1.3813
 Frc consts  --      1.3820                 1.5280                 1.5202
 IR Inten    --      1.3952                 4.0103                 1.7699

                     55                     56                     57
                      A                      A                      A
 Frequencies --   1373.4152              1391.5635              1410.4058
 Red. masses --      1.4316                 1.3159                 1.2897
 Frc consts  --      1.5911                 1.5013                 1.5116
 IR Inten    --      0.9749                 7.7651                35.1246

                     58                     59                     60
                      A                      A                      A
 Frequencies --   1416.0604              1437.5786              1442.2652
 Red. masses --      1.3385                 1.2425                 1.2413
 Frc consts  --      1.5814                 1.5129                 1.5213
 IR Inten    --      7.5222                 4.0800                 7.2335

                     61                     62                     63
                      A                      A                      A
 Frequencies --   1479.0990              1481.5909              1499.9076
 Red. masses --      1.2105                 1.2126                 1.0568
 Frc consts  --      1.5603                 1.5683                 1.4007
 IR Inten    --      0.1665                 3.5356                 7.3152

                     64                     65                     66
                      A                      A                      A
 Frequencies --   1506.2936              1510.3753              1516.5626
 Red. masses --      1.0585                 1.0578                 1.0704
 Frc consts  --      1.4150                 1.4218                 1.4505
 IR Inten    --      1.8558                 7.1862                 2.8917

                     67                     68                     69
                      A                      A                      A
 Frequencies --   1523.8506              1528.4152              1530.0965
 Red. masses --      1.0532                 1.0575                 1.0611
 Frc consts  --      1.4409                 1.4554                 1.4637
 IR Inten    --      4.3410                11.9876                 8.4257

                     70                     71                     72
                      A                      A                      A
 Frequencies --   1543.7659              1729.1548              1729.7472
 Red. masses --      1.0634                 4.4527                 4.7707
 Frc consts  --      1.4932                 7.8440                 8.4100
 IR Inten    --     10.3654                 5.6974                17.6184

                     73                     74                     75
                      A                      A                      A
 Frequencies --   1805.7009              3025.3685              3039.4182
 Red. masses --     10.7282                 1.0793                 1.0673
 Frc consts  --     20.6096                 5.8202                 5.8090
 IR Inten    --    149.5563                10.6692                25.8783

                     76                     77                     78
                      A                      A                      A
 Frequencies --   3040.5389              3045.9096              3057.4312
 Red. masses --      1.0418                 1.0382                 1.0507
 Frc consts  --      5.6747                 5.6750                 5.7870
 IR Inten    --     37.0732                17.2911                 8.8609

                     79                     80                     81
                      A                      A                      A
 Frequencies --   3062.5699              3073.2330              3086.3727
 Red. masses --      1.0505                 1.0839                 1.0993
 Frc consts  --      5.8054                 6.0313                 6.1695
 IR Inten    --     17.3271                 3.3516                 6.2202

                     82                     83                     84
                      A                      A                      A
 Frequencies --   3092.9462              3094.6366              3111.1173
 Red. masses --      1.0970                 1.0979                 1.1014
 Frc consts  --      6.1833                 6.1947                 6.2810
 IR Inten    --     45.1021                39.4745                41.2947

                     85                     86                     87
                      A                      A                      A
 Frequencies --   3122.7692              3129.8256              3130.9260
 Red. masses --      1.1017                 1.0939                 1.1007
 Frc consts  --      6.3298                 6.3138                 6.3573
 IR Inten    --     30.7183                 6.0405                27.4148

                     88                     89                     90
                      A                      A                      A
 Frequencies --   3150.5151              3158.7159              3166.6249
 Red. masses --      1.0599                 1.0904                 1.0955
 Frc consts  --      6.1987                 6.4102                 6.4723
 IR Inten    --     15.1022                 1.6022                10.2519

                     91                     92                     93
                      A                      A                      A
 Frequencies --   3167.8564              3234.7408              3242.4238
 Red. masses --      1.0700                 1.1149                 1.1152
 Frc consts  --      6.3263                 6.8731                 6.9076
 IR Inten    --      8.1630                16.0187                18.9341

 - Thermochemistry -
 -------------------
 Temperature   298.150 Kelvin.  Pressure   1.00000 Atm.
 Atom     1 has atomic number  6 and mass  12.00000

 Molecular mass:   180.15142 amu.
 Principal axes and moments of inertia in atomic units:
                           1         2         3
     Eigenvalues --  1828.508623490.326133919.93666
           X            0.99997  -0.00756   0.00115
           Y            0.00747   0.99760   0.06889
           Z           -0.00167  -0.06888   0.99762
 This molecule is an asymmetric top.
 Rotational symmetry number  1.
 Warning -- assumption of classical behavior for rotation
           may cause significant error
 Rotational temperatures (Kelvin)      0.04737     0.02482     0.02210
 Rotational constants (GHZ):           0.98700     0.51707     0.46040
 Zero-point vibrational energy     774816.1 (Joules/Mol)
                                  185.18549 (Kcal/Mol)
 Warning -- explicit consideration of  24 degrees of freedom as
           vibrations may cause significant error
 Vibrational temperatures:     34.48    51.78    80.75    96.72   106.61
          (Kelvin)            158.44   198.74   242.21   281.44   315.62
                              333.30   336.48   409.33   446.13   468.87
                              490.06   521.27   590.74   613.32   688.46
                              779.89   811.89   831.08   875.93   995.49
                             1019.34  1134.94  1164.71  1187.68  1292.75
                             1310.79  1328.77  1355.11  1372.63  1416.52
                             1436.58  1461.51  1478.58  1491.84  1511.63
                             1536.16  1543.20  1565.89  1603.16  1641.86
                             1732.21  1768.70  1802.96  1827.43  1839.49
                             1897.40  1933.97  1938.75  1966.44  1976.04
                             2002.15  2029.26  2037.40  2068.36  2075.10
                             2128.09  2131.68  2158.03  2167.22  2173.09
                             2182.00  2192.48  2199.05  2201.47  2221.13
                             2487.87  2488.72  2598.00  4352.83  4373.04
                             4374.66  4382.38  4398.96  4406.36  4421.70
                             4440.60  4450.06  4452.49  4476.20  4492.97
                             4503.12  4504.70  4532.89  4544.69  4556.07
                             4557.84  4654.07  4665.12

 Zero-point correction=                           0.295112 (Hartree/Particle)
 Thermal correction to Energy=                    0.310937
 Thermal correction to Enthalpy=                  0.311882
 Thermal correction to Gibbs Free Energy=         0.250954
 Sum of electronic and zero-point Energies=           -544.260673
 Sum of electronic and thermal Energies=              -544.244847
 Sum of electronic and thermal Enthalpies=            -544.243903
 Sum of electronic and thermal Free Energies=         -544.304831

                     E (Thermal)             CV                S
                      KCal/Mol        Cal/Mol-Kelvin    Cal/Mol-Kelvin
 Total                  195.116             57.745            128.234
 Electronic               0.000              0.000              0.000
 Translational            0.889              2.981             41.473
 Rotational               0.889              2.981             31.593
 Vibrational            193.339             51.783             55.169
 Vibration     1          0.593              1.985              6.275
 Vibration     2          0.594              1.982              5.469
 Vibration     3          0.596              1.975              4.589
 Vibration     4          0.598              1.970              4.233
 Vibration     5          0.599              1.966              4.041
 Vibration     6          0.606              1.941              3.267
 Vibration     7          0.614              1.915              2.830
 Vibration     8          0.625              1.881              2.454
 Vibration     9          0.636              1.846              2.174
 Vibration    10          0.647              1.812              1.964
 Vibration    11          0.653              1.793              1.866
 Vibration    12          0.654              1.789              1.849
 Vibration    13          0.683              1.702              1.506
 Vibration    14          0.699              1.655              1.362
 Vibration    15          0.710              1.624              1.280
 Vibration    16          0.720              1.594              1.209
 Vibration    17          0.736              1.550              1.112
 Vibration    18          0.775              1.447              0.925
 Vibration    19          0.788              1.413              0.871
 Vibration    20          0.835              1.298              0.714
 Vibration    21          0.897              1.157              0.561
 Vibration    22          0.920              1.109              0.515
 Vibration    23          0.934              1.080              0.490
 Vibration    24          0.968              1.013              0.435

                           ! Non-Optimized Parameters !
 Normal termination of Gaussian 16 at Sun Dec 13 16:16:25 2020.

 ----------------------------------------------------------------------
 # B3LYP/6-311++G(d,p) empiricaldispersion=gd3bj scf=xqc pop=npa geom=c
 heck
 ----------------------------------------------------------------------

 --------------------------------------
 CID_89525539_JID_3758_Energie_neutraal
 --------------------------------------
 Structure from the checkpoint file:  "JID_3758.chk"
 Charge =  0 Multiplicity = 1

 SCF Done:  E(RB3LYP) =  -544.712994151     A.U. after   14 cycles
 Normal termination of Gaussian 16 at Sun Dec 13 16:20:04 2020.

 ----------------------------------------------------------------------
 # B3LYP/6-311++G(d,p) empiricaldispersion=gd3bj scf=xqc pop=npa geom=c
 heck
 ----------------------------------------------------------------------

 ------------------------------------
 CID_89525539_JID_3758_Energie_kation
 ------------------------------------
 Structure from the checkpoint file:  "JID_3758.chk"
 Charge =  1 Multiplicity = 2

 SCF Done:  E(UB3LYP) =  -544.397833427     A.U. after   26 cycles
 Normal termination of Gaussian 16 at Sun Dec 13 16:29:18 2020.
 Gaussian 16:  ES64L-G16RevA.03 25-Dec-2016

 ----------------------------------------------------------------------
 # B3LYP/6-311++G(d,p) empiricaldispersion=gd3bj scf=xqc pop=npa geom=c
 heck
 ----------------------------------------------------------------------

 -----------------------------------
 CID_89525539_JID_3758_Energie_anion
 -----------------------------------
 Structure from the checkpoint file:  "JID_3758.chk"
 Charge = -1 Multiplicity = 2

                         Standard orientation:
 ---------------------------------------------------------------------
 Center     Atomic      Atomic             Coordinates (Angstroms)
 Number     Number       Type             X           Y           Z
 ---------------------------------------------------------------------
      1          6           0        3.042315   -0.685538   -1.323652
      2          6           0        2.497270    0.397016   -0.376159
      3          6           0        1.266185    1.124917   -0.977551
      4          6           0        0.002055    0.271629   -1.178187
      5          6           0       -0.851800    0.068344    0.115141
      6          6           0       -2.042105    1.014264    0.201412
      7          6           0       -3.278572    0.606875    0.505422
      8          6           0       -1.736891    2.479099    0.006127
      9          6           0       -1.239108   -1.402941    0.235046
     10          8           0       -0.887331   -2.073497    1.188427
     11          6           0       -2.009245   -2.035665   -0.917318
     12          6           0        2.241950   -0.185193    0.992704
     13          6           0        2.743703    0.301057    2.128413
     14          1           0        2.341012   -1.521518   -1.428651
     15          1           0        3.980856   -1.096385   -0.937782
     16          1           0        3.231024   -0.276497   -2.323283
     17          1           0        3.274422    1.166142   -0.267103
     18          1           0        1.030223    1.987934   -0.344875
     19          1           0        1.571757    1.528121   -1.952412
     20          1           0       -0.625742    0.720751   -1.955777
     21          1           0        0.299030   -0.704257   -1.578525
     22          1           0       -0.216534    0.274866    0.983411
     23          1           0       -4.095255    1.317780    0.597968
     24          1           0       -3.527696   -0.432677    0.694874
     25          1           0       -0.995934    2.822770    0.739963
     26          1           0       -1.315914    2.684233   -0.985310
     27          1           0       -2.638252    3.087458    0.123236
     28          1           0       -2.529518   -1.297159   -1.530979
     29          1           0       -1.303903   -2.582646   -1.554949
     30          1           0       -2.720569   -2.764391   -0.520078
     31          1           0        1.606953   -1.070391    1.035673
     32          1           0        2.530481   -0.158146    3.089683
     33          1           0        3.387673    1.178811    2.139118
 ---------------------------------------------------------------------

 SCF Done:  E(UB3LYP) =  -544.699256587     A.U. after   33 cycles
 SCF Done:  E(UB3LYP) =  -544.699256587     a.u. after    1 cycles

 The electronic state is 2-A.
 Alpha  occ. eigenvalues --  -19.01806 -10.16522 -10.09392 -10.08689 -10.08288
 Alpha  occ. eigenvalues --  -10.07899 -10.07674 -10.07631 -10.07018 -10.07002
 Alpha  occ. eigenvalues --  -10.06736 -10.06431 -10.06428  -0.95041  -0.74245
 Alpha  occ. eigenvalues --   -0.71968  -0.67041  -0.65195  -0.63347  -0.59860
 Alpha  occ. eigenvalues --   -0.58697  -0.53966  -0.49683  -0.46507  -0.44991
 Alpha  occ. eigenvalues --   -0.42006  -0.39395  -0.37887  -0.37051  -0.35821
 Alpha  occ. eigenvalues --   -0.35364  -0.33988  -0.33403  -0.32551  -0.32055
 Alpha  occ. eigenvalues --   -0.31309  -0.29596  -0.29128  -0.28774  -0.27814
 Alpha  occ. eigenvalues --   -0.27764  -0.26937  -0.25729  -0.25050  -0.23146
 Alpha  occ. eigenvalues --   -0.22835  -0.22592  -0.16872  -0.15789  -0.15446
 Alpha  occ. eigenvalues --    0.04409
 Alpha virt. eigenvalues --    0.06302   0.06847   0.07033   0.07666   0.08430
 Alpha virt. eigenvalues --    0.08664   0.08985   0.09183   0.09650   0.10249
 Alpha virt. eigenvalues --    0.10884   0.11435   0.11640   0.11953   0.12681

  Beta  occ. eigenvalues --  -19.01783 -10.16489 -10.09388 -10.08687 -10.08279
  Beta  occ. eigenvalues --  -10.07897 -10.07645 -10.07606 -10.07011 -10.06978
  Beta  occ. eigenvalues --  -10.06694 -10.06412 -10.06403  -0.94993  -0.74217
  Beta  occ. eigenvalues --   -0.71944  -0.67006  -0.65152  -0.63312  -0.59805
  Beta  occ. eigenvalues --   -0.58649  -0.53909  -0.49631  -0.46435  -0.44950
  Beta  occ. eigenvalues --   -0.41958  -0.39358  -0.37850  -0.37007  -0.35791
  Beta  occ. eigenvalues --   -0.35318  -0.33957  -0.33355  -0.32519  -0.32016
  Beta  occ. eigenvalues --   -0.31270  -0.29548  -0.29092  -0.28737  -0.27772
  Beta  occ. eigenvalues --   -0.27707  -0.26895  -0.25686  -0.24998  -0.23115
  Beta  occ. eigenvalues --   -0.22798  -0.22552  -0.16858  -0.15766  -0.15416
  Beta virt. eigenvalues --    0.06632   0.06719   0.07353   0.07733   0.08261
  Beta virt. eigenvalues --    0.08615   0.08864   0.09259   0.09538   0.10150
  Beta virt. eigenvalues --    0.10649   0.11443   0.11790   0.11944   0.12376

 Mulliken charges and spin densities:
               1          2
     1  C    0.955266  -1.678151
     2  C   -0.475547   0.667957
     3  C    0.945290  -1.470891
     4  C   -0.165611  -0.134862
     5  C   -0.398845   1.284766
     6  C   -1.658923   1.700832
     7  C   -0.425276  -0.079352
     8  C    2.910934  -3.715034
     9  C   -0.180934  -0.174304
    10  O   -0.227848   0.016503
    11  C    0.055929  -0.580415
    12  C   -0.464260   0.554179
    13  C   -0.118845  -0.464105
    14  H   -0.001708   0.147653
    15  H   -0.067414   0.206147
    16  H   -0.325553   0.473778
    17  H   -0.312436   0.524954
    18  H    0.449914  -0.320581
    19  H   -0.755995   0.951169
    20  H   -0.216222   0.456623
    21  H    0.384281  -0.282296
    22  H    0.164833   0.082313
    23  H   -0.398106   0.535650
    24  H    0.277668  -0.115557
    25  H   -0.185568   0.356048
    26  H   -0.328579   0.507423
    27  H   -0.252380   0.398905
    28  H   -0.153311   0.326142
    29  H   -0.013514   0.191443
    30  H   -0.215644   0.392373
    31  H    0.159775   0.041154
    32  H    0.094846   0.017549
    33  H   -0.056217   0.181986
 Sum of Mulliken charges =  -1.00000   1.00000

 Dipole moment (field-independent basis, Debye):
    X=              0.3635    Y=             -3.0429    Z=              3.4457  Tot=              4.6113
 Quadrupole moment (field-independent basis, Debye-Ang):
   XX=           -146.3806   YY=           -133.4700   ZZ=           -126.7708
   XY=              1.6969   XZ=              5.6720   YZ=              8.6610

 Summary of Natural Population Analysis:

                                       Natural Population
                Natural  -----------------------------------------------
    Atom  No    Charge         Core      Valence    Rydberg      Total
 -----------------------------------------------------------------------
      C    1   -0.28192      0.99965     2.27631    0.00597     3.28192
      C    2   -0.12936      0.99958     2.11727    0.01251     3.12936
      C    3   -0.18170      0.99960     2.17191    0.01019     3.18170
      C    4   -0.19288      0.99960     2.18238    0.01089     3.19288
      C    5   -0.17436      0.99948     2.16154    0.01334     3.17436
      C    6    0.01218      0.99951     1.97774    0.01056     2.98782
      C    7   -0.20140      0.99948     2.19403    0.00790     3.20140
      C    8   -0.30075      0.99961     2.29442    0.00671     3.30075
      C    9    0.31252      0.99965     1.66532    0.02251     2.68748
      O   10   -0.28933      0.99987     3.28233    0.00713     4.28933
      C   11   -0.34307      0.99961     2.33695    0.00651     3.34307
      C   12   -0.08365      0.99954     2.07301    0.01110     3.08365
      C   13   -0.19501      0.99955     2.18929    0.00617     3.19501
      H   14    0.09530      0.00000     0.40352    0.00119     0.40470
      H   15    0.10023      0.00000     0.39889    0.00087     0.39977
      H   16    0.10256      0.00000     0.39624    0.00119     0.39744
      H   17    0.09781      0.00000     0.39995    0.00224     0.40219
      H   18    0.09901      0.00000     0.39897    0.00202     0.40099
      H   19    0.10383      0.00000     0.39398    0.00219     0.39617
      H   20    0.10737      0.00000     0.39060    0.00203     0.39263
      H   21    0.09958      0.00000     0.39826    0.00216     0.40042
      H   22    0.11968      0.00000     0.37815    0.00217     0.38032
      H   23    0.09563      0.00000     0.40343    0.00095     0.40437
      H   24    0.09359      0.00000     0.40525    0.00116     0.40641
      H   25    0.10333      0.00000     0.39533    0.00134     0.39667
      H   26    0.10808      0.00000     0.39024    0.00168     0.39192
      H   27    0.10466      0.00000     0.39404    0.00130     0.39534
      H   28    0.11076      0.00000     0.38782    0.00143     0.38924
      H   29    0.11373      0.00000     0.38531    0.00096     0.38627
      H   30    0.11194      0.00000     0.38684    0.00122     0.38806
      H   31    0.09966      0.00000     0.39829    0.00205     0.40034
      H   32    0.09243      0.00000     0.40664    0.00093     0.40757
      H   33    0.08956      0.00000     0.40925    0.00119     0.41044
 =======================================================================
   * Total *   -0.00000     12.99473    36.84350    0.16177    50.00000

 Normal termination of Gaussian 16 at Sun Dec 13 16:41:05 2020.
