 Gaussian 16, Revision A.03,

 -----------------------------------------------------------
 # opt freq B3LYP/6-31G(d) empiricaldispersion=gd3bj scf=xqc
 -----------------------------------------------------------

 ------------------------------
 CID_145030091_JID_632_neutraal
 ------------------------------
 Symbolic Z-matrix:
 Charge =  0 Multiplicity = 1

 SCF Done:  E(RB3LYP) =  -390.728064974     A.U. after   13 cycles
 SCF Done:  E(RB3LYP) =  -390.730077714     A.U. after   10 cycles
 SCF Done:  E(RB3LYP) =  -390.730172192     A.U. after   10 cycles
 SCF Done:  E(RB3LYP) =  -390.730271401     A.U. after   10 cycles
 SCF Done:  E(RB3LYP) =  -390.730276464     A.U. after    8 cycles
 SCF Done:  E(RB3LYP) =  -390.730276953     A.U. after    7 cycles
 SCF Done:  E(RB3LYP) =  -390.730277018     A.U. after    6 cycles
 Optimization completed.
    -- Stationary point found.
 Normal termination of Gaussian 16 at Tue Dec  8 12:24:47 2020.

 --------------------------------------------------------------------
 #N Geom=AllCheck Guess=TCheck SCRF=Check GenChk RB3LYP/6-31G(d) Freq
 --------------------------------------------------------------------

 Structure from the checkpoint file:  "JID_632.chk"
 ------------------------------
 CID_145030091_JID_632_neutraal
 ------------------------------
 Charge =  0 Multiplicity = 1

 SCF Done:  E(RB3LYP) =  -390.730277018     A.U. after    1 cycles

  Exact polarizability: 108.479  -4.590  99.458   5.461  -0.609  81.101
 Approx polarizability: 144.564 -12.339 143.216  11.239  -3.480 125.758

                      1                      2                      3
                      A                      A                      A
 Frequencies --     65.6924               162.2503               183.9898
 Red. masses --      2.6065                 1.6152                 2.0716
 Frc consts  --      0.0066                 0.0251                 0.0413
 IR Inten    --      0.0467                 0.0382                 0.0295

                      4                      5                      6
                      A                      A                      A
 Frequencies --    209.3588               249.3844               320.4972
 Red. masses --      1.3643                 2.4816                 2.4782
 Frc consts  --      0.0352                 0.0909                 0.1500
 IR Inten    --      0.0220                 0.0560                 0.1808

                      7                      8                      9
                      A                      A                      A
 Frequencies --    345.0630               362.7561               411.6466
 Red. masses --      2.3859                 2.7255                 2.4810
 Frc consts  --      0.1674                 0.2113                 0.2477
 IR Inten    --      0.0517                 0.3343                 0.6228

                     10                     11                     12
                      A                      A                      A
 Frequencies --    464.8289               535.2971               652.2669
 Red. masses --      3.1013                 3.0944                 2.3114
 Frc consts  --      0.3948                 0.5224                 0.5794
 IR Inten    --      0.6210                 0.5291                 4.5360

                     13                     14                     15
                      A                      A                      A
 Frequencies --    687.8144               745.8129               777.6681
 Red. masses --      1.6121                 2.1034                 3.5721
 Frc consts  --      0.4494                 0.6893                 1.2728
 IR Inten    --     12.3258                 6.2600                 0.4558

                     16                     17                     18
                      A                      A                      A
 Frequencies --    789.5605               806.5205               844.8154
 Red. masses --      1.9503                 1.9605                 2.5412
 Frc consts  --      0.7163                 0.7514                 1.0686
 IR Inten    --      3.4852                 8.4732                 0.1457

                     19                     20                     21
                      A                      A                      A
 Frequencies --    863.2989               908.9119               963.8806
 Red. masses --      2.4218                 1.9543                 2.0541
 Frc consts  --      1.0634                 0.9512                 1.1244
 IR Inten    --      1.4927                 1.9523                 3.8048

                     22                     23                     24
                      A                      A                      A
 Frequencies --    970.7630               974.3896               982.7032
 Red. masses --      1.6765                 1.3560                 1.7723
 Frc consts  --      0.9308                 0.7585                 1.0084
 IR Inten    --      1.2595                 0.4657                 0.8027

                     25                     26                     27
                      A                      A                      A
 Frequencies --   1016.3690              1031.5862              1056.0794
 Red. masses --      1.6481                 1.9196                 2.2443
 Frc consts  --      1.0031                 1.2036                 1.4748
 IR Inten    --      1.9331                 2.7208                 0.3003

                     28                     29                     30
                      A                      A                      A
 Frequencies --   1065.2654              1098.0139              1104.9062
 Red. masses --      2.1049                 1.9063                 1.7070
 Frc consts  --      1.4074                 1.3541                 1.2278
 IR Inten    --      0.2910                 3.2928                 0.3195

                     31                     32                     33
                      A                      A                      A
 Frequencies --   1137.1466              1146.5302              1151.9479
 Red. masses --      1.3309                 1.5822                 1.2957
 Frc consts  --      1.0140                 1.2254                 1.0131
 IR Inten    --      0.7774                 2.1889                 0.6382

                     34                     35                     36
                      A                      A                      A
 Frequencies --   1199.7175              1212.7751              1266.1192
 Red. masses --      1.3364                 1.4590                 1.3367
 Frc consts  --      1.1333                 1.2643                 1.2625
 IR Inten    --      2.5237                 1.0006                 0.4327

                     37                     38                     39
                      A                      A                      A
 Frequencies --   1282.0339              1301.3171              1319.8714
 Red. masses --      1.5651                 1.2546                 1.3226
 Frc consts  --      1.5156                 1.2518                 1.3575
 IR Inten    --      0.9853                 3.1083                 1.5465

                     40                     41                     42
                      A                      A                      A
 Frequencies --   1335.5002              1339.8228              1348.5859
 Red. masses --      1.4251                 1.3287                 1.5416
 Frc consts  --      1.4975                 1.4053                 1.6519
 IR Inten    --      1.2880                 0.6316                 0.2784

                     43                     44                     45
                      A                      A                      A
 Frequencies --   1352.3088              1387.3514              1390.0695
 Red. masses --      1.3254                 1.4956                 1.4246
 Frc consts  --      1.4281                 1.6960                 1.6218
 IR Inten    --      0.3939                 2.3184                 0.9565

                     46                     47                     48
                      A                      A                      A
 Frequencies --   1401.5444              1414.0730              1415.7727
 Red. masses --      1.3653                 1.5194                 1.4445
 Frc consts  --      1.5802                 1.7900                 1.7059
 IR Inten    --      2.0621                 1.7287                 3.7180

                     49                     50                     51
                      A                      A                      A
 Frequencies --   1445.7970              1515.7844              1519.2817
 Red. masses --      1.2716                 1.0709                 1.0688
 Frc consts  --      1.5660                 1.4497                 1.4536
 IR Inten    --      9.6544                 0.5572                 1.3055

                     52                     53                     54
                      A                      A                      A
 Frequencies --   1520.9863              1532.5233              1537.8505
 Red. masses --      1.0887                 1.0558                 1.0737
 Frc consts  --      1.4839                 1.4610                 1.4962
 IR Inten    --      1.4231                 3.4011                 3.5878

                     55                     56                     57
                      A                      A                      A
 Frequencies --   1545.2876              1705.5775              2982.9194
 Red. masses --      1.0854                 6.2911                 1.0833
 Frc consts  --      1.5270                10.7824                 5.6791
 IR Inten    --      4.6772                 1.0367                23.3119

                     58                     59                     60
                      A                      A                      A
 Frequencies --   3017.9350              3021.4580              3034.7394
 Red. masses --      1.0644                 1.0778                 1.0706
 Frc consts  --      5.7120                 5.7972                 5.8094
 IR Inten    --     43.0094                19.7113                61.6311

                     61                     62                     63
                      A                      A                      A
 Frequencies --   3041.2304              3047.1636              3050.7515
 Red. masses --      1.0655                 1.0884                 1.0574
 Frc consts  --      5.8065                 5.9544                 5.7983
 IR Inten    --     27.2233                 5.1355                36.7598

                     64                     65                     66
                      A                      A                      A
 Frequencies --   3055.9316              3056.7552              3066.0500
 Red. masses --      1.0528                 1.0871                 1.0979
 Frc consts  --      5.7930                 5.9845                 6.0809
 IR Inten    --     23.1178                61.9625                30.2669

                     67                     68                     69
                      A                      A                      A
 Frequencies --   3077.0986              3093.7091              3114.1558
 Red. masses --      1.1004                 1.1038                 1.0988
 Frc consts  --      6.1391                 6.2244                 6.2784
 IR Inten    --     31.2219               105.7070                36.9038

                     70                     71                     72
                      A                      A                      A
 Frequencies --   3140.4103              3185.4785              3210.2060
 Red. masses --      1.0990                 1.0845                 1.1030
 Frc consts  --      6.3859                 6.4839                 6.6970
 IR Inten    --     29.0623                10.8919                34.5316

 - Thermochemistry -
 -------------------
 Temperature   298.150 Kelvin.  Pressure   1.00000 Atm.
 Atom     1 has atomic number  6 and mass  12.00000

 Molecular mass:   136.12520 amu.
 Principal axes and moments of inertia in atomic units:
                           1         2         3
     Eigenvalues --   864.033241427.149011873.16189
           X            0.99983  -0.01848  -0.00020
           Y            0.01848   0.99977   0.01044
           Z            0.00001  -0.01044   0.99995
 This molecule is an asymmetric top.
 Rotational symmetry number  1.
 Warning -- assumption of classical behavior for rotation
           may cause significant error
 Rotational temperatures (Kelvin)      0.10024     0.06069     0.04624
 Rotational constants (GHZ):           2.08874     1.26458     0.96347
 Zero-point vibrational energy     631466.5 (Joules/Mol)
                                  150.92412 (Kcal/Mol)
 Warning -- explicit consideration of  11 degrees of freedom as
           vibrations may cause significant error
 Vibrational temperatures:     94.52   233.44   264.72   301.22   358.81
          (Kelvin)            461.12   496.47   521.93   592.27   668.79
                              770.17   938.47   989.61  1073.06  1118.89
                             1136.00  1160.40  1215.50  1242.09  1307.72
                             1386.81  1396.71  1401.93  1413.89  1462.33
                             1484.22  1519.46  1532.68  1579.80  1589.71
                             1636.10  1649.60  1657.40  1726.13  1744.91
                             1821.66  1844.56  1872.31  1899.00  1921.49
                             1927.71  1940.31  1945.67  1996.09  2000.00
                             2016.51  2034.54  2036.98  2080.18  2180.88
                             2185.91  2188.36  2204.96  2212.62  2223.32
                             2453.95  4291.76  4342.14  4347.20  4366.31
                             4375.65  4384.19  4389.35  4396.80  4397.99
                             4411.36  4427.26  4451.16  4480.58  4518.35
                             4583.19  4618.77

 Zero-point correction=                           0.240513 (Hartree/Particle)
 Thermal correction to Energy=                    0.249608
 Thermal correction to Enthalpy=                  0.250552
 Thermal correction to Gibbs Free Energy=         0.206783
 Sum of electronic and zero-point Energies=           -390.489764
 Sum of electronic and thermal Energies=              -390.480669
 Sum of electronic and thermal Enthalpies=            -390.479725
 Sum of electronic and thermal Free Energies=         -390.523494

                     E (Thermal)             CV                S
                      KCal/Mol        Cal/Mol-Kelvin    Cal/Mol-Kelvin
 Total                  156.631             36.960             92.120
 Electronic               0.000              0.000              0.000
 Translational            0.889              2.981             40.637
 Rotational               0.889              2.981             29.225
 Vibrational            154.854             30.999             22.257
 Vibration     1          0.597              1.971              4.278
 Vibration     2          0.622              1.889              2.523
 Vibration     3          0.631              1.862              2.288
 Vibration     4          0.642              1.826              2.049
 Vibration     5          0.662              1.764              1.735
 Vibration     6          0.706              1.634              1.308
 Vibration     7          0.723              1.585              1.189
 Vibration     8          0.737              1.549              1.110
 Vibration     9          0.776              1.445              0.921
 Vibration    10          0.822              1.328              0.752
 Vibration    11          0.890              1.172              0.575

                           ! Non-Optimized Parameters !
 Normal termination of Gaussian 16 at Tue Dec  8 12:32:29 2020.

 ----------------------------------------------------------------------
 # B3LYP/6-311++G(d,p) empiricaldispersion=gd3bj scf=xqc pop=npa geom=c
 heck
 ----------------------------------------------------------------------

 --------------------------------------
 CID_145030091_JID_632_Energie_neutraal
 --------------------------------------
 Structure from the checkpoint file:  "JID_632.chk"
 Charge =  0 Multiplicity = 1

 SCF Done:  E(RB3LYP) =  -390.833828815     A.U. after   13 cycles
 Normal termination of Gaussian 16 at Tue Dec  8 12:40:12 2020.

 ----------------------------------------------------------------------
 # B3LYP/6-311++G(d,p) empiricaldispersion=gd3bj scf=xqc pop=npa geom=c
 heck
 ----------------------------------------------------------------------

 ------------------------------------
 CID_145030091_JID_632_Energie_kation
 ------------------------------------
 Structure from the checkpoint file:  "JID_632.chk"
 Charge =  1 Multiplicity = 2

 SCF Done:  E(UB3LYP) =  -390.518808144     A.U. after   18 cycles
 Normal termination of Gaussian 16 at Tue Dec  8 12:50:17 2020.
 Gaussian 16:  ES64L-G16RevA.03 25-Dec-2016

 ----------------------------------------------------------------------
 # B3LYP/6-311++G(d,p) empiricaldispersion=gd3bj scf=xqc pop=npa geom=c
 heck
 ----------------------------------------------------------------------

 -----------------------------------
 CID_145030091_JID_632_Energie_anion
 -----------------------------------
 Structure from the checkpoint file:  "JID_632.chk"
 Charge = -1 Multiplicity = 2

                         Standard orientation:
 ---------------------------------------------------------------------
 Center     Atomic      Atomic             Coordinates (Angstroms)
 Number     Number       Type             X           Y           Z
 ---------------------------------------------------------------------
      1          6           0       -1.243493    1.646834    0.949969
      2          6           0       -1.083615    1.027376   -0.446849
      3          6           0       -2.046604   -0.149683   -0.671140
      4          6           0       -1.776860   -1.326504    0.291581
      5          6           0       -0.283513   -1.468740    0.657944
      6          6           0        0.653234   -0.952485   -0.440363
      7          6           0        0.355241    0.546262   -0.799430
      8          6           0        1.492320    1.290684   -0.139478
      9          6           0        2.446725    0.473715    0.309113
     10          6           0        2.136696   -0.974887    0.022660
     11          1           0       -2.285681    1.949570    1.108421
     12          1           0       -0.618275    2.537993    1.064364
     13          1           0       -0.972867    0.956064    1.752856
     14          1           0       -1.345035    1.814813   -1.166972
     15          1           0       -1.927977   -0.492540   -1.707902
     16          1           0       -3.087269    0.183761   -0.574531
     17          1           0       -2.360930   -1.199644    1.210658
     18          1           0       -2.138123   -2.252613   -0.171692
     19          1           0       -0.064795   -0.914251    1.578458
     20          1           0       -0.046647   -2.517330    0.876231
     21          1           0        0.519204   -1.578792   -1.330010
     22          1           0        0.450333    0.657225   -1.891220
     23          1           0        1.523316    2.375171   -0.078302
     24          1           0        3.367715    0.792562    0.789937
     25          1           0        2.801885   -1.364630   -0.762049
     26          1           0        2.284357   -1.622784    0.897713
 ---------------------------------------------------------------------

 SCF Done:  E(UB3LYP) =  -390.815693775     A.U. after   33 cycles
 SCF Done:  E(UB3LYP) =  -390.815693775     a.u. after    1 cycles

 The electronic state is 2-A.
 Alpha  occ. eigenvalues --  -10.05938 -10.05892 -10.05859 -10.05817 -10.05664
 Alpha  occ. eigenvalues --  -10.05404 -10.05180 -10.05082 -10.04906 -10.04377
 Alpha  occ. eigenvalues --   -0.74727  -0.69088  -0.65271  -0.59942  -0.58491
 Alpha  occ. eigenvalues --   -0.56492  -0.48699  -0.47121  -0.42739  -0.40404
 Alpha  occ. eigenvalues --   -0.38458  -0.36936  -0.34449  -0.33036  -0.29950
 Alpha  occ. eigenvalues --   -0.29797  -0.29273  -0.26601  -0.25638  -0.25097
 Alpha  occ. eigenvalues --   -0.24473  -0.23689  -0.23039  -0.22079  -0.19541
 Alpha  occ. eigenvalues --   -0.19405  -0.17969  -0.13255   0.04904
 Alpha virt. eigenvalues --    0.07366   0.07631   0.08135   0.09328   0.09654
 Alpha virt. eigenvalues --    0.10205   0.10686   0.10817   0.11524   0.12308
 Alpha virt. eigenvalues --    0.12603   0.13057   0.13463   0.14049   0.14557

  Beta  occ. eigenvalues --  -10.05928 -10.05880 -10.05845 -10.05799 -10.05655
  Beta  occ. eigenvalues --  -10.05391 -10.05163 -10.05066 -10.04885 -10.04350
  Beta  occ. eigenvalues --   -0.74697  -0.69054  -0.65237  -0.59901  -0.58448
  Beta  occ. eigenvalues --   -0.56443  -0.48647  -0.47070  -0.42693  -0.40354
  Beta  occ. eigenvalues --   -0.38402  -0.36874  -0.34417  -0.33000  -0.29917
  Beta  occ. eigenvalues --   -0.29763  -0.29241  -0.26567  -0.25605  -0.25061
  Beta  occ. eigenvalues --   -0.24432  -0.23658  -0.23006  -0.22043  -0.19511
  Beta  occ. eigenvalues --   -0.19364  -0.17930  -0.13232
  Beta virt. eigenvalues --    0.07174   0.08184   0.08537   0.08746   0.10043
  Beta virt. eigenvalues --    0.10207   0.10767   0.11184   0.11345   0.11644
  Beta virt. eigenvalues --    0.12808   0.13144   0.13561   0.13915   0.14489

 Mulliken charges and spin densities:
               1          2
     1  C    1.729475  -2.389909
     2  C   -1.255266   1.556796
     3  C    0.410056  -0.913270
     4  C   -0.075750  -0.443091
     5  C    0.246809  -0.687033
     6  C   -1.516902   1.793527
     7  C    2.395283  -2.248219
     8  C   -1.181358   0.795229
     9  C    0.534253  -0.672720
    10  C    0.883726  -1.487326
    11  H   -0.223089   0.361695
    12  H    0.009206   0.123069
    13  H   -0.049530   0.177601
    14  H   -0.494366   0.706114
    15  H   -0.040630   0.183466
    16  H   -0.454241   0.619164
    17  H    0.054409   0.092753
    18  H   -0.358368   0.500018
    19  H    0.008696   0.137384
    20  H   -0.084416   0.242471
    21  H   -0.268866   0.488397
    22  H   -0.042937   0.254639
    23  H   -0.466793   0.616107
    24  H   -0.382188   0.536805
    25  H   -0.301286   0.435706
    26  H   -0.075924   0.220628
 Sum of Mulliken charges =  -1.00000   1.00000

 Dipole moment (field-independent basis, Debye):
    X=              0.7912    Y=             -0.7570    Z=              1.8987  Tot=              2.1918
 Quadrupole moment (field-independent basis, Debye-Ang):
   XX=           -116.0752   YY=           -109.4639   ZZ=            -97.1233
   XY=              1.4574   XZ=             -0.8314   YZ=             -1.2351

 Summary of Natural Population Analysis:

                                       Natural Population
                Natural  -----------------------------------------------
    Atom  No    Charge         Core      Valence    Rydberg      Total
 -----------------------------------------------------------------------
      C    1   -0.28681      0.99964     2.28086    0.00631     3.28681
      C    2   -0.10898      0.99959     2.09771    0.01168     3.10898
      C    3   -0.18751      0.99962     2.17886    0.00903     3.18751
      C    4   -0.19108      0.99963     2.18298    0.00847     3.19108
      C    5   -0.19056      0.99961     2.18210    0.00885     3.19056
      C    6   -0.10272      0.99959     2.09229    0.01084     3.10272
      C    7   -0.11938      0.99957     2.10721    0.01261     3.11938
      C    8   -0.08996      0.99950     2.07986    0.01060     3.08996
      C    9   -0.09393      0.99951     2.08516    0.00925     3.09393
      C   10   -0.20245      0.99962     2.19353    0.00930     3.20245
      H   11    0.09895      0.00000     0.40001    0.00104     0.40105
      H   12    0.10013      0.00000     0.39874    0.00114     0.39987
      H   13    0.09606      0.00000     0.40282    0.00112     0.40394
      H   14    0.09803      0.00000     0.39969    0.00227     0.40197
      H   15    0.09725      0.00000     0.40103    0.00172     0.40275
      H   16    0.09940      0.00000     0.39927    0.00133     0.40060
      H   17    0.09481      0.00000     0.40411    0.00108     0.40519
      H   18    0.09747      0.00000     0.40127    0.00126     0.40253
      H   19    0.09331      0.00000     0.40504    0.00166     0.40669
      H   20    0.09936      0.00000     0.39948    0.00116     0.40064
      H   21    0.09939      0.00000     0.39868    0.00193     0.40061
      H   22    0.10467      0.00000     0.39353    0.00180     0.39533
      H   23    0.10004      0.00000     0.39876    0.00119     0.39996
      H   24    0.09592      0.00000     0.40307    0.00101     0.40408
      H   25    0.10119      0.00000     0.39749    0.00132     0.39881
      H   26    0.09741      0.00000     0.40121    0.00138     0.40259
 =======================================================================
   * Total *   -0.00000      9.99588    27.88476    0.11936    38.00000

 Normal termination of Gaussian 16 at Tue Dec  8 13:04:47 2020.
