 Gaussian 16, Revision A.03,

 ----------------------------------------------------------------------
 # opt=(cartesian,calcfc) freq B3LYP/6-31G(d) empiricaldispersion=gd3bj
  scf=xqc
 ----------------------------------------------------------------------

 -------------------------------
 CID_142285670_JID_6607_neutraal
 -------------------------------
 Symbolic Z-matrix:
 Charge =  0 Multiplicity = 1

 SCF Done:  E(RB3LYP) =  -622.977281937     A.U. after   14 cycles
 SCF Done:  E(RB3LYP) =  -622.977322918     A.U. after   10 cycles
 SCF Done:  E(RB3LYP) =  -622.977342592     A.U. after   10 cycles
 SCF Done:  E(RB3LYP) =  -622.976792517     A.U. after   11 cycles
 SCF Done:  E(RB3LYP) =  -622.977323491     A.U. after   10 cycles
 SCF Done:  E(RB3LYP) =  -622.977342880     A.U. after    8 cycles
 SCF Done:  E(RB3LYP) =  -622.977352025     A.U. after   10 cycles
 SCF Done:  E(RB3LYP) =  -622.977361166     A.U. after    9 cycles
 SCF Done:  E(RB3LYP) =  -622.977356007     A.U. after   10 cycles
 SCF Done:  E(RB3LYP) =  -622.977368564     A.U. after    9 cycles
 SCF Done:  E(RB3LYP) =  -622.977404910     A.U. after    8 cycles
 SCF Done:  E(RB3LYP) =  -622.977404649     A.U. after    9 cycles
 SCF Done:  E(RB3LYP) =  -622.977405102     A.U. after    7 cycles
 SCF Done:  E(RB3LYP) =  -622.977405109     A.U. after    8 cycles
 SCF Done:  E(RB3LYP) =  -622.977405137     A.U. after    7 cycles
 Optimization completed.
    -- Stationary point found.
 Normal termination of Gaussian 16 at Mon Jan  4 10:18:03 2021.

 --------------------------------------------------------------------
 #N Geom=AllCheck Guess=TCheck SCRF=Check GenChk RB3LYP/6-31G(d) Freq
 --------------------------------------------------------------------

 Structure from the checkpoint file:  "JID_6607.chk"
 -------------------------------
 CID_142285670_JID_6607_neutraal
 -------------------------------
 Charge =  0 Multiplicity = 1

 SCF Done:  E(RB3LYP) =  -622.977405137     A.U. after    1 cycles

  Exact polarizability: 229.017 -15.144 135.067  17.290  -0.408 146.402
 Approx polarizability: 329.594 -32.033 196.614  39.621  -1.767 254.135

                      1                      2                      3
                      A                      A                      A
 Frequencies --     28.0256                35.0398                42.7134
 Red. masses --      3.5286                 3.2944                 1.4730
 Frc consts  --      0.0016                 0.0024                 0.0016
 IR Inten    --      0.0374                 0.0313                 0.0012

                      4                      5                      6
                      A                      A                      A
 Frequencies --     46.7420                57.6345                71.8864
 Red. masses --      3.8241                 3.4205                 3.4663
 Frc consts  --      0.0049                 0.0067                 0.0106
 IR Inten    --      0.1817                 0.0042                 0.0437

                      7                      8                      9
                      A                      A                      A
 Frequencies --     84.7389                88.5798                97.2053
 Red. masses --      3.4415                 2.9240                 2.4346
 Frc consts  --      0.0146                 0.0135                 0.0136
 IR Inten    --      0.0684                 0.0895                 0.0986

                     10                     11                     12
                      A                      A                      A
 Frequencies --    115.2855               128.6654               159.2298
 Red. masses --      1.5936                 2.6285                 1.4775
 Frc consts  --      0.0125                 0.0256                 0.0221
 IR Inten    --      0.0370                 0.4365                 0.9269

                     13                     14                     15
                      A                      A                      A
 Frequencies --    186.9427               207.7986               226.8425
 Red. masses --      2.4860                 3.1876                 2.4741
 Frc consts  --      0.0512                 0.0811                 0.0750
 IR Inten    --      0.8570                 0.6974                 0.0076

                     16                     17                     18
                      A                      A                      A
 Frequencies --    250.3731               289.0511               312.8458
 Red. masses --      1.8598                 3.8680                 2.6189
 Frc consts  --      0.0687                 0.1904                 0.1510
 IR Inten    --      0.4040                 0.2408                 2.2300

                     19                     20                     21
                      A                      A                      A
 Frequencies --    324.2076               402.4272               416.0876
 Red. masses --      1.0115                 3.0809                 2.2755
 Frc consts  --      0.0626                 0.2940                 0.2321
 IR Inten    --      0.2326                 1.0757                 0.2109

                     22                     23                     24
                      A                      A                      A
 Frequencies --    418.9134               455.9207               486.0207
 Red. masses --      2.7616                 3.5319                 2.9915
 Frc consts  --      0.2855                 0.4326                 0.4163
 IR Inten    --      0.3722                 2.2698                 5.4812

                     25                     26                     27
                      A                      A                      A
 Frequencies --    560.0627               630.5512               639.9972
 Red. masses --      4.0317                 2.7002                 3.1293
 Frc consts  --      0.7451                 0.6325                 0.7552
 IR Inten    --      0.8403                14.3665                 9.1866

                     28                     29                     30
                      A                      A                      A
 Frequencies --    658.1208               693.8048               715.4770
 Red. masses --      2.7105                 1.6277                 1.9008
 Frc consts  --      0.6917                 0.4616                 0.5733
 IR Inten    --      5.2319                 5.1129                25.2122

                     31                     32                     33
                      A                      A                      A
 Frequencies --    757.0478               791.0488               832.4076
 Red. masses --      1.6123                 2.3899                 2.9672
 Frc consts  --      0.5444                 0.8811                 1.2114
 IR Inten    --     39.2459                16.4465                 5.9475

                     34                     35                     36
                      A                      A                      A
 Frequencies --    834.2178               836.9697               861.2538
 Red. masses --      1.0810                 1.0587                 1.2992
 Frc consts  --      0.4432                 0.4370                 0.5678
 IR Inten    --      4.4253                 8.3636                 0.5339

                     37                     38                     39
                      A                      A                      A
 Frequencies --    866.0142               907.7049               917.4749
 Red. masses --      2.8251                 1.4240                 1.3795
 Frc consts  --      1.2483                 0.6913                 0.6842
 IR Inten    --      1.9085                 1.7435                26.7594

                     40                     41                     42
                      A                      A                      A
 Frequencies --    929.0108               942.1294               960.7245
 Red. masses --      1.5758                 1.7167                 1.8567
 Frc consts  --      0.8013                 0.8978                 1.0097
 IR Inten    --      7.1332                12.7632                 8.1213

                     43                     44                     45
                      A                      A                      A
 Frequencies --    968.5027               993.3021               998.5789
 Red. masses --      1.3482                 1.2500                 1.2035
 Frc consts  --      0.7451                 0.7266                 0.7071
 IR Inten    --      0.5060                 0.4853                 1.6874

                     46                     47                     48
                      A                      A                      A
 Frequencies --   1008.8244              1015.0641              1023.0460
 Red. masses --      1.7573                 3.2299                 6.1514
 Frc consts  --      1.0537                 1.9608                 3.7933
 IR Inten    --      8.0086                 0.6182                 1.5902

                     49                     50                     51
                      A                      A                      A
 Frequencies --   1055.9694              1061.4728              1077.9484
 Red. masses --      1.1075                 2.2240                 1.5115
 Frc consts  --      0.7276                 1.4764                 1.0348
 IR Inten    --     13.4489                 4.5996                 2.1119

                     52                     53                     54
                      A                      A                      A
 Frequencies --   1112.6967              1124.9995              1139.3410
 Red. masses --      1.5757                 1.7331                 3.0146
 Frc consts  --      1.1494                 1.2924                 2.3056
 IR Inten    --      4.0574                 4.7244                 0.5625

                     55                     56                     57
                      A                      A                      A
 Frequencies --   1193.1505              1205.6492              1215.3773
 Red. masses --      1.0992                 1.3216                 1.1407
 Frc consts  --      0.9220                 1.1318                 0.9928
 IR Inten    --      0.0364                 1.5562                 1.0376

                     58                     59                     60
                      A                      A                      A
 Frequencies --   1225.8840              1236.3243              1238.8073
 Red. masses --      2.6804                 1.4662                 1.4602
 Frc consts  --      2.3733                 1.3204                 1.3203
 IR Inten    --      2.1952                 0.0501                 0.1151

                     61                     62                     63
                      A                      A                      A
 Frequencies --   1249.3082              1285.3966              1327.0884
 Red. masses --      1.7141                 1.1517                 1.7157
 Frc consts  --      1.5763                 1.1211                 1.7803
 IR Inten    --      4.1915                 0.4293                 5.0438

                     64                     65                     66
                      A                      A                      A
 Frequencies --   1330.7897              1366.8718              1373.6975
 Red. masses --      1.3417                 3.2462                 1.3321
 Frc consts  --      1.4000                 3.5734                 1.4810
 IR Inten    --      2.2815                 1.6677                 1.0338

                     67                     68                     69
                      A                      A                      A
 Frequencies --   1379.2471              1428.3943              1429.4709
 Red. masses --      1.4054                 1.2071                 1.2499
 Frc consts  --      1.5752                 1.4511                 1.5047
 IR Inten    --      3.1648                 0.4170                 7.9147

                     70                     71                     72
                      A                      A                      A
 Frequencies --   1452.1358              1460.9625              1482.6177
 Red. masses --      1.2581                 1.4089                 1.3695
 Frc consts  --      1.5631                 1.7717                 1.7737
 IR Inten    --      4.6406                 3.1894                 1.8498

                     73                     74                     75
                      A                      A                      A
 Frequencies --   1499.3708              1506.2764              1510.1227
 Red. masses --      1.5250                 1.3613                 1.0890
 Frc consts  --      2.0199                 1.8198                 1.4633
 IR Inten    --      3.8723                12.4183                 3.2567

                     76                     77                     78
                      A                      A                      A
 Frequencies --   1515.9564              1527.8975              1529.8759
 Red. masses --      1.0819                 1.0265                 1.0380
 Frc consts  --      1.4649                 1.4119                 1.4314
 IR Inten    --      9.7218                 2.1693                 3.2134

                     79                     80                     81
                      A                      A                      A
 Frequencies --   1536.3060              1537.9226              1548.0242
 Red. masses --      1.0482                 1.0579                 2.1773
 Frc consts  --      1.4577                 1.4742                 3.0741
 IR Inten    --      5.5206                 8.2187                11.5189

                     82                     83                     84
                      A                      A                      A
 Frequencies --   1646.9921              1665.9541              1671.7491
 Red. masses --      5.6019                 5.5427                 5.2947
 Frc consts  --      8.9530                 9.0636                 8.7184
 IR Inten    --      0.4657                 6.6919                 1.4052

                     85                     86                     87
                      A                      A                      A
 Frequencies --   1712.6064              1725.7524              3029.8274
 Red. masses --      5.3700                 5.6486                 1.0599
 Frc consts  --      9.2798                 9.9117                 5.7324
 IR Inten    --      5.1635                 9.3253                29.2809

                     88                     89                     90
                      A                      A                      A
 Frequencies --   3038.6012              3049.0491              3049.6741
 Red. masses --      1.0425                 1.0394                 1.0367
 Frc consts  --      5.6709                 5.6934                 5.6806
 IR Inten    --     18.7336                38.5511                15.5566

                     91                     92                     93
                      A                      A                      A
 Frequencies --   3069.7587              3087.1219              3097.3906
 Red. masses --      1.1022                 1.0970                 1.1007
 Frc consts  --      6.1194                 6.1598                 6.2218
 IR Inten    --     17.6507                21.6858                 6.3728

                     94                     95                     96
                      A                      A                      A
 Frequencies --   3107.9499              3123.6980              3126.4404
 Red. masses --      1.0999                 1.0840                 1.1023
 Frc consts  --      6.2594                 6.2317                 6.3480
 IR Inten    --     35.7446                14.6182                55.6335

                     97                     98                     99
                      A                      A                      A
 Frequencies --   3142.8974              3148.2528              3149.7539
 Red. masses --      1.0875                 1.0951                 1.0990
 Frc consts  --      6.3293                 6.3950                 6.4241
 IR Inten    --     15.5140                 4.2535                37.2901

                    100                    101                    102
                      A                      A                      A
 Frequencies --   3160.8706              3163.6644              3175.8175
 Red. masses --      1.0598                 1.0936                 1.0859
 Frc consts  --      6.2387                 6.4491                 6.4527
 IR Inten    --     15.5128                37.8390                 6.4544

                    103                    104                    105
                      A                      A                      A
 Frequencies --   3182.1271              3187.7371              3191.5555
 Red. masses --      1.0864                 1.0904                 1.0903
 Frc consts  --      6.4816                 6.5281                 6.5434
 IR Inten    --      0.8681                 6.7068                11.4056

                    106                    107                    108
                      A                      A                      A
 Frequencies --   3198.8952              3210.0355              3245.4824
 Red. masses --      1.0940                 1.0979                 1.1151
 Frc consts  --      6.5956                 6.6657                 6.9203
 IR Inten    --     38.3092                21.4623                17.2803

 - Thermochemistry -
 -------------------
 Temperature   298.150 Kelvin.  Pressure   1.00000 Atm.
 Atom     1 has atomic number  6 and mass  12.00000

 Molecular mass:   214.17215 amu.
 Principal axes and moments of inertia in atomic units:
                           1         2         3
     Eigenvalues --  2453.036625390.450886331.48806
           X            0.99965  -0.02421   0.01035
           Y            0.02413   0.99968   0.00741
           Z           -0.01052  -0.00716   0.99992
 This molecule is an asymmetric top.
 Rotational symmetry number  1.
 Warning -- assumption of classical behavior for rotation
           may cause significant error
 Rotational temperatures (Kelvin)      0.03531     0.01607     0.01368
 Rotational constants (GHZ):           0.73572     0.33480     0.28504
 Zero-point vibrational energy     878056.1 (Joules/Mol)
                                  209.86045 (Kcal/Mol)
 Warning -- explicit consideration of  25 degrees of freedom as
           vibrations may cause significant error
 Vibrational temperatures:     40.32    50.41    61.46    67.25    82.92
          (Kelvin)            103.43   121.92   127.45   139.86   165.87
                              185.12   229.10   268.97   298.98   326.38
                              360.23   415.88   450.12   466.46   579.00
                              598.66   602.72   655.97   699.28   805.81
                              907.22   920.81   946.89   998.23  1029.41
                             1089.22  1138.14  1197.65  1200.25  1204.21
                             1239.15  1246.00  1305.98  1320.04  1336.64
                             1355.51  1382.27  1393.46  1429.14  1436.73
                             1451.47  1460.45  1471.93  1519.30  1527.22
                             1550.93  1600.92  1618.62  1639.26  1716.68
                             1734.66  1748.66  1763.77  1778.79  1782.37
                             1797.48  1849.40  1909.38  1914.71  1966.62
                             1976.44  1984.43  2055.14  2056.69  2089.30
                             2102.00  2133.16  2157.26  2167.20  2172.73
                             2181.12  2198.30  2201.15  2210.40  2212.73
                             2227.26  2369.65  2396.94  2405.27  2464.06
                             2482.97  4359.25  4371.87  4386.90  4387.80
                             4416.70  4441.68  4456.45  4471.65  4494.30
                             4498.25  4521.93  4529.63  4531.79  4547.79
                             4551.81  4569.29  4578.37  4586.44  4591.94
                             4602.50  4618.53  4669.53

 Zero-point correction=                           0.334434 (Hartree/Particle)
 Thermal correction to Energy=                    0.353524
 Thermal correction to Enthalpy=                  0.354468
 Thermal correction to Gibbs Free Energy=         0.284759
 Sum of electronic and zero-point Energies=           -622.642971
 Sum of electronic and thermal Energies=              -622.623881
 Sum of electronic and thermal Enthalpies=            -622.622937
 Sum of electronic and thermal Free Energies=         -622.692646

                     E (Thermal)             CV                S
                      KCal/Mol        Cal/Mol-Kelvin    Cal/Mol-Kelvin
 Total                  221.840             68.126            146.716
 Electronic               0.000              0.000              0.000
 Translational            0.889              2.981             41.988
 Rotational               0.889              2.981             32.793
 Vibrational            220.062             62.164             71.935
 Vibration     1          0.593              1.984              5.964
 Vibration     2          0.594              1.982              5.521
 Vibration     3          0.595              1.980              5.129
 Vibration     4          0.595              1.979              4.951
 Vibration     5          0.596              1.974              4.537
 Vibration     6          0.598              1.967              4.101
 Vibration     7          0.601              1.960              3.778
 Vibration     8          0.601              1.957              3.691
 Vibration     9          0.603              1.951              3.510
 Vibration    10          0.608              1.937              3.178
 Vibration    11          0.611              1.925              2.966
 Vibration    12          0.621              1.892              2.559
 Vibration    13          0.632              1.858              2.258
 Vibration    14          0.641              1.829              2.063
 Vibration    15          0.651              1.800              1.904
 Vibration    16          0.663              1.762              1.728
 Vibration    17          0.686              1.694              1.480
 Vibration    18          0.701              1.649              1.347
 Vibration    19          0.709              1.627              1.289
 Vibration    20          0.768              1.465              0.954
 Vibration    21          0.779              1.435              0.905
 Vibration    22          0.782              1.429              0.896
 Vibration    23          0.814              1.348              0.778
 Vibration    24          0.842              1.281              0.694
 Vibration    25          0.916              1.118              0.524

 Normal termination of Gaussian 16 at Mon Jan  4 10:32:30 2021.

 ----------------------------------------------------------------------
 # B3LYP/6-311++G(d,p) empiricaldispersion=gd3bj scf=xqc pop=npa geom=c
 heck
 ----------------------------------------------------------------------

 ---------------------------------------
 CID_142285670_JID_6607_Energie_neutraal
 ---------------------------------------
 Structure from the checkpoint file:  "JID_6607.chk"
 Charge =  0 Multiplicity = 1

 SCF Done:  E(RB3LYP) =  -623.146153697     A.U. after   15 cycles
 Normal termination of Gaussian 16 at Mon Jan  4 10:38:50 2021.

 ----------------------------------------------------------------------
 # B3LYP/6-311++G(d,p) empiricaldispersion=gd3bj scf=xqc pop=npa geom=c
 heck
 ----------------------------------------------------------------------

 -------------------------------------
 CID_142285670_JID_6607_Energie_kation
 -------------------------------------
 Structure from the checkpoint file:  "JID_6607.chk"
 Charge =  1 Multiplicity = 2

 SCF Done:  E(UB3LYP) =  -622.862380789     A.U. after   24 cycles
 Normal termination of Gaussian 16 at Mon Jan  4 10:52:11 2021.
 Gaussian 16:  ES64L-G16RevA.03 25-Dec-2016

 ----------------------------------------------------------------------
 # B3LYP/6-311++G(d,p) empiricaldispersion=gd3bj scf=xqc pop=npa geom=c
 heck
 ----------------------------------------------------------------------

 ------------------------------------
 CID_142285670_JID_6607_Energie_anion
 ------------------------------------
 Structure from the checkpoint file:  "JID_6607.chk"
 Charge = -1 Multiplicity = 2

                         Standard orientation:
 ---------------------------------------------------------------------
 Center     Atomic      Atomic             Coordinates (Angstroms)
 Number     Number       Type             X           Y           Z
 ---------------------------------------------------------------------
      1          6           0       -2.491330    2.489330   -0.922520
      2          6           0       -2.242383    2.264864    0.568631
      3          6           0        1.481123    1.740760    1.389044
      4          6           0        1.153926    1.940625   -0.060200
      5          6           0        1.146117    1.008045   -1.025402
      6          6           0        1.484167   -0.420179   -0.890084
      7          6           0        2.654727   -0.885267   -0.396865
      8          6           0        3.796201   -0.082762    0.007133
      9          6           0        4.903867   -0.589434    0.569492
     10          6           0        0.411961   -1.380347   -1.363255
     11          6           0       -0.842608   -1.337725   -0.506790
     12          6           0       -0.753431   -1.474871    0.884511
     13          6           0       -1.899128   -1.457725    1.677570
     14          6           0       -3.156718   -1.300335    1.090585
     15          6           0       -3.256441   -1.160624   -0.292983
     16          6           0       -2.105419   -1.177407   -1.083126
     17          1           0       -3.093609    1.677637   -1.343661
     18          1           0       -1.546506    2.516611   -1.476498
     19          1           0       -3.018241    3.432680   -1.108892
     20          1           0       -3.184741    2.200980    1.124627
     21          1           0       -1.693423    1.334680    0.735996
     22          1           0       -1.656536    3.085106    1.000971
     23          1           0        1.582844    0.682940    1.640239
     24          1           0        0.691555    2.175513    2.013986
     25          1           0        2.419330    2.241846    1.663486
     26          1           0        0.846948    2.948132   -0.339490
     27          1           0        0.780213    1.303264   -2.010530
     28          1           0        2.784338   -1.965544   -0.323734
     29          1           0        3.731350    0.986242   -0.180858
     30          1           0        5.745120    0.040251    0.842127
     31          1           0        5.002527   -1.652983    0.776114
     32          1           0        0.138055   -1.139800   -2.399725
     33          1           0        0.817101   -2.400228   -1.375268
     34          1           0        0.224701   -1.589511    1.343843
     35          1           0       -1.810900   -1.563095    2.755476
     36          1           0       -4.050126   -1.282050    1.708188
     37          1           0       -4.229267   -1.032398   -0.759717
     38          1           0       -2.188524   -1.061959   -2.161133
 ---------------------------------------------------------------------

 SCF Done:  E(UB3LYP) =  -623.140793591     A.U. after   33 cycles
 SCF Done:  E(UB3LYP) =  -623.140793591     a.u. after    1 cycles

 The electronic state is 2-A.
 Alpha  occ. eigenvalues --  -10.07201 -10.07023 -10.06990 -10.06846 -10.06443
 Alpha  occ. eigenvalues --  -10.06291 -10.05850 -10.05054 -10.04874 -10.04790
 Alpha  occ. eigenvalues --  -10.04665 -10.04372 -10.04028 -10.03833 -10.03000
 Alpha  occ. eigenvalues --  -10.02559  -0.75345  -0.70624  -0.66377  -0.65469
 Alpha  occ. eigenvalues --   -0.64484  -0.64053  -0.61946  -0.56831  -0.55577
 Alpha  occ. eigenvalues --   -0.50801  -0.50107  -0.48668  -0.46342  -0.43845
 Alpha  occ. eigenvalues --   -0.40803  -0.38536  -0.35672  -0.35474  -0.34911
 Alpha  occ. eigenvalues --   -0.33875  -0.32996  -0.32781  -0.31912  -0.31298
 Alpha  occ. eigenvalues --   -0.30467  -0.29695  -0.28761  -0.27430  -0.26285
 Alpha  occ. eigenvalues --   -0.25961  -0.25733  -0.24972  -0.24012  -0.23667
 Alpha  occ. eigenvalues --   -0.23623  -0.23390  -0.22184  -0.20502  -0.19083
 Alpha  occ. eigenvalues --   -0.15079  -0.14403  -0.13914  -0.09551   0.04569
 Alpha virt. eigenvalues --    0.06640   0.07674   0.07870   0.08402   0.08746
 Alpha virt. eigenvalues --    0.09024   0.09172   0.09773   0.09893   0.10292
 Alpha virt. eigenvalues --    0.10628   0.11395   0.11773   0.12125   0.12320

  Beta  occ. eigenvalues --  -10.07174 -10.07001 -10.06989 -10.06817 -10.06447
  Beta  occ. eigenvalues --  -10.06247 -10.05860 -10.05043 -10.04882 -10.04785
  Beta  occ. eigenvalues --  -10.04528 -10.04391 -10.03813 -10.03808 -10.02861
  Beta  occ. eigenvalues --  -10.02309  -0.75283  -0.70328  -0.66264  -0.65167
  Beta  occ. eigenvalues --   -0.64460  -0.63999  -0.61701  -0.56796  -0.55314
  Beta  occ. eigenvalues --   -0.50775  -0.50049  -0.48434  -0.46062  -0.43561
  Beta  occ. eigenvalues --   -0.40730  -0.38357  -0.35549  -0.35419  -0.34850
  Beta  occ. eigenvalues --   -0.33738  -0.32978  -0.32756  -0.31833  -0.31194
  Beta  occ. eigenvalues --   -0.30366  -0.29589  -0.28653  -0.27291  -0.26248
  Beta  occ. eigenvalues --   -0.25873  -0.25680  -0.24867  -0.23919  -0.23633
  Beta  occ. eigenvalues --   -0.23575  -0.23366  -0.22065  -0.20372  -0.18107
  Beta  occ. eigenvalues --   -0.14961  -0.14060  -0.13535  -0.08271
  Beta virt. eigenvalues --    0.06737   0.07768   0.08094   0.08264   0.08703
  Beta virt. eigenvalues --    0.08854   0.09300   0.09449   0.09967   0.10160
  Beta virt. eigenvalues --    0.10423   0.10745   0.11447   0.11766   0.12077

 Mulliken charges and spin densities:
               1          2
     1  C   -0.275350  -0.251388
     2  C   -0.392160   0.089482
     3  C   -0.693313  -0.002427
     4  C    0.243538  -0.400853
     5  C   -0.576901   0.004213
     6  C    1.330293   0.080588
     7  C   -0.575306   0.135635
     8  C    0.370613  -0.057114
     9  C   -0.728622   0.241764
    10  C   -0.279384  -1.013067
    11  C    0.488192   0.786015
    12  C   -1.131902   0.408837
    13  C   -0.556768   0.202652
    14  C    0.243475  -0.607381
    15  C    0.278679  -0.620215
    16  C    0.366393  -0.207489
    17  H    0.111247   0.013078
    18  H    0.030269   0.090182
    19  H   -0.077566   0.198815
    20  H   -0.009423   0.115632
    21  H    0.486900  -0.229389
    22  H    0.119878  -0.001775
    23  H    0.140521  -0.006340
    24  H    0.061981   0.047734
    25  H    0.110999   0.032744
    26  H    0.002348   0.140135
    27  H   -0.040987   0.229286
    28  H    0.122216  -0.017260
    29  H    0.152512  -0.009267
    30  H    0.103598  -0.009085
    31  H    0.080811  -0.011650
    32  H   -0.031094   0.204246
    33  H    0.025019   0.111151
    34  H    0.181045  -0.001621
    35  H    0.037019   0.119438
    36  H   -0.037560   0.168823
    37  H   -0.286690   0.459866
    38  H   -0.394518   0.566004
 Sum of Mulliken charges =  -1.00000   1.00000

 Dipole moment (field-independent basis, Debye):
    X=             -1.3552    Y=              0.2229    Z=              2.7170  Tot=              3.0444
 Quadrupole moment (field-independent basis, Debye-Ang):
   XX=           -169.2545   YY=           -128.9994   ZZ=           -127.1596
   XY=              0.3046   XZ=             -3.4910   YZ=             -0.5141

 Summary of Natural Population Analysis:

                                       Natural Population
                Natural  -----------------------------------------------
    Atom  No    Charge         Core      Valence    Rydberg      Total
 -----------------------------------------------------------------------
      C    1   -0.28637      0.99968     2.28236    0.00433     3.28637
      C    2   -0.28634      0.99967     2.28222    0.00444     3.28634
      C    3   -0.30724      0.99964     2.30267    0.00492     3.30724
      C    4   -0.06037      0.99954     2.05106    0.00977     3.06037
      C    5   -0.11832      0.99949     2.10746    0.01137     3.11832
      C    6    0.01468      0.99948     1.97480    0.01104     2.98532
      C    7   -0.09012      0.99945     2.08037    0.01029     3.09012
      C    8   -0.10657      0.99956     2.09756    0.00945     3.10657
      C    9   -0.15111      0.99959     2.14395    0.00757     3.15111
      C   10   -0.20442      0.99957     2.19475    0.01010     3.20442
      C   11   -0.00359      0.99950     1.99346    0.01063     3.00359
      C   12   -0.10271      0.99950     2.09423    0.00897     3.10271
      C   13   -0.10019      0.99956     2.09157    0.00906     3.10019
      C   14   -0.10771      0.99956     2.09774    0.01041     3.10771
      C   15   -0.10372      0.99956     2.09380    0.01036     3.10372
      C   16   -0.09607      0.99950     2.08615    0.01042     3.09607
      H   17    0.09737      0.00000     0.40148    0.00115     0.40263
      H   18    0.09954      0.00000     0.39922    0.00124     0.40046
      H   19    0.08773      0.00000     0.41148    0.00080     0.41227
      H   20    0.09067      0.00000     0.40835    0.00098     0.40933
      H   21    0.10679      0.00000     0.39083    0.00238     0.39321
      H   22    0.09025      0.00000     0.40880    0.00096     0.40975
      H   23    0.10849      0.00000     0.39043    0.00108     0.39151
      H   24    0.09812      0.00000     0.40084    0.00104     0.40188
      H   25    0.09999      0.00000     0.39890    0.00111     0.40001
      H   26    0.08587      0.00000     0.41244    0.00169     0.41413
      H   27    0.09680      0.00000     0.40178    0.00142     0.40320
      H   28    0.08566      0.00000     0.41288    0.00146     0.41434
      H   29    0.09431      0.00000     0.40401    0.00167     0.40569
      H   30    0.08308      0.00000     0.41599    0.00093     0.41692
      H   31    0.08009      0.00000     0.41880    0.00111     0.41991
      H   32    0.10311      0.00000     0.39517    0.00172     0.39689
      H   33    0.10424      0.00000     0.39477    0.00099     0.39576
      H   34    0.10414      0.00000     0.39430    0.00156     0.39586
      H   35    0.09674      0.00000     0.40246    0.00080     0.40326
      H   36    0.09732      0.00000     0.40186    0.00082     0.40268
      H   37    0.09911      0.00000     0.39980    0.00109     0.40089
      H   38    0.10074      0.00000     0.39776    0.00150     0.39926
 =======================================================================
   * Total *    0.00000     15.99288    42.83651    0.17061    59.00000

 Normal termination of Gaussian 16 at Mon Jan  4 11:10:51 2021.
