 Gaussian 16, Revision A.03,

 -----------------------------------------------------------
 # opt freq B3LYP/6-31G(d) empiricaldispersion=gd3bj scf=xqc
 -----------------------------------------------------------

 -------------------------------
 CID_104366822_JID_3332_neutraal
 -------------------------------
 Symbolic Z-matrix:
 Charge =  0 Multiplicity = 1

 SCF Done:  E(RB3LYP) =  -917.047821092     A.U. after   15 cycles
 SCF Done:  E(RB3LYP) =  -917.052009293     A.U. after   12 cycles
 SCF Done:  E(RB3LYP) =  -917.052318465     A.U. after   12 cycles
 SCF Done:  E(RB3LYP) =  -917.052226164     A.U. after   12 cycles
 SCF Done:  E(RB3LYP) =  -917.052462628     A.U. after   13 cycles
 SCF Done:  E(RB3LYP) =  -917.052617161     A.U. after   11 cycles
 SCF Done:  E(RB3LYP) =  -917.052819769     A.U. after   12 cycles
 SCF Done:  E(RB3LYP) =  -917.052912399     A.U. after   13 cycles
 SCF Done:  E(RB3LYP) =  -917.052942795     A.U. after   11 cycles
 SCF Done:  E(RB3LYP) =  -917.053013972     A.U. after   11 cycles
 SCF Done:  E(RB3LYP) =  -917.053092753     A.U. after   10 cycles
 SCF Done:  E(RB3LYP) =  -917.053102733     A.U. after   10 cycles
 SCF Done:  E(RB3LYP) =  -917.053104977     A.U. after   10 cycles
 SCF Done:  E(RB3LYP) =  -917.053105158     A.U. after    8 cycles
 SCF Done:  E(RB3LYP) =  -917.053105185     A.U. after    7 cycles
 Optimization completed.
    -- Stationary point found.
 Normal termination of Gaussian 16 at Wed Dec  9 22:59:35 2020.

 --------------------------------------------------------------------
 #N Geom=AllCheck Guess=TCheck SCRF=Check GenChk RB3LYP/6-31G(d) Freq
 --------------------------------------------------------------------

 Structure from the checkpoint file:  "JID_3332.chk"
 -------------------------------
 CID_104366822_JID_3332_neutraal
 -------------------------------
 Charge =  0 Multiplicity = 1

 SCF Done:  E(RB3LYP) =  -917.053105185     A.U. after    1 cycles

  Exact polarizability: 166.849  -6.632 152.082  -3.829  11.154  79.270
 Approx polarizability: 262.424  -8.004 245.456 -10.672  30.422 123.473

                      1                      2                      3
                      A                      A                      A
 Frequencies --     41.3308                54.1041                76.0668
 Red. masses --      4.7530                 3.2952                 4.3821
 Frc consts  --      0.0048                 0.0057                 0.0149
 IR Inten    --      0.0472                 0.2682                 0.5328

                      4                      5                      6
                      A                      A                      A
 Frequencies --     93.1108               106.4312               131.3740
 Red. masses --      2.5902                 3.4132                 3.7483
 Frc consts  --      0.0132                 0.0228                 0.0381
 IR Inten    --      0.4942                 0.7009                 3.9923

                      7                      8                      9
                      A                      A                      A
 Frequencies --    147.0545               213.1589               236.0901
 Red. masses --      4.6870                 1.8081                 1.6866
 Frc consts  --      0.0597                 0.0484                 0.0554
 IR Inten    --      3.5202                 1.2174                 1.6184

                     10                     11                     12
                      A                      A                      A
 Frequencies --    272.8710               275.4994               289.8205
 Red. masses --      2.4727                 5.5768                 2.6557
 Frc consts  --      0.1085                 0.2494                 0.1314
 IR Inten    --      6.0804                 1.6840                 1.8580

                     13                     14                     15
                      A                      A                      A
 Frequencies --    359.2408               378.0296               385.6163
 Red. masses --      2.4310                 4.5806                 2.9677
 Frc consts  --      0.1848                 0.3857                 0.2600
 IR Inten    --      0.1095                 5.6513                 1.9769

                     16                     17                     18
                      A                      A                      A
 Frequencies --    471.4862               491.3267               551.4558
 Red. masses --      4.5178                 4.6486                 1.7191
 Frc consts  --      0.5917                 0.6612                 0.3080
 IR Inten    --      2.9575                 7.6313                 3.6261

                     19                     20                     21
                      A                      A                      A
 Frequencies --    557.5088               628.7682               657.3171
 Red. masses --      3.6082                 2.0793                 2.2059
 Frc consts  --      0.6608                 0.4843                 0.5616
 IR Inten    --      4.9052                 8.3367                 2.0528

                     22                     23                     24
                      A                      A                      A
 Frequencies --    675.6275               715.6745               744.6955
 Red. masses --      5.7909                 1.5897                 6.1582
 Frc consts  --      1.5574                 0.4797                 2.0121
 IR Inten    --     42.1833                25.6480                15.0071

                     25                     26                     27
                      A                      A                      A
 Frequencies --    808.6264               844.8666               860.3292
 Red. masses --      1.1608                 1.4533                 2.9435
 Frc consts  --      0.4472                 0.6112                 1.2836
 IR Inten    --      9.4536                21.3056                 7.0507

                     28                     29                     30
                      A                      A                      A
 Frequencies --    895.5540               929.7406               946.2699
 Red. masses --      3.7399                 1.8685                 1.3997
 Frc consts  --      1.7672                 0.9516                 0.7385
 IR Inten    --      7.4768                 1.3969                32.0273

                     31                     32                     33
                      A                      A                      A
 Frequencies --    958.2781               985.1871              1011.9728
 Red. masses --      2.4039                 2.2315                 1.7185
 Frc consts  --      1.3006                 1.2761                 1.0369
 IR Inten    --      8.8136                 8.7699                 0.2783

                     34                     35                     36
                      A                      A                      A
 Frequencies --   1036.4048              1054.3239              1106.7671
 Red. masses --      1.1390                 2.1102                 1.8989
 Frc consts  --      0.7208                 1.3820                 1.3705
 IR Inten    --     10.7770                41.5687                17.9159

                     37                     38                     39
                      A                      A                      A
 Frequencies --   1147.3814              1169.6328              1212.9987
 Red. masses --      1.8000                 1.7206                 1.9757
 Frc consts  --      1.3962                 1.3868                 1.7128
 IR Inten    --     25.4666                10.3672                72.5902

                     40                     41                     42
                      A                      A                      A
 Frequencies --   1220.7078              1271.1795              1272.6150
 Red. masses --      2.1197                 1.7491                 2.7149
 Frc consts  --      1.8610                 1.6652                 2.5906
 IR Inten    --     24.4872                28.5305                79.6283

                     43                     44                     45
                      A                      A                      A
 Frequencies --   1317.9593              1326.7094              1376.7486
 Red. masses --      1.4061                 1.2448                 1.4172
 Frc consts  --      1.4390                 1.2909                 1.5826
 IR Inten    --     13.7677                 5.7814                14.9813

                     46                     47                     48
                      A                      A                      A
 Frequencies --   1382.6023              1407.0895              1419.5548
 Red. masses --      1.3881                 1.3135                 1.3116
 Frc consts  --      1.5634                 1.5322                 1.5572
 IR Inten    --     56.3302                45.2396                 6.5362

                     49                     50                     51
                      A                      A                      A
 Frequencies --   1436.1153              1437.3916              1474.5878
 Red. masses --      4.5789                 1.2635                 1.2253
 Frc consts  --      5.5641                 1.5381                 1.5698
 IR Inten    --      7.8042                21.5732                19.2686

                     52                     53                     54
                      A                      A                      A
 Frequencies --   1495.0565              1515.5394              1523.1231
 Red. masses --      1.4984                 1.4493                 1.0697
 Frc consts  --      1.9733                 1.9612                 1.4621
 IR Inten    --     80.6805                76.4406                 4.2205

                     55                     56                     57
                      A                      A                      A
 Frequencies --   1531.3788              1544.7212              1622.5227
 Red. masses --      1.1620                 1.1780                 5.3643
 Frc consts  --      1.6055                 1.6561                 8.3203
 IR Inten    --     37.5032                30.9150               146.2914

                     58                     59                     60
                      A                      A                      A
 Frequencies --   1730.4163              1776.3941              2916.9340
 Red. masses --      4.4804                 9.7789                 1.0835
 Frc consts  --      7.9043                18.1810                 5.4317
 IR Inten    --      2.9793               345.3690               116.2663

                     61                     62                     63
                      A                      A                      A
 Frequencies --   3010.6295              3054.2499              3060.2475
 Red. masses --      1.0663                 1.0361                 1.0648
 Frc consts  --      5.6944                 5.6946                 5.8753
 IR Inten    --     38.3810                21.1974                22.1288

                     64                     65                     66
                      A                      A                      A
 Frequencies --   3070.7128              3095.0474              3120.7237
 Red. masses --      1.0921                 1.1040                 1.1026
 Frc consts  --      6.0670                 6.2307                 6.3266
 IR Inten    --     26.6847                14.6043                38.0296

                     67                     68                     69
                      A                      A                      A
 Frequencies --   3136.7194              3154.0067              3168.6645
 Red. masses --      1.1025                 1.0595                 1.0929
 Frc consts  --      6.3911                 6.2100                 6.4649
 IR Inten    --     35.9750                10.2138                 6.6347

                     70                     71                     72
                      A                      A                      A
 Frequencies --   3239.6432              3252.5065              3281.4366
 Red. masses --      1.1144                 1.0921                 1.0921
 Frc consts  --      6.8912                 6.8067                 6.9286
 IR Inten    --     16.3446                 0.8687                 3.9325

 - Thermochemistry -
 -------------------
 Temperature   298.150 Kelvin.  Pressure   1.00000 Atm.
 Atom     1 has atomic number  6 and mass  12.00000

 Molecular mass:   195.07179 amu.
 Principal axes and moments of inertia in atomic units:
                           1         2         3
     Eigenvalues --  1890.120583839.643125449.94627
           X            0.99977  -0.02106   0.00421
           Y            0.02109   0.99976  -0.00528
           Z           -0.00410   0.00536   0.99998
 This molecule is an asymmetric top.
 Rotational symmetry number  1.
 Warning -- assumption of classical behavior for rotation
           may cause significant error
 Rotational temperatures (Kelvin)      0.04582     0.02256     0.01589
 Rotational constants (GHZ):           0.95483     0.47003     0.33115
 Zero-point vibrational energy     557256.0 (Joules/Mol)
                                  133.18738 (Kcal/Mol)
 Warning -- explicit consideration of  19 degrees of freedom as
           vibrations may cause significant error
 Vibrational temperatures:     59.47    77.84   109.44   133.97   153.13
          (Kelvin)            189.02   211.58   306.69   339.68   392.60
                              396.38   416.99   516.87   543.90   554.82
                              678.36   706.91   793.42   802.13   904.66
                              945.73   972.08  1029.70  1071.45  1163.43
                             1215.57  1237.82  1288.50  1337.69  1361.47
                             1378.75  1417.46  1456.00  1491.16  1516.94
                             1592.39  1650.83  1682.84  1745.23  1756.33
                             1828.94  1831.01  1896.25  1908.84  1980.83
                             1989.26  2024.49  2042.42  2066.25  2068.09
                             2121.60  2151.05  2180.52  2191.43  2203.31
                             2222.51  2334.45  2489.68  2555.83  4196.82
                             4331.62  4394.38  4403.01  4418.07  4453.08
                             4490.03  4513.04  4537.91  4559.00  4661.12
                             4679.63  4721.26

 Zero-point correction=                           0.212248 (Hartree/Particle)
 Thermal correction to Energy=                    0.225931
 Thermal correction to Enthalpy=                  0.226875
 Thermal correction to Gibbs Free Energy=         0.170879
 Sum of electronic and zero-point Energies=           -916.840858
 Sum of electronic and thermal Energies=              -916.827174
 Sum of electronic and thermal Enthalpies=            -916.826230
 Sum of electronic and thermal Free Energies=         -916.882226

                     E (Thermal)             CV                S
                      KCal/Mol        Cal/Mol-Kelvin    Cal/Mol-Kelvin
 Total                  141.774             49.982            117.855
 Electronic               0.000              0.000              0.000
 Translational            0.889              2.981             41.710
 Rotational               0.889              2.981             32.048
 Vibrational            139.996             44.020             44.097
 Vibration     1          0.594              1.981              5.194
 Vibration     2          0.596              1.976              4.661
 Vibration     3          0.599              1.965              3.990
 Vibration     4          0.602              1.954              3.594
 Vibration     5          0.605              1.944              3.333
 Vibration     6          0.612              1.922              2.926
 Vibration     7          0.617              1.906              2.710
 Vibration     8          0.644              1.821              2.016
 Vibration     9          0.655              1.786              1.832
 Vibration    10          0.676              1.723              1.578
 Vibration    11          0.677              1.719              1.561
 Vibration    12          0.686              1.693              1.475
 Vibration    13          0.734              1.556              1.125
 Vibration    14          0.748              1.517              1.047
 Vibration    15          0.754              1.501              1.017
 Vibration    16          0.828              1.313              0.733
 Vibration    17          0.847              1.269              0.680
 Vibration    18          0.907              1.136              0.541
 Vibration    19          0.913              1.123              0.529

 Optimization completed.
    -- Stationary point found.
 Normal termination of Gaussian 16 at Wed Dec  9 23:05:52 2020.

 ----------------------------------------------------------------------
 # B3LYP/6-311++G(d,p) empiricaldispersion=gd3bj scf=xqc pop=npa geom=c
 heck
 ----------------------------------------------------------------------

 ---------------------------------------
 CID_104366822_JID_3332_Energie_neutraal
 ---------------------------------------
 Structure from the checkpoint file:  "JID_3332.chk"
 Charge =  0 Multiplicity = 1

 SCF Done:  E(RB3LYP) =  -917.224528801     A.U. after   16 cycles
 Normal termination of Gaussian 16 at Wed Dec  9 23:08:27 2020.

 ----------------------------------------------------------------------
 # B3LYP/6-311++G(d,p) empiricaldispersion=gd3bj scf=xqc pop=npa geom=c
 heck
 ----------------------------------------------------------------------

 -------------------------------------
 CID_104366822_JID_3332_Energie_kation
 -------------------------------------
 Structure from the checkpoint file:  "JID_3332.chk"
 Charge =  1 Multiplicity = 2

 SCF Done:  E(UB3LYP) =  -916.953529123     A.U. after   23 cycles
 Normal termination of Gaussian 16 at Wed Dec  9 23:13:35 2020.
 Gaussian 16:  ES64L-G16RevA.03 25-Dec-2016

 ----------------------------------------------------------------------
 # B3LYP/6-311++G(d,p) empiricaldispersion=gd3bj scf=xqc pop=npa geom=c
 heck
 ----------------------------------------------------------------------

 ------------------------------------
 CID_104366822_JID_3332_Energie_anion
 ------------------------------------
 Structure from the checkpoint file:  "JID_3332.chk"
 Charge = -1 Multiplicity = 2

                         Standard orientation:
 ---------------------------------------------------------------------
 Center     Atomic      Atomic             Coordinates (Angstroms)
 Number     Number       Type             X           Y           Z
 ---------------------------------------------------------------------
      1          6           0        2.593937   -2.319662    0.903453
      2          6           0        2.465263   -1.512240   -0.393925
      3          7           0        1.666260   -0.298110   -0.271115
      4          6           0        2.300961    0.856562    0.361880
      5          6           0        2.256057    2.101035   -0.489962
      6          6           0        1.963979    3.317396   -0.031257
      7          6           0        0.282065   -0.421071   -0.197220
      8          6           0       -0.438310   -1.587775   -0.417570
      9         16           0       -2.150865   -1.370132   -0.290062
     10          6           0       -1.930028    0.313962    0.083576
     11          6           0       -0.598603    0.668808    0.097101
     12          6           0       -3.067904    1.185671    0.329885
     13          8           0       -4.235781    0.835186    0.303653
     14          1           0        3.097254   -1.731654    1.679161
     15          1           0        3.180186   -3.230271    0.736057
     16          1           0        1.610243   -2.608552    1.285814
     17          1           0        3.457389   -1.217843   -0.752747
     18          1           0        2.027797   -2.128186   -1.187335
     19          1           0        1.869342    1.062547    1.353056
     20          1           0        3.350053    0.585918    0.532276
     21          1           0        2.502865    1.950757   -1.540343
     22          1           0        1.977568    4.192261   -0.674569
     23          1           0        1.704496    3.484817    1.012785
     24          1           0       -0.050208   -2.569395   -0.643973
     25          1           0       -0.268562    1.683001    0.279581
     26          1           0       -2.786644    2.237880    0.554046
 ---------------------------------------------------------------------

 SCF Done:  E(UB3LYP) =  -917.236106357     A.U. after   33 cycles
 SCF Done:  E(UB3LYP) =  -917.236106357     a.u. after    1 cycles

 The electronic state is 2-A.
 Alpha  occ. eigenvalues --  -88.71196 -18.92350 -14.20684 -10.10372 -10.09966
 Alpha  occ. eigenvalues --  -10.07820 -10.06968 -10.06824 -10.06476 -10.06128
 Alpha  occ. eigenvalues --  -10.03287 -10.03202 -10.01526  -7.79841  -5.76140
 Alpha  occ. eigenvalues --   -5.75787  -5.75441  -0.86034  -0.83089  -0.72159
 Alpha  occ. eigenvalues --   -0.69119  -0.64814  -0.60210  -0.58569  -0.56157
 Alpha  occ. eigenvalues --   -0.50931  -0.47679  -0.46416  -0.41738  -0.39817
 Alpha  occ. eigenvalues --   -0.38150  -0.35937  -0.35088  -0.34134  -0.32940
 Alpha  occ. eigenvalues --   -0.31420  -0.30071  -0.28817  -0.27544  -0.26196
 Alpha  occ. eigenvalues --   -0.26111  -0.25011  -0.24540  -0.24149  -0.23337
 Alpha  occ. eigenvalues --   -0.21416  -0.19453  -0.17095  -0.15258  -0.10251
 Alpha  occ. eigenvalues --   -0.08690  -0.06258   0.04473
 Alpha virt. eigenvalues --    0.06386   0.07799   0.08435   0.08877   0.09254
 Alpha virt. eigenvalues --    0.10364   0.10856   0.11831   0.12345   0.12588
 Alpha virt. eigenvalues --    0.13065   0.14113   0.14644   0.15482   0.15780

  Beta  occ. eigenvalues --  -88.71139 -18.91846 -14.20699 -10.10371 -10.09964
  Beta  occ. eigenvalues --  -10.07796 -10.07062 -10.06789 -10.06194 -10.06104
  Beta  occ. eigenvalues --  -10.03210 -10.02904 -10.01259  -7.79790  -5.76114
  Beta  occ. eigenvalues --   -5.75762  -5.75255  -0.85115  -0.83101  -0.71878
  Beta  occ. eigenvalues --   -0.69056  -0.64772  -0.60069  -0.58023  -0.55954
  Beta  occ. eigenvalues --   -0.50766  -0.47089  -0.46051  -0.41659  -0.39598
  Beta  occ. eigenvalues --   -0.37977  -0.35779  -0.35053  -0.33957  -0.32836
  Beta  occ. eigenvalues --   -0.31360  -0.29898  -0.28788  -0.27477  -0.26032
  Beta  occ. eigenvalues --   -0.25775  -0.24621  -0.23906  -0.23696  -0.23105
  Beta  occ. eigenvalues --   -0.19712  -0.19124  -0.16790  -0.14800  -0.08488
  Beta  occ. eigenvalues --   -0.08237  -0.05205
  Beta virt. eigenvalues --    0.06533   0.07810   0.08417   0.08915   0.09286
  Beta virt. eigenvalues --    0.10151   0.10786   0.10981   0.11779   0.12368
  Beta virt. eigenvalues --    0.12536   0.13051   0.14067   0.14554   0.15501

 Mulliken charges and spin densities:
               1          2
     1  C    0.025807  -0.508103
     2  C   -0.452665   0.270645
     3  N    0.267706   0.008235
     4  C   -0.385555  -0.226866
     5  C    0.249072   0.114677
     6  C   -0.585355   0.049815
     7  C   -1.692738  -0.084965
     8  C    0.680265   0.214946
     9  S   -0.577373   0.091675
    10  C   -0.386938   0.019900
    11  C    0.949496   0.181836
    12  C    0.132659   0.233013
    13  O   -0.392757   0.168779
    14  H    0.036166   0.093298
    15  H   -0.103030   0.215608
    16  H    0.127784   0.036204
    17  H    0.047431   0.080365
    18  H    0.138946  -0.013569
    19  H    0.177955  -0.017199
    20  H    0.062925   0.103680
    21  H    0.159340   0.001148
    22  H    0.116439  -0.002354
    23  H    0.095965   0.007316
    24  H    0.206811  -0.008398
    25  H    0.068345  -0.015205
    26  H    0.033300  -0.014484
 Sum of Mulliken charges =  -1.00000   1.00000

 Dipole moment (field-independent basis, Debye):
    X=              8.9455    Y=              0.1122    Z=             -0.5974  Tot=              8.9661
 Quadrupole moment (field-independent basis, Debye-Ang):
   XX=           -151.8711   YY=           -103.7771   ZZ=            -96.2754
   XY=              5.8287   XZ=             -1.0201   YZ=              1.8630

 Summary of Natural Population Analysis:

                                       Natural Population
                Natural  -----------------------------------------------
    Atom  No    Charge         Core      Valence    Rydberg      Total
 -----------------------------------------------------------------------
      C    1   -0.29950      0.99966     2.29440    0.00544     3.29950
      C    2   -0.08061      0.99964     2.06897    0.01201     3.08061
      N    3   -0.26369      0.99964     2.75223    0.01182     3.76369
      C    4   -0.10109      0.99959     2.08910    0.01240     3.10109
      C    5   -0.07705      0.99957     2.06788    0.00961     3.07705
      C    6   -0.19366      0.99957     2.18734    0.00675     3.19366
      C    7    0.03773      0.99946     1.95062    0.01219     2.96227
      C    8   -0.17601      0.99952     2.16752    0.00896     3.17601
      S    9    0.22051      4.99943     2.75557    0.02449     7.77949
      C   10   -0.13360      0.99948     2.12267    0.01145     3.13360
      C   11   -0.07964      0.99946     2.07236    0.00782     3.07964
      C   12    0.22563      0.99963     1.75361    0.02113     2.77437
      O   13   -0.25359      0.99988     3.24569    0.00802     4.25359
      H   14    0.09461      0.00000     0.40451    0.00088     0.40539
      H   15    0.09367      0.00000     0.40474    0.00159     0.40633
      H   16    0.10771      0.00000     0.39099    0.00130     0.39229
      H   17    0.08840      0.00000     0.41072    0.00089     0.41160
      H   18    0.09596      0.00000     0.40256    0.00149     0.40404
      H   19    0.09278      0.00000     0.40491    0.00231     0.40722
      H   20    0.09851      0.00000     0.39994    0.00155     0.40149
      H   21    0.09216      0.00000     0.40631    0.00152     0.40784
      H   22    0.09117      0.00000     0.40786    0.00097     0.40883
      H   23    0.08936      0.00000     0.40956    0.00108     0.41064
      H   24    0.09577      0.00000     0.40336    0.00087     0.40423
      H   25    0.10160      0.00000     0.39668    0.00172     0.39840
      H   26    0.03287      0.00000     0.46417    0.00296     0.46713
 =======================================================================
   * Total *    0.00000     16.99454    34.83425    0.17121    52.00000

 Normal termination of Gaussian 16 at Wed Dec  9 23:21:22 2020.
