 Gaussian 16, Revision A.03,

 -----------------------------------------------------------
 # opt freq B3LYP/6-31G(d) empiricaldispersion=gd3bj scf=xqc
 -----------------------------------------------------------

 ------------------------------
 CID_68421525_JID_4410_neutraal
 ------------------------------
 Symbolic Z-matrix:
 Charge =  0 Multiplicity = 1

 SCF Done:  E(RB3LYP) =  -648.046773440     A.U. after   14 cycles
 SCF Done:  E(RB3LYP) =  -648.051801920     A.U. after   12 cycles
 SCF Done:  E(RB3LYP) =  -648.051506489     A.U. after   12 cycles
 SCF Done:  E(RB3LYP) =  -648.053325315     A.U. after   11 cycles
 SCF Done:  E(RB3LYP) =  -648.053537185     A.U. after   11 cycles
 SCF Done:  E(RB3LYP) =  -648.053496214     A.U. after   11 cycles
 SCF Done:  E(RB3LYP) =  -648.053597963     A.U. after   11 cycles
 SCF Done:  E(RB3LYP) =  -648.053605900     A.U. after    9 cycles
 SCF Done:  E(RB3LYP) =  -648.053610978     A.U. after    8 cycles
 SCF Done:  E(RB3LYP) =  -648.053613316     A.U. after    8 cycles
 SCF Done:  E(RB3LYP) =  -648.053614599     A.U. after    8 cycles
 SCF Done:  E(RB3LYP) =  -648.053615202     A.U. after    7 cycles
 SCF Done:  E(RB3LYP) =  -648.053615785     A.U. after    8 cycles
 SCF Done:  E(RB3LYP) =  -648.053616127     A.U. after    8 cycles
 SCF Done:  E(RB3LYP) =  -648.053616243     A.U. after    7 cycles
 SCF Done:  E(RB3LYP) =  -648.053616287     A.U. after    6 cycles
 Optimization completed.
    -- Stationary point found.
 Normal termination of Gaussian 16 at Thu Dec 10 09:42:32 2020.

 --------------------------------------------------------------------
 #N Geom=AllCheck Guess=TCheck SCRF=Check GenChk RB3LYP/6-31G(d) Freq
 --------------------------------------------------------------------

 Structure from the checkpoint file:  "JID_4410.chk"
 ------------------------------
 CID_68421525_JID_4410_neutraal
 ------------------------------
 Charge =  0 Multiplicity = 1

 SCF Done:  E(RB3LYP) =  -648.053616287     A.U. after    1 cycles

  Exact polarizability: 147.105  -2.561 114.903  -1.675  -0.281 102.292
 Approx polarizability: 187.184   0.117 168.504  -2.841  -2.725 149.756

                      1                      2                      3
                      A                      A                      A
 Frequencies --     46.0359                67.7006                88.1103
 Red. masses --      3.3862                 2.8345                 2.2817
 Frc consts  --      0.0042                 0.0077                 0.0104
 IR Inten    --      1.6648                 0.1673                 1.5353

                      4                      5                      6
                      A                      A                      A
 Frequencies --    101.0858               116.2352               143.6836
 Red. masses --      4.2062                 1.6931                 5.0007
 Frc consts  --      0.0253                 0.0135                 0.0608
 IR Inten    --      0.1802                 0.5708                 1.3687

                      7                      8                      9
                      A                      A                      A
 Frequencies --    183.1111               195.1793               239.0892
 Red. masses --      1.8561                 3.2605                 2.0383
 Frc consts  --      0.0367                 0.0732                 0.0687
 IR Inten    --      1.7376                 8.1880                 0.7513

                     10                     11                     12
                      A                      A                      A
 Frequencies --    273.6141               320.6505               356.9068
 Red. masses --      3.6950                 1.8372                 2.3228
 Frc consts  --      0.1630                 0.1113                 0.1743
 IR Inten    --      1.1728                 2.5911                 3.5734

                     13                     14                     15
                      A                      A                      A
 Frequencies --    378.0187               432.1121               451.6850
 Red. masses --      2.7234                 3.1157                 2.5789
 Frc consts  --      0.2293                 0.3428                 0.3100
 IR Inten    --      5.5976                21.6682                17.5851

                     16                     17                     18
                      A                      A                      A
 Frequencies --    470.5232               477.9066               504.1839
 Red. masses --      2.9769                 4.6487                 3.3967
 Frc consts  --      0.3883                 0.6256                 0.5087
 IR Inten    --     16.8899                 0.8691                 6.0619

                     19                     20                     21
                      A                      A                      A
 Frequencies --    563.0318               577.7304               604.6679
 Red. masses --      2.7294                 5.1687                 1.7027
 Frc consts  --      0.5098                 1.0164                 0.3668
 IR Inten    --      5.7565                 2.3337                 1.4618

                     22                     23                     24
                      A                      A                      A
 Frequencies --    711.7062               741.9610               807.6640
 Red. masses --      2.6774                11.4783                 3.8130
 Frc consts  --      0.7990                 3.7230                 1.4655
 IR Inten    --      7.4085                18.8306                 9.3531

                     25                     26                     27
                      A                      A                      A
 Frequencies --    825.6253               827.9188               899.2961
 Red. masses --      2.2795                 1.6372                 1.5849
 Frc consts  --      0.9155                 0.6612                 0.7552
 IR Inten    --    131.0387                 5.5823                32.2807

                     28                     29                     30
                      A                      A                      A
 Frequencies --    905.4656               918.4738               934.7397
 Red. masses --      2.6050                 1.3898                 2.1694
 Frc consts  --      1.2584                 0.6908                 1.1168
 IR Inten    --      1.7870                 8.0303                 0.6812

                     31                     32                     33
                      A                      A                      A
 Frequencies --    956.2885               982.8647              1017.2094
 Red. masses --      2.5759                 2.3188                 2.3844
 Frc consts  --      1.3879                 1.3198                 1.4536
 IR Inten    --      0.7163                 1.3781                 4.5333

                     34                     35                     36
                      A                      A                      A
 Frequencies --   1034.7293              1037.7545              1078.6627
 Red. masses --      1.5359                 2.3190                 1.9965
 Frc consts  --      0.9689                 1.4714                 1.3686
 IR Inten    --     12.6210                17.3108                 1.5690

                     37                     38                     39
                      A                      A                      A
 Frequencies --   1113.6916              1138.0269              1141.1130
 Red. masses --      1.6870                 4.4870                 1.6476
 Frc consts  --      1.2328                 3.4238                 1.2640
 IR Inten    --     63.2522                28.0600                 5.4551

                     40                     41                     42
                      A                      A                      A
 Frequencies --   1170.5090              1189.8351              1203.6584
 Red. masses --      1.3887                 2.0635                 3.2859
 Frc consts  --      1.1210                 1.7212                 2.8049
 IR Inten    --     13.4968                19.3155                 1.0949

                     43                     44                     45
                      A                      A                      A
 Frequencies --   1215.1186              1232.1452              1237.1378
 Red. masses --      1.9767                 1.2707                 1.3890
 Frc consts  --      1.7196                 1.1366                 1.2525
 IR Inten    --     24.5789                29.0668                27.4059

                     46                     47                     48
                      A                      A                      A
 Frequencies --   1249.6610              1271.6614              1293.1942
 Red. masses --      2.3322                 2.2033                 1.3389
 Frc consts  --      2.1459                 2.0993                 1.3192
 IR Inten    --     17.0065                27.9814                12.6716

                     49                     50                     51
                      A                      A                      A
 Frequencies --   1316.2249              1319.9063              1359.5811
 Red. masses --      2.8143                 1.3678                 1.7944
 Frc consts  --      2.8726                 1.4040                 1.9542
 IR Inten    --     63.0940                39.6297                66.8953

                     52                     53                     54
                      A                      A                      A
 Frequencies --   1361.6262              1369.9161              1383.9548
 Red. masses --      1.3835                 1.2693                 1.6314
 Frc consts  --      1.5113                 1.4034                 1.8410
 IR Inten    --      6.8380                 0.4866                 4.4703

                     55                     56                     57
                      A                      A                      A
 Frequencies --   1402.3079              1403.6335              1421.0095
 Red. masses --      1.4788                 1.2158                 1.3543
 Frc consts  --      1.7134                 1.4113                 1.6113
 IR Inten    --     30.3193                10.9829                 1.1558

                     58                     59                     60
                      A                      A                      A
 Frequencies --   1425.1239              1435.0919              1451.9697
 Red. masses --      1.3887                 1.4396                 1.3065
 Frc consts  --      1.6618                 1.7469                 1.6228
 IR Inten    --     41.8720                 5.2920                45.0616

                     61                     62                     63
                      A                      A                      A
 Frequencies --   1483.4625              1491.3283              1499.2151
 Red. masses --      1.6790                 1.0907                 1.1034
 Frc consts  --      2.1770                 1.4293                 1.4612
 IR Inten    --    156.4423                 5.6612                 1.8260

                     64                     65                     66
                      A                      A                      A
 Frequencies --   1501.5482              1509.5392              1514.4608
 Red. masses --      1.0994                 1.0996                 1.1654
 Frc consts  --      1.4605                 1.4763                 1.5748
 IR Inten    --      6.1849                 7.7447                 2.4747

                     67                     68                     69
                      A                      A                      A
 Frequencies --   1516.0452              1528.6549              1534.9461
 Red. masses --      1.1013                 1.0631                 1.0637
 Frc consts  --      1.4914                 1.4636                 1.4766
 IR Inten    --     15.7016                 8.4917                 8.9821

                     70                     71                     72
                      A                      A                      A
 Frequencies --   1551.4301              1564.7041              1749.4201
 Red. masses --      1.1128                 1.2083                 9.8604
 Frc consts  --      1.5780                 1.7429                17.7800
 IR Inten    --     17.4758                40.2320               325.1584

                     73                     74                     75
                      A                      A                      A
 Frequencies --   2978.8661              2979.1842              2985.4132
 Red. masses --      1.0725                 1.0721                 1.0733
 Frc consts  --      5.6072                 5.6061                 5.6360
 IR Inten    --     62.0457                 6.7851                99.2397

                     76                     77                     78
                      A                      A                      A
 Frequencies --   2993.9656              3017.5307              3051.5838
 Red. masses --      1.0738                 1.0494                 1.0691
 Frc consts  --      5.6713                 5.6296                 5.8660
 IR Inten    --     89.8802                80.2907                95.0540

                     79                     80                     81
                      A                      A                      A
 Frequencies --   3053.1471              3061.8841              3073.9240
 Red. masses --      1.0712                 1.0710                 1.0796
 Frc consts  --      5.8835                 5.9160                 6.0105
 IR Inten    --     55.2772                11.7058                47.2993

                     82                     83                     84
                      A                      A                      A
 Frequencies --   3077.5277              3096.2766              3108.2210
 Red. masses --      1.0944                 1.0915                 1.0912
 Frc consts  --      6.1070                 6.1654                 6.2112
 IR Inten    --     50.4563                31.9337                26.6926

                     85                     86                     87
                      A                      A                      A
 Frequencies --   3110.8279              3115.0239              3148.1510
 Red. masses --      1.0915                 1.1040                 1.0963
 Frc consts  --      6.2235                 6.3116                 6.4013
 IR Inten    --     27.2793                31.5789                 5.2269

                     88                     89                     90
                      A                      A                      A
 Frequencies --   3151.2204              3198.0931              3431.1076
 Red. masses --      1.0955                 1.0950                 1.0731
 Frc consts  --      6.4092                 6.5984                 7.4430
 IR Inten    --     12.3517                 1.0454                10.2606

 - Thermochemistry -
 -------------------
 Temperature   298.150 Kelvin.  Pressure   1.00000 Atm.
 Atom     1 has atomic number  6 and mass  12.00000

 Molecular mass:   198.14806 amu.
 Principal axes and moments of inertia in atomic units:
                           1         2         3
     Eigenvalues --  1369.209713701.148214314.95062
           X            0.99998  -0.00569  -0.00152
           Y            0.00570   0.99996   0.00706
           Z            0.00148  -0.00707   0.99997
 This molecule is an asymmetric top.
 Rotational symmetry number  1.
 Warning -- assumption of classical behavior for rotation
           may cause significant error
 Rotational temperatures (Kelvin)      0.06326     0.02340     0.02007
 Rotational constants (GHZ):           1.31809     0.48762     0.41825
 Zero-point vibrational energy     750384.1 (Joules/Mol)
                                  179.34610 (Kcal/Mol)
 Warning -- explicit consideration of  21 degrees of freedom as
           vibrations may cause significant error
 Vibrational temperatures:     66.24    97.41   126.77   145.44   167.24
          (Kelvin)            206.73   263.46   280.82   344.00   393.67
                              461.34   513.51   543.88   621.71   649.87
                              676.98   687.60   725.41   810.08   831.23
                              869.98  1023.99  1067.52  1162.05  1187.89
                             1191.19  1293.89  1302.76  1321.48  1344.88
                             1375.89  1414.12  1463.54  1488.74  1493.10
                             1551.96  1602.35  1637.37  1641.81  1684.10
                             1711.91  1731.80  1748.28  1772.78  1779.97
                             1797.98  1829.64  1860.62  1893.75  1899.05
                             1956.13  1959.08  1971.00  1991.20  2017.61
                             2019.52  2044.52  2050.44  2064.78  2089.06
                             2134.37  2145.69  2157.04  2160.39  2171.89
                             2178.97  2181.25  2199.39  2208.45  2232.16
                             2251.26  2517.03  4285.92  4286.38  4295.34
                             4307.65  4341.55  4390.55  4392.80  4405.37
                             4422.69  4427.88  4454.85  4472.04  4475.79
                             4481.82  4529.49  4533.90  4601.34  4936.60

 Zero-point correction=                           0.285806 (Hartree/Particle)
 Thermal correction to Energy=                    0.299269
 Thermal correction to Enthalpy=                  0.300213
 Thermal correction to Gibbs Free Energy=         0.245553
 Sum of electronic and zero-point Energies=           -647.767810
 Sum of electronic and thermal Energies=              -647.754347
 Sum of electronic and thermal Enthalpies=            -647.753403
 Sum of electronic and thermal Free Energies=         -647.808063

                     E (Thermal)             CV                S
                      KCal/Mol        Cal/Mol-Kelvin    Cal/Mol-Kelvin
 Total                  187.794             51.506            115.042
 Electronic               0.000              0.000              0.000
 Translational            0.889              2.981             41.756
 Rotational               0.889              2.981             31.459
 Vibrational            186.017             45.545             41.827
 Vibration     1          0.595              1.979              4.981
 Vibration     2          0.598              1.970              4.219
 Vibration     3          0.601              1.958              3.702
 Vibration     4          0.604              1.948              3.433
 Vibration     5          0.608              1.936              3.162
 Vibration     6          0.616              1.909              2.754
 Vibration     7          0.631              1.863              2.296
 Vibration     8          0.636              1.847              2.178
 Vibration     9          0.657              1.781              1.810
 Vibration    10          0.676              1.722              1.573
 Vibration    11          0.706              1.634              1.307
 Vibration    12          0.732              1.561              1.136
 Vibration    13          0.748              1.517              1.047
 Vibration    14          0.793              1.400              0.852
 Vibration    15          0.810              1.357              0.791
 Vibration    16          0.828              1.315              0.736
 Vibration    17          0.834              1.299              0.716
 Vibration    18          0.859              1.241              0.648
 Vibration    19          0.919              1.111              0.518
 Vibration    20          0.934              1.079              0.490
 Vibration    21          0.963              1.022              0.442

                           ! Non-Optimized Parameters !
 Normal termination of Gaussian 16 at Thu Dec 10 09:51:58 2020.

 ----------------------------------------------------------------------
 # B3LYP/6-311++G(d,p) empiricaldispersion=gd3bj scf=xqc pop=npa geom=c
 heck
 ----------------------------------------------------------------------

 --------------------------------------
 CID_68421525_JID_4410_Energie_neutraal
 --------------------------------------
 Structure from the checkpoint file:  "JID_4410.chk"
 Charge =  0 Multiplicity = 1

 SCF Done:  E(RB3LYP) =  -648.235040896     A.U. after   14 cycles
 Normal termination of Gaussian 16 at Thu Dec 10 09:55:32 2020.

 ----------------------------------------------------------------------
 # B3LYP/6-311++G(d,p) empiricaldispersion=gd3bj scf=xqc pop=npa geom=c
 heck
 ----------------------------------------------------------------------

 ------------------------------------
 CID_68421525_JID_4410_Energie_kation
 ------------------------------------
 Structure from the checkpoint file:  "JID_4410.chk"
 Charge =  1 Multiplicity = 2

 SCF Done:  E(UB3LYP) =  -647.970084054     A.U. after   23 cycles
 Normal termination of Gaussian 16 at Thu Dec 10 10:03:51 2020.
 Gaussian 16:  ES64L-G16RevA.03 25-Dec-2016

 ----------------------------------------------------------------------
 # B3LYP/6-311++G(d,p) empiricaldispersion=gd3bj scf=xqc pop=npa geom=c
 heck
 ----------------------------------------------------------------------

 -----------------------------------
 CID_68421525_JID_4410_Energie_anion
 -----------------------------------
 Structure from the checkpoint file:  "JID_4410.chk"
 Charge = -1 Multiplicity = 2

                         Standard orientation:
 ---------------------------------------------------------------------
 Center     Atomic      Atomic             Coordinates (Angstroms)
 Number     Number       Type             X           Y           Z
 ---------------------------------------------------------------------
      1          6           0       -2.685336    2.158308   -0.023705
      2          7           0       -2.183010    0.796705   -0.088426
      3          6           0       -3.132428   -0.259452    0.227556
      4          6           0       -2.625164   -1.594646   -0.294972
      5          6           0       -1.224539   -1.844544    0.243449
      6          7           0       -0.357900   -0.704855   -0.047294
      7          6           0       -0.810931    0.610524   -0.116914
      8          8           0       -0.036103    1.557868   -0.240847
      9          7           0        1.000107   -0.992226    0.078801
     10          6           0        1.815564   -0.895521   -1.136511
     11          6           0        2.668234    0.380255   -1.217810
     12          7           0        3.437349    0.622722    0.010179
     13          6           0        2.547386    0.675840    1.177182
     14          6           0        1.674436   -0.583005    1.317741
     15          1           0       -3.530637    2.275612   -0.712405
     16          1           0       -1.883106    2.836976   -0.306657
     17          1           0       -3.028099    2.411544    0.990697
     18          1           0       -3.310104   -0.315198    1.315236
     19          1           0       -4.091060   -0.001986   -0.238128
     20          1           0       -2.599744   -1.570487   -1.390435
     21          1           0       -3.297017   -2.402997    0.011940
     22          1           0       -0.769851   -2.721260   -0.224607
     23          1           0       -1.260707   -2.035965    1.328304
     24          1           0        2.491806   -1.767035   -1.147693
     25          1           0        1.143418   -0.989495   -1.994500
     26          1           0        2.020508    1.243855   -1.380390
     27          1           0        3.367837    0.302858   -2.059875
     28          1           0        4.098103   -0.146845    0.137862
     29          1           0        1.909254    1.554299    1.067972
     30          1           0        3.160500    0.798525    2.079226
     31          1           0        0.909632   -0.456675    2.090994
     32          1           0        2.318933   -1.421637    1.630313
 ---------------------------------------------------------------------

 SCF Done:  E(UB3LYP) =  -648.223008243     A.U. after   30 cycles

 The electronic state is 2-A.
 Alpha  occ. eigenvalues --  -18.97341 -14.25357 -14.23233 -14.23223 -14.19860
 Alpha  occ. eigenvalues --  -10.18757 -10.10152 -10.09910 -10.09404 -10.09374
 Alpha  occ. eigenvalues --  -10.09275 -10.08431 -10.08399 -10.07094  -0.95159
 Alpha  occ. eigenvalues --   -0.88501  -0.83648  -0.80958  -0.74087  -0.67760
 Alpha  occ. eigenvalues --   -0.66151  -0.61612  -0.59070  -0.54989  -0.54404
 Alpha  occ. eigenvalues --   -0.52744  -0.48646  -0.43937  -0.42057  -0.40831
 Alpha  occ. eigenvalues --   -0.38132  -0.37187  -0.36423  -0.35927  -0.34957
 Alpha  occ. eigenvalues --   -0.34397  -0.33901  -0.32583  -0.31898  -0.31309
 Alpha  occ. eigenvalues --   -0.30195  -0.28859  -0.28640  -0.26313  -0.25454
 Alpha  occ. eigenvalues --   -0.25388  -0.25171  -0.24662  -0.23840  -0.16562
 Alpha  occ. eigenvalues --   -0.15485  -0.14750  -0.13095  -0.10226   0.04371
 Alpha virt. eigenvalues --    0.06295   0.07465   0.07571   0.08614   0.08949
 Alpha virt. eigenvalues --    0.09116   0.10154   0.10471   0.11116   0.11711
 Alpha virt. eigenvalues --    0.12015   0.12109   0.12330   0.14021   0.14166

  Beta  occ. eigenvalues --  -18.97332 -14.25360 -14.23233 -14.23227 -14.19851
  Beta  occ. eigenvalues --  -10.18746 -10.10109 -10.09880 -10.09387 -10.09357
  Beta  occ. eigenvalues --  -10.09252 -10.08427 -10.08395 -10.07060  -0.95145
  Beta  occ. eigenvalues --   -0.88493  -0.83632  -0.80941  -0.74068  -0.67709
  Beta  occ. eigenvalues --   -0.66130  -0.61568  -0.59021  -0.54955  -0.54377
  Beta  occ. eigenvalues --   -0.52675  -0.48605  -0.43901  -0.42009  -0.40792
  Beta  occ. eigenvalues --   -0.38078  -0.37152  -0.36398  -0.35889  -0.34932
  Beta  occ. eigenvalues --   -0.34374  -0.33874  -0.32552  -0.31855  -0.31272
  Beta  occ. eigenvalues --   -0.30152  -0.28831  -0.28606  -0.26268  -0.25419
  Beta  occ. eigenvalues --   -0.25352  -0.25138  -0.24624  -0.23810  -0.16548
  Beta  occ. eigenvalues --   -0.15463  -0.14717  -0.13087  -0.10202
  Beta virt. eigenvalues --    0.06513   0.07268   0.07938   0.08231   0.09240
  Beta virt. eigenvalues --    0.09320   0.09609   0.10672   0.10767   0.11423
  Beta virt. eigenvalues --    0.12058   0.12188   0.12411   0.12777   0.14258

 Mulliken charges and spin densities:
               1          2
     1  C    0.536089  -0.778675
     2  N   -0.328690   0.239195
     3  C    1.292531  -1.584114
     4  C   -0.204965  -0.242000
     5  C    0.369321  -0.635609
     6  N   -0.678489   0.113333
     7  C    0.168318  -0.237626
     8  O   -0.366282   0.017028
     9  N    0.464466   0.176876
    10  C    0.058011  -0.211891
    11  C   -0.103557  -0.370357
    12  N   -0.209159   0.064852
    13  C   -0.169336  -0.358262
    14  C   -0.027969  -0.101034
    15  H   -0.128991   0.273775
    16  H    0.170129   0.001016
    17  H   -0.191486   0.335815
    18  H   -0.223405   0.396865
    19  H   -0.604065   0.783585
    20  H    0.035828   0.126622
    21  H   -0.707045   0.899975
    22  H   -0.308685   0.496979
    23  H   -0.230576   0.400302
    24  H   -0.231257   0.391935
    25  H    0.111579   0.037991
    26  H    0.227255  -0.017307
    27  H    0.023911   0.133519
    28  H    0.159032   0.052052
    29  H    0.254377  -0.037252
    30  H    0.003960   0.149788
    31  H   -0.005762   0.162787
    32  H   -0.155085   0.319841
 Sum of Mulliken charges =  -1.00000   1.00000

 Dipole moment (field-independent basis, Debye):
    X=              5.4384    Y=              2.4109    Z=             -1.3306  Tot=              6.0958
 Quadrupole moment (field-independent basis, Debye-Ang):
   XX=           -165.1959   YY=           -131.8805   ZZ=           -115.3320
   XY=             -9.5838   XZ=              3.6512   YZ=              3.2061

 Summary of Natural Population Analysis:

                                       Natural Population
                Natural  -----------------------------------------------
    Atom  No    Charge         Core      Valence    Rydberg      Total
 -----------------------------------------------------------------------
      C    1   -0.17553      0.99964     2.16774    0.00815     3.17553
      N    2   -0.26594      0.99966     2.75626    0.01002     3.76594
      C    3   -0.07753      0.99961     2.06695    0.01096     3.07753
      C    4   -0.19980      0.99962     2.19092    0.00926     3.19980
      C    5   -0.07561      0.99960     2.06449    0.01152     3.07561
      N    6   -0.17436      0.99963     2.66171    0.01302     3.67436
      C    7    0.41255      0.99963     1.56448    0.02334     2.58745
      O    8   -0.35219      0.99987     3.34762    0.00470     4.35219
      N    9   -0.18478      0.99972     2.66816    0.01691     3.68478
      C   10   -0.09190      0.99960     2.08094    0.01136     3.09190
      C   11   -0.10241      0.99962     2.09156    0.01122     3.10241
      N   12   -0.33597      0.99977     2.82424    0.01196     3.83597
      C   13   -0.10225      0.99962     2.09135    0.01128     3.10225
      C   14   -0.09448      0.99960     2.08368    0.01120     3.09448
      H   15    0.09245      0.00000     0.40646    0.00109     0.40755
      H   16    0.11398      0.00000     0.38503    0.00099     0.38602
      H   17    0.08905      0.00000     0.40985    0.00110     0.41095
      H   18    0.09128      0.00000     0.40590    0.00282     0.40872
      H   19    0.10095      0.00000     0.39613    0.00292     0.39905
      H   20    0.09866      0.00000     0.39973    0.00161     0.40134
      H   21    0.11008      0.00000     0.38689    0.00303     0.38992
      H   22    0.10303      0.00000     0.39508    0.00189     0.39697
      H   23    0.08954      0.00000     0.40838    0.00207     0.41046
      H   24    0.08574      0.00000     0.41265    0.00161     0.41426
      H   25    0.10292      0.00000     0.39600    0.00109     0.39708
      H   26    0.10717      0.00000     0.39153    0.00130     0.39283
      H   27    0.08795      0.00000     0.41119    0.00087     0.41205
      H   28    0.16242      0.00000     0.33483    0.00276     0.33758
      H   29    0.10713      0.00000     0.39153    0.00134     0.39287
      H   30    0.08833      0.00000     0.41080    0.00087     0.41167
      H   31    0.10254      0.00000     0.39634    0.00112     0.39746
      H   32    0.08697      0.00000     0.41145    0.00158     0.41303
 =======================================================================
   * Total *    0.00000     13.99521    39.80987    0.19493    54.00000

 Normal termination of Gaussian 16 at Thu Dec 10 10:16:15 2020.
