 Gaussian 16, Revision A.03,

 -----------------------------------------------------------
 # opt freq B3LYP/6-31G(d) empiricaldispersion=gd3bj scf=xqc
 -----------------------------------------------------------

 ------------------------------
 CID_64155095_JID_7881_neutraal
 ------------------------------
 Symbolic Z-matrix:
 Charge =  0 Multiplicity = 1

 SCF Done:  E(RB3LYP) =  -1517.16157599     A.U. after   15 cycles
 SCF Done:  E(RB3LYP) =  -1517.16317183     A.U. after   14 cycles
 SCF Done:  E(RB3LYP) =  -1517.16611360     A.U. after   13 cycles
 SCF Done:  E(RB3LYP) =  -1517.16726335     A.U. after   14 cycles
 SCF Done:  E(RB3LYP) =  -1517.16685440     A.U. after   14 cycles
 SCF Done:  E(RB3LYP) =  -1517.16606881     A.U. after   14 cycles
 SCF Done:  E(RB3LYP) =  -1517.16676759     A.U. after   14 cycles
 SCF Done:  E(RB3LYP) =  -1517.16931081     A.U. after   11 cycles
 SCF Done:  E(RB3LYP) =  -1517.17149760     A.U. after   13 cycles
 SCF Done:  E(RB3LYP) =  -1517.17237228     A.U. after   13 cycles
 SCF Done:  E(RB3LYP) =  -1517.17826015     A.U. after   10 cycles
 SCF Done:  E(RB3LYP) =  -1517.17826375     A.U. after   11 cycles
 SCF Done:  E(RB3LYP) =  -1517.17826709     A.U. after    9 cycles
 SCF Done:  E(RB3LYP) =  -1517.17826959     A.U. after   10 cycles
 SCF Done:  E(RB3LYP) =  -1517.17826970     A.U. after    7 cycles
 SCF Done:  E(RB3LYP) =  -1517.17826955     A.U. after    8 cycles
 Optimization completed.
    -- Stationary point found.
 Normal termination of Gaussian 16 at Fri Dec 11 13:45:52 2020.

 --------------------------------------------------------------------
 #N Geom=AllCheck Guess=TCheck SCRF=Check GenChk RB3LYP/6-31G(d) Freq
 --------------------------------------------------------------------

 Structure from the checkpoint file:  "JID_7881.chk"
 ------------------------------
 CID_64155095_JID_7881_neutraal
 ------------------------------
 Charge =  0 Multiplicity = 1

 SCF Done:  E(RB3LYP) =  -1517.17826955     A.U. after    1 cycles

  Exact polarizability: 181.028  -2.576 152.873  11.118  -2.784 125.001
 Approx polarizability: 271.177   4.180 221.121  28.521  -8.387 222.724

                      1                      2                      3
                      A                      A                      A
 Frequencies --     22.0026                47.6819                74.0445
 Red. masses --     11.0198                 4.9855                 4.2038
 Frc consts  --      0.0031                 0.0067                 0.0136
 IR Inten    --      4.1579                 0.7849                 2.2519

                      4                      5                      6
                      A                      A                      A
 Frequencies --     78.3488                91.5090               110.9279
 Red. masses --      5.8374                 3.1730                 6.0183
 Frc consts  --      0.0211                 0.0157                 0.0436
 IR Inten    --      4.0112                 1.0347                 8.2493

                      7                      8                      9
                      A                      A                      A
 Frequencies --    135.3275               162.0029               180.3606
 Red. masses --      3.4355                 6.9307                 8.0640
 Frc consts  --      0.0371                 0.1072                 0.1546
 IR Inten    --      0.3065                 4.5962                 0.8734

                     10                     11                     12
                      A                      A                      A
 Frequencies --    187.2432               209.8549               248.9843
 Red. masses --      4.1975                 4.9463                 3.7173
 Frc consts  --      0.0867                 0.1283                 0.1358
 IR Inten    --      9.3942                 0.4870                 0.6363

                     13                     14                     15
                      A                      A                      A
 Frequencies --    283.9983               295.1174               337.4840
 Red. masses --      5.1007                 3.7008                 9.6093
 Frc consts  --      0.2424                 0.1899                 0.6448
 IR Inten    --      0.3109                 2.4979                 2.4934

                     16                     17                     18
                      A                      A                      A
 Frequencies --    361.5944               369.0170               422.5914
 Red. masses --      4.1960                 4.4424                 4.9942
 Frc consts  --      0.3232                 0.3564                 0.5255
 IR Inten    --      1.1630                 4.0414                 3.9133

                     19                     20                     21
                      A                      A                      A
 Frequencies --    428.6535               447.3800               514.9348
 Red. masses --      3.0946                 2.7953                 4.1212
 Frc consts  --      0.3350                 0.3296                 0.6438
 IR Inten    --      8.7954                25.1629                17.7824

                     22                     23                     24
                      A                      A                      A
 Frequencies --    525.1125               584.9389               597.4305
 Red. masses --      4.1827                 1.9154                 2.9569
 Frc consts  --      0.6795                 0.3861                 0.6218
 IR Inten    --      7.4375               147.1496               126.6149

                     25                     26                     27
                      A                      A                      A
 Frequencies --    621.6410               644.4072               665.6086
 Red. masses --      2.9856                 6.2784                 3.7047
 Frc consts  --      0.6798                 1.5361                 0.9670
 IR Inten    --    117.6299                41.7994                17.8513

                     28                     29                     30
                      A                      A                      A
 Frequencies --    685.3202               709.0516               752.0052
 Red. masses --      4.2718                 1.1270                 2.9664
 Frc consts  --      1.1821                 0.3338                 0.9884
 IR Inten    --    184.9763                40.5505                53.4092

                     31                     32                     33
                      A                      A                      A
 Frequencies --    771.3535               784.7335               832.2257
 Red. masses --      1.1846                 1.1972                 1.4050
 Frc consts  --      0.4153                 0.4344                 0.5733
 IR Inten    --     87.2605                17.0050                16.4417

                     34                     35                     36
                      A                      A                      A
 Frequencies --    844.0178               872.6714               875.9943
 Red. masses --      1.2835                 1.4493                 2.1259
 Frc consts  --      0.5387                 0.6503                 0.9612
 IR Inten    --     24.7321                18.9934                15.6306

                     37                     38                     39
                      A                      A                      A
 Frequencies --    883.8739               934.8179               967.6111
 Red. masses --      2.1676                 6.1476                 3.0310
 Frc consts  --      0.9977                 3.1652                 1.6720
 IR Inten    --     23.8281                 8.6972                 2.0977

                     40                     41                     42
                      A                      A                      A
 Frequencies --    982.1299               999.0451              1032.1826
 Red. masses --      2.8176                 5.8043                 3.0886
 Frc consts  --      1.6013                 3.4133                 1.9388
 IR Inten    --      2.6442                13.4268                14.4698

                     43                     44                     45
                      A                      A                      A
 Frequencies --   1033.8856              1069.2471              1074.6964
 Red. masses --      2.0289                 1.9751                 1.3741
 Frc consts  --      1.2778                 1.3304                 0.9351
 IR Inten    --      7.7333                13.0436                 7.6875

                     46                     47                     48
                      A                      A                      A
 Frequencies --   1090.7394              1102.5160              1115.2906
 Red. masses --      1.4631                 2.7672                 3.4386
 Frc consts  --      1.0256                 1.9818                 2.5200
 IR Inten    --      5.3593                19.5703                69.1476

                     49                     50                     51
                      A                      A                      A
 Frequencies --   1136.4017              1145.2440              1168.3984
 Red. masses --      2.4770                 1.1915                 1.6128
 Frc consts  --      1.8847                 0.9207                 1.2972
 IR Inten    --    129.5948                 1.3218                14.2383

                     52                     53                     54
                      A                      A                      A
 Frequencies --   1205.3725              1207.4646              1228.2399
 Red. masses --      2.0347                 1.3796                 1.4475
 Frc consts  --      1.7418                 1.1851                 1.2866
 IR Inten    --     38.6478                 0.6054                89.6392

                     55                     56                     57
                      A                      A                      A
 Frequencies --   1255.1285              1256.2029              1279.2975
 Red. masses --      3.2726                 2.2270                 1.7012
 Frc consts  --      3.0376                 2.0705                 1.6404
 IR Inten    --     41.8278                 4.8780                 2.7258

                     58                     59                     60
                      A                      A                      A
 Frequencies --   1306.7443              1327.5860              1338.2531
 Red. masses --      1.1286                 1.8928                 7.2793
 Frc consts  --      1.1354                 1.9655                 7.6810
 IR Inten    --      8.3510                11.5830               197.2605

                     61                     62                     63
                      A                      A                      A
 Frequencies --   1359.4651              1370.8722              1402.2817
 Red. masses --      5.4749                 1.7432                 1.4174
 Frc consts  --      5.9616                 1.9301                 1.6421
 IR Inten    --     58.3603                 7.1923                69.3008

                     64                     65                     66
                      A                      A                      A
 Frequencies --   1424.7270              1439.5256              1466.5885
 Red. masses --      2.2123                 1.3806                 3.6620
 Frc consts  --      2.6458                 1.6857                 4.6408
 IR Inten    --    188.1737                26.4510                29.7835

                     67                     68                     69
                      A                      A                      A
 Frequencies --   1477.2181              1486.5685              1517.5663
 Red. masses --      2.7667                 1.0916                 1.1061
 Frc consts  --      3.5572                 1.4213                 1.5008
 IR Inten    --     17.8937                 2.6649                22.6094

                     70                     71                     72
                      A                      A                      A
 Frequencies --   1529.0252              1539.3288              1569.2496
 Red. masses --      1.3656                 1.0903                 2.9894
 Frc consts  --      1.8811                 1.5222                 4.3373
 IR Inten    --      4.5523                 6.8643                12.9569

                     73                     74                     75
                      A                      A                      A
 Frequencies --   1657.7901              3044.9965              3111.0517
 Red. masses --      1.2043                 1.0721                 1.0872
 Frc consts  --      1.9500                 5.8569                 6.1998
 IR Inten    --    119.9457                12.5940                14.1767

                     76                     77                     78
                      A                      A                      A
 Frequencies --   3114.6978              3142.4206              3157.2717
 Red. masses --      1.0598                 1.0934                 1.0540
 Frc consts  --      6.0578                 6.3616                 6.1905
 IR Inten    --      4.0849                 4.8773                 8.1978

                     79                     80                     81
                      A                      A                      A
 Frequencies --   3168.3038              3175.2246              3239.9726
 Red. masses --      1.1048                 1.0582                 1.1194
 Frc consts  --      6.5339                 6.2856                 6.9232
 IR Inten    --      3.2842                 6.2011                 4.8454

                     82                     83                     84
                      A                      A                      A
 Frequencies --   3265.5541              3276.4385              3284.3201
 Red. masses --      1.1162                 1.0969                 1.0985
 Frc consts  --      7.0130                 6.9375                 6.9815
 IR Inten    --      5.0938                 0.8352                 0.3062

                     85                     86                     87
                      A                      A                      A
 Frequencies --   3477.0103              3503.2363              3643.4664
 Red. masses --      1.0804                 1.0543                 1.1011
 Frc consts  --      7.6957                 7.6235                 8.6121
 IR Inten    --    267.9214               313.4304                91.9004

 - Thermochemistry -
 -------------------
 Temperature   298.150 Kelvin.  Pressure   1.00000 Atm.
 Atom     1 has atomic number  6 and mass  12.00000

 Molecular mass:   274.05582 amu.
 Principal axes and moments of inertia in atomic units:
                           1         2         3
     Eigenvalues --  3726.283985512.245637199.52751
           X            0.99863  -0.04745  -0.02224
           Y            0.04784   0.99871   0.01717
           Z            0.02140  -0.01821   0.99961
 This molecule is an asymmetric top.
 Rotational symmetry number  1.
 Warning -- assumption of classical behavior for rotation
           may cause significant error
 Rotational temperatures (Kelvin)      0.02324     0.01571     0.01203
 Rotational constants (GHZ):           0.48433     0.32741     0.25067
 Zero-point vibrational energy     644548.6 (Joules/Mol)
                                  154.05081 (Kcal/Mol)
 Warning -- explicit consideration of  24 degrees of freedom as
           vibrations may cause significant error
 Vibrational temperatures:     31.66    68.60   106.53   112.73   131.66
          (Kelvin)            159.60   194.71   233.09   259.50   269.40
                              301.93   358.23   408.61   424.61   485.56
                              520.25   530.93   608.01   616.74   643.68
                              740.88   755.52   841.60   859.57   894.40
                              927.16   957.66   986.02  1020.17  1081.97
                             1109.81  1129.06  1197.39  1214.35  1255.58
                             1260.36  1271.70  1344.99  1392.18  1413.07
                             1437.40  1485.08  1487.53  1538.41  1546.25
                             1569.33  1586.27  1604.65  1635.03  1647.75
                             1681.06  1734.26  1737.27  1767.16  1805.85
                             1807.40  1840.62  1880.11  1910.10  1925.45
                             1955.97  1972.38  2017.57  2049.86  2071.16
                             2110.09  2125.39  2138.84  2183.44  2199.93
                             2214.75  2257.80  2385.19  4381.07  4476.11
                             4481.36  4521.24  4542.61  4558.48  4568.44
                             4661.60  4698.40  4714.06  4725.40  5002.64
                             5040.38  5242.14

 Zero-point correction=                           0.245496 (Hartree/Particle)
 Thermal correction to Energy=                    0.261934
 Thermal correction to Enthalpy=                  0.262878
 Thermal correction to Gibbs Free Energy=         0.200193
 Sum of electronic and zero-point Energies=          -1516.932774
 Sum of electronic and thermal Energies=             -1516.916335
 Sum of electronic and thermal Enthalpies=           -1516.915391
 Sum of electronic and thermal Free Energies=        -1516.978077

                     E (Thermal)             CV                S
                      KCal/Mol        Cal/Mol-Kelvin    Cal/Mol-Kelvin
 Total                  164.366             62.102            131.933
 Electronic               0.000              0.000              0.000
 Translational            0.889              2.981             42.723
 Rotational               0.889              2.981             33.358
 Vibrational            162.589             56.141             55.852
 Vibration     1          0.593              1.985              6.445
 Vibration     2          0.595              1.978              4.911
 Vibration     3          0.599              1.966              4.043
 Vibration     4          0.600              1.964              3.932
 Vibration     5          0.602              1.955              3.628
 Vibration     6          0.607              1.940              3.253
 Vibration     7          0.613              1.918              2.869
 Vibration     8          0.622              1.889              2.526
 Vibration     9          0.629              1.866              2.325
 Vibration    10          0.632              1.857              2.255
 Vibration    11          0.642              1.826              2.045
 Vibration    12          0.662              1.764              1.738
 Vibration    13          0.682              1.703              1.509
 Vibration    14          0.689              1.683              1.444
 Vibration    15          0.718              1.601              1.224
 Vibration    16          0.736              1.551              1.115
 Vibration    17          0.741              1.536              1.084
 Vibration    18          0.785              1.421              0.883
 Vibration    19          0.790              1.408              0.863
 Vibration    20          0.807              1.367              0.804
 Vibration    21          0.870              1.217              0.622
 Vibration    22          0.880              1.194              0.598
 Vibration    23          0.942              1.064              0.476
 Vibration    24          0.955              1.037              0.454

 Optimization completed.
    -- Stationary point found.
 Normal termination of Gaussian 16 at Fri Dec 11 13:57:33 2020.

 ----------------------------------------------------------------------
 # B3LYP/6-311++G(d,p) empiricaldispersion=gd3bj scf=xqc pop=npa geom=c
 heck
 ----------------------------------------------------------------------

 --------------------------------------
 CID_64155095_JID_7881_Energie_neutraal
 --------------------------------------
 Structure from the checkpoint file:  "JID_7881.chk"
 Charge =  0 Multiplicity = 1

 SCF Done:  E(RB3LYP) =  -1517.43920650     A.U. after   16 cycles
 Normal termination of Gaussian 16 at Fri Dec 11 14:02:33 2020.

 ----------------------------------------------------------------------
 # B3LYP/6-311++G(d,p) empiricaldispersion=gd3bj scf=xqc pop=npa geom=c
 heck
 ----------------------------------------------------------------------

 ------------------------------------
 CID_64155095_JID_7881_Energie_kation
 ------------------------------------
 Structure from the checkpoint file:  "JID_7881.chk"
 Charge =  1 Multiplicity = 2

 SCF Done:  E(UB3LYP) =  -1517.13200945     A.U. after   29 cycles
 Normal termination of Gaussian 16 at Fri Dec 11 14:14:39 2020.
 Gaussian 16:  ES64L-G16RevA.03 25-Dec-2016

 ----------------------------------------------------------------------
 # B3LYP/6-311++G(d,p) empiricaldispersion=gd3bj scf=xqc pop=npa geom=c
 heck
 ----------------------------------------------------------------------

 -----------------------------------
 CID_64155095_JID_7881_Energie_anion
 -----------------------------------
 Structure from the checkpoint file:  "JID_7881.chk"
 Charge = -1 Multiplicity = 2

                         Standard orientation:
 ---------------------------------------------------------------------
 Center     Atomic      Atomic             Coordinates (Angstroms)
 Number     Number       Type             X           Y           Z
 ---------------------------------------------------------------------
      1          6           0        3.195307   -2.047134   -0.450816
      2          6           0        2.227200   -2.797848   -1.324284
      3          6           0        1.939288   -1.372661   -0.916811
      4          7           0        0.856431   -1.183020    0.032981
      5          6           0       -0.476892   -1.247008   -0.613341
      6          6           0       -1.639790   -1.642022    0.337023
      7          6           0       -2.770436   -0.631248    0.292238
      8         16           0       -4.016065   -0.732255   -0.797184
      9          7           0       -2.639135    0.412520    1.153983
     10         16           0        1.108357    0.142158    1.072283
     11          8           0        0.022002    0.109860    2.065293
     12          8           0        2.502366    0.120773    1.492415
     13          6           0        0.867716    1.579519    0.096638
     14          6           0        1.763600    2.345740   -0.621188
     15          7           0        1.094860    3.314267   -1.321843
     16          6           0       -0.186565    3.131660   -1.046489
     17          7           0       -0.385231    2.088652   -0.197033
     18          1           0        4.131764   -1.699368   -0.875154
     19          1           0        3.242192   -2.311108    0.598716
     20          1           0        2.479364   -2.981547   -2.364237
     21          1           0        1.628625   -3.572438   -0.854314
     22          1           0        2.024539   -0.601998   -1.685479
     23          1           0       -0.702588   -0.312198   -1.143908
     24          1           0       -0.370094   -2.010574   -1.383999
     25          1           0       -2.047944   -2.602640    0.022547
     26          1           0       -1.252319   -1.748555    1.351797
     27          1           0       -1.939375    0.364231    1.891303
     28          1           0       -3.441434    1.018591    1.278011
     29          1           0        2.839825    2.251924   -0.639983
     30          1           0       -1.004302    3.724510   -1.432777
     31          1           0       -1.264909    1.736728    0.179787
 ---------------------------------------------------------------------

 SCF Done:  E(UB3LYP) =  -1517.44570947     A.U. after   32 cycles

 The electronic state is 2-A.
 Alpha  occ. eigenvalues --  -88.96792 -88.63849 -19.02097 -19.02013 -14.26538
 Alpha  occ. eigenvalues --  -14.25057 -14.20458 -14.19696 -10.12972 -10.12888
 Alpha  occ. eigenvalues --  -10.11970 -10.10131 -10.09810 -10.09734 -10.09278
 Alpha  occ. eigenvalues --  -10.07409 -10.05110  -8.02875  -7.72600  -5.99152
 Alpha  occ. eigenvalues --   -5.99107  -5.99023  -5.68919  -5.68521  -5.68186
 Alpha  occ. eigenvalues --   -1.02504  -0.92326  -0.91522  -0.85348  -0.79791
 Alpha  occ. eigenvalues --   -0.77895  -0.76423  -0.67506  -0.65330  -0.59578
 Alpha  occ. eigenvalues --   -0.57191  -0.53565  -0.52306  -0.51800  -0.51202
 Alpha  occ. eigenvalues --   -0.49511  -0.45507  -0.43909  -0.43370  -0.40673
 Alpha  occ. eigenvalues --   -0.40511  -0.39508  -0.37948  -0.36524  -0.34818
 Alpha  occ. eigenvalues --   -0.34273  -0.33318  -0.33236  -0.32287  -0.30554
 Alpha  occ. eigenvalues --   -0.29192  -0.28679  -0.26631  -0.24779  -0.23798
 Alpha  occ. eigenvalues --   -0.23329  -0.22849  -0.22157  -0.21087  -0.20868
 Alpha  occ. eigenvalues --   -0.19662  -0.19501  -0.18470  -0.17269  -0.14699
 Alpha  occ. eigenvalues --   -0.09528  -0.06434   0.04734
 Alpha virt. eigenvalues --    0.06862   0.07613   0.08496   0.08583   0.08953
 Alpha virt. eigenvalues --    0.10268   0.10388   0.11218   0.11695   0.12372
 Alpha virt. eigenvalues --    0.12638   0.12878   0.13418   0.13862   0.14300

  Beta  occ. eigenvalues --  -88.96779 -88.63809 -19.02076 -19.02005 -14.26405
  Beta  occ. eigenvalues --  -14.24996 -14.20505 -14.19617 -10.12888 -10.12863
  Beta  occ. eigenvalues --  -10.11901 -10.10057 -10.09734 -10.09731 -10.09275
  Beta  occ. eigenvalues --  -10.06631 -10.05161  -8.02862  -7.72565  -5.99144
  Beta  occ. eigenvalues --   -5.99073  -5.99008  -5.68924  -5.68366  -5.68165
  Beta  occ. eigenvalues --   -1.02436  -0.92182  -0.91483  -0.85247  -0.79253
  Beta  occ. eigenvalues --   -0.77762  -0.76372  -0.67283  -0.65047  -0.59136
  Beta  occ. eigenvalues --   -0.56873  -0.53476  -0.52157  -0.51716  -0.51109
  Beta  occ. eigenvalues --   -0.49377  -0.45437  -0.43590  -0.43064  -0.40627
  Beta  occ. eigenvalues --   -0.40397  -0.39384  -0.37848  -0.36442  -0.34712
  Beta  occ. eigenvalues --   -0.33952  -0.33145  -0.33053  -0.32225  -0.30069
  Beta  occ. eigenvalues --   -0.29092  -0.28348  -0.26443  -0.24621  -0.23459
  Beta  occ. eigenvalues --   -0.23149  -0.22784  -0.22001  -0.20735  -0.19970
  Beta  occ. eigenvalues --   -0.19340  -0.19133  -0.18385  -0.17100  -0.14148
  Beta  occ. eigenvalues --   -0.08229  -0.06321
  Beta virt. eigenvalues --    0.06828   0.08278   0.08508   0.08649   0.08891
  Beta virt. eigenvalues --    0.10009   0.10297   0.11207   0.11652   0.12090
  Beta virt. eigenvalues --    0.12572   0.12686   0.12928   0.13398   0.13891

 Mulliken charges and spin densities:
               1          2
     1  C   -0.349460   0.007448
     2  C   -0.279369  -0.030488
     3  C   -0.284086   0.028474
     4  N    0.238813   0.016402
     5  C   -0.747902   0.111089
     6  C   -0.144859  -0.278439
     7  C    0.352287   0.393379
     8  S   -0.953263   0.193788
     9  N   -0.413432   0.052638
    10  S    0.286997  -0.003131
    11  O   -0.267252  -0.000942
    12  O   -0.053014  -0.003231
    13  C   -0.409096   0.050138
    14  C   -0.115469   0.038400
    15  N   -0.129354  -0.027990
    16  C    0.027169   0.021945
    17  N   -0.126733   0.015274
    18  H    0.138935   0.002742
    19  H    0.172510   0.001629
    20  H    0.137828  -0.002699
    21  H    0.120737   0.023982
    22  H    0.222465   0.000278
    23  H    0.166133   0.006025
    24  H    0.120963   0.021392
    25  H    0.063668   0.103824
    26  H    0.157544   0.047506
    27  H    0.239279   0.033592
    28  H    0.242334   0.012421
    29  H    0.147405  -0.003776
    30  H    0.075561   0.076409
    31  H    0.362661   0.091919
 Sum of Mulliken charges =  -1.00000   1.00000

 Dipole moment (field-independent basis, Debye):
    X=              7.6726    Y=             -0.8102    Z=              0.3049  Tot=              7.7213
 Quadrupole moment (field-independent basis, Debye-Ang):
   XX=           -180.8233   YY=           -141.0878   ZZ=           -137.0911
   XY=            -19.4801   XZ=            -14.8712   YZ=              6.5213

 Summary of Natural Population Analysis:

                                       Natural Population
                Natural  -----------------------------------------------
    Atom  No    Charge         Core      Valence    Rydberg      Total
 -----------------------------------------------------------------------
      C    1   -0.19067      0.99961     2.18285    0.00821     3.19067
      C    2   -0.20092      0.99962     2.19504    0.00627     3.20092
      C    3   -0.02486      0.99956     2.01216    0.01313     3.02486
      N    4   -0.35784      0.99970     2.84269    0.01545     3.85784
      C    5   -0.08220      0.99960     2.06927    0.01333     3.08220
      C    6   -0.23402      0.99956     2.22393    0.01053     3.23402
      C    7    0.17944      0.99967     1.80104    0.01985     2.82056
      S    8   -0.14425      4.99953     3.12886    0.01586     8.14425
      N    9   -0.40740      0.99968     2.89624    0.01149     3.90740
      S   10    1.12766      4.99910     1.77243    0.10080     6.87234
      O   11   -0.47495      0.99990     3.46864    0.00641     4.47495
      O   12   -0.45841      0.99990     3.45212    0.00639     4.45841
      C   13   -0.09090      0.99940     2.07180    0.01970     3.09090
      C   14   -0.00358      0.99952     1.99084    0.01322     3.00358
      N   15   -0.26651      0.99973     2.75625    0.01053     3.76651
      C   16    0.12667      0.99968     1.85577    0.01788     2.87333
      N   17   -0.26161      0.99965     2.75158    0.01038     3.76161
      H   18    0.10109      0.00000     0.39810    0.00081     0.39891
      H   19    0.11335      0.00000     0.38572    0.00093     0.38665
      H   20    0.10071      0.00000     0.39840    0.00089     0.39929
      H   21    0.10713      0.00000     0.39141    0.00146     0.39287
      H   22    0.10018      0.00000     0.39867    0.00115     0.39982
      H   23    0.09886      0.00000     0.40028    0.00087     0.40114
      H   24    0.10224      0.00000     0.39634    0.00143     0.39776
      H   25    0.11131      0.00000     0.38767    0.00102     0.38869
      H   26    0.11181      0.00000     0.38629    0.00189     0.38819
      H   27    0.20482      0.00000     0.29345    0.00173     0.29518
      H   28    0.19260      0.00000     0.30589    0.00151     0.30740
      H   29    0.10065      0.00000     0.39831    0.00103     0.39935
      H   30    0.09287      0.00000     0.40585    0.00128     0.40713
      H   31    0.22673      0.00000     0.27147    0.00179     0.27327
 =======================================================================
   * Total *    0.00000     24.99340    46.68937    0.31723    72.00000

 Normal termination of Gaussian 16 at Fri Dec 11 14:27:53 2020.
