 Gaussian 16, Revision A.03,

 -----------------------------------------------------------
 # opt freq B3LYP/6-31G(d) empiricaldispersion=gd3bj scf=xqc
 -----------------------------------------------------------

 --------------------------------
 CID_139013158_JID_10172_neutraal
 --------------------------------
 Symbolic Z-matrix:
 Charge =  0 Multiplicity = 1

 SCF Done:  E(RB3LYP) =  -1296.16055727     A.U. after   14 cycles
 SCF Done:  E(RB3LYP) =  -1296.17390629     A.U. after   12 cycles
 SCF Done:  E(RB3LYP) =  -1296.17882770     A.U. after   13 cycles
 SCF Done:  E(RB3LYP) =  -1296.18287182     A.U. after   14 cycles
 SCF Done:  E(RB3LYP) =  -1296.18473460     A.U. after   13 cycles
 SCF Done:  E(RB3LYP) =  -1296.18569582     A.U. after   12 cycles
 SCF Done:  E(RB3LYP) =  -1296.18655251     A.U. after   12 cycles
 SCF Done:  E(RB3LYP) =  -1296.18735061     A.U. after   12 cycles
 SCF Done:  E(RB3LYP) =  -1296.18665048     A.U. after   15 cycles
 SCF Done:  E(RB3LYP) =  -1296.18859115     A.U. after   12 cycles
 SCF Done:  E(RB3LYP) =  -1296.19585242     A.U. after   11 cycles
 SCF Done:  E(RB3LYP) =  -1296.19587570     A.U. after   10 cycles
 SCF Done:  E(RB3LYP) =  -1296.19588007     A.U. after    9 cycles
 SCF Done:  E(RB3LYP) =  -1296.19588083     A.U. after    8 cycles
 SCF Done:  E(RB3LYP) =  -1296.19588098     A.U. after    7 cycles
 Optimization completed.
    -- Stationary point found.
 Normal termination of Gaussian 16 at Mon Dec 14 18:06:06 2020.

 --------------------------------------------------------------------
 #N Geom=AllCheck Guess=TCheck SCRF=Check GenChk RB3LYP/6-31G(d) Freq
 --------------------------------------------------------------------

 Structure from the checkpoint file:  "JID_10172.chk"
 --------------------------------
 CID_139013158_JID_10172_neutraal
 --------------------------------
 Charge =  0 Multiplicity = 1

 SCF Done:  E(RB3LYP) =  -1296.19588098     A.U. after    1 cycles

  Exact polarizability: 219.116  11.559 178.798  19.726  -7.869 140.200
 Approx polarizability: 295.708  14.759 285.381  40.475 -14.068 223.423

                      1                      2                      3
                      A                      A                      A
 Frequencies --     31.9213                42.7573                67.8126
 Red. masses --      5.3282                 4.1542                 1.0666
 Frc consts  --      0.0032                 0.0045                 0.0029
 IR Inten    --      2.7547                 0.5665                 0.4838

                      4                      5                      6
                      A                      A                      A
 Frequencies --     69.3911                95.7425               112.7578
 Red. masses --      4.3171                 3.9006                 3.9354
 Frc consts  --      0.0122                 0.0211                 0.0295
 IR Inten    --      1.8945                 2.2862                 6.7011

                      7                      8                      9
                      A                      A                      A
 Frequencies --    152.5211               166.0645               177.7462
 Red. masses --      3.3167                 3.0103                 3.9368
 Frc consts  --      0.0455                 0.0489                 0.0733
 IR Inten    --      0.3891                 4.5373                 0.8991

                     10                     11                     12
                      A                      A                      A
 Frequencies --    186.5862               214.5927               215.4689
 Red. masses --      3.0862                 2.9235                 1.2482
 Frc consts  --      0.0633                 0.0793                 0.0341
 IR Inten    --      0.3767                 3.7376                 0.3900

                     13                     14                     15
                      A                      A                      A
 Frequencies --    237.6648               239.5223               253.8206
 Red. masses --      2.6934                 2.1136                 2.7978
 Frc consts  --      0.0896                 0.0714                 0.1062
 IR Inten    --      0.5532                 0.0830                 0.3075

                     16                     17                     18
                      A                      A                      A
 Frequencies --    264.1669               268.0308               273.0756
 Red. masses --      1.7861                 1.9409                 1.9716
 Frc consts  --      0.0734                 0.0822                 0.0866
 IR Inten    --      0.4140                 0.6422                 0.6042

                     19                     20                     21
                      A                      A                      A
 Frequencies --    294.9669               303.3177               320.5868
 Red. masses --      3.3108                 3.6528                 3.8159
 Frc consts  --      0.1697                 0.1980                 0.2311
 IR Inten    --      3.4098                 6.4024                 1.1583

                     22                     23                     24
                      A                      A                      A
 Frequencies --    357.3253               374.1354               410.3135
 Red. masses --      2.8911                 2.7059                 3.6213
 Frc consts  --      0.2175                 0.2232                 0.3592
 IR Inten    --      2.7799                 1.4058                 9.6301

                     25                     26                     27
                      A                      A                      A
 Frequencies --    424.2602               445.0514               451.4791
 Red. masses --      2.4537                 3.8974                 3.5713
 Frc consts  --      0.2602                 0.4548                 0.4289
 IR Inten    --      3.4521                 8.3542                 2.8280

                     28                     29                     30
                      A                      A                      A
 Frequencies --    472.4474               524.8123               551.9185
 Red. masses --      3.4095                 4.5139                 3.3703
 Frc consts  --      0.4484                 0.7325                 0.6049
 IR Inten    --     20.9141                 4.3003                 2.7672

                     31                     32                     33
                      A                      A                      A
 Frequencies --    557.8315               568.8048               582.7312
 Red. masses --      3.8200                 5.7265                 3.3429
 Frc consts  --      0.7004                 1.0916                 0.6688
 IR Inten    --      3.6503                 2.2677                 5.2775

                     34                     35                     36
                      A                      A                      A
 Frequencies --    602.3084               610.1159               643.1418
 Red. masses --      3.9785                 3.4596                 4.1377
 Frc consts  --      0.8504                 0.7588                 1.0084
 IR Inten    --      6.5632                 4.0905                 9.4490

                     37                     38                     39
                      A                      A                      A
 Frequencies --    712.1870               742.4451               773.9364
 Red. masses --      3.7642                 3.4713                 2.7457
 Frc consts  --      1.1249                 1.1274                 0.9690
 IR Inten    --      2.0460                79.8344                20.9575

                     40                     41                     42
                      A                      A                      A
 Frequencies --    795.8843               806.6450               828.9321
 Red. masses --      2.0274                 3.2286                 2.1898
 Frc consts  --      0.7566                 1.2377                 0.8865
 IR Inten    --      0.7669                47.2877                 6.3192

                     43                     44                     45
                      A                      A                      A
 Frequencies --    854.0666               929.0548               946.3117
 Red. masses --      2.6085                 2.5081                 2.0057
 Frc consts  --      1.1210                 1.2755                 1.0582
 IR Inten    --      5.8183                 9.5236                14.7883

                     46                     47                     48
                      A                      A                      A
 Frequencies --    968.4717               974.7264               994.1089
 Red. masses --      1.5369                 3.5832                 4.2392
 Frc consts  --      0.8493                 2.0058                 2.4683
 IR Inten    --      2.2265                 6.3372                 3.6351

                     49                     50                     51
                      A                      A                      A
 Frequencies --   1003.3418              1019.0323              1022.6942
 Red. masses --      2.3126                 3.3097                 1.4835
 Frc consts  --      1.3717                 2.0249                 0.9142
 IR Inten    --      7.1809                 7.0871                 4.4383

                     52                     53                     54
                      A                      A                      A
 Frequencies --   1032.4741              1048.6117              1069.3345
 Red. masses --      1.6886                 1.6663                 2.0815
 Frc consts  --      1.0606                 1.0795                 1.4024
 IR Inten    --      3.3066                 8.6146                 7.3196

                     55                     56                     57
                      A                      A                      A
 Frequencies --   1072.5850              1091.4112              1111.4839
 Red. masses --      1.6031                 8.2100                 3.5824
 Frc consts  --      1.0866                 5.7620                 2.6075
 IR Inten    --      3.7543               111.2090                31.5732

                     58                     59                     60
                      A                      A                      A
 Frequencies --   1163.8599              1181.3321              1185.7787
 Red. masses --      2.4709                 2.0068                 1.2719
 Frc consts  --      1.9720                 1.6500                 1.0537
 IR Inten    --     34.1859                 2.7463                 0.7586

                     61                     62                     63
                      A                      A                      A
 Frequencies --   1187.2360              1206.6794              1229.7457
 Red. masses --      1.6457                 1.4140                 1.6903
 Frc consts  --      1.3667                 1.2131                 1.5061
 IR Inten    --     26.9950                61.6486                30.8144

                     64                     65                     66
                      A                      A                      A
 Frequencies --   1234.1041              1244.7599              1268.7702
 Red. masses --      2.1333                 1.9667                 2.6488
 Frc consts  --      1.9143                 1.7954                 2.5123
 IR Inten    --     99.1875                36.6882                32.5916

                     67                     68                     69
                      A                      A                      A
 Frequencies --   1292.9973              1308.0143              1313.8875
 Red. masses --      5.2961                 1.5455                 1.5916
 Frc consts  --      5.2168                 1.5579                 1.6188
 IR Inten    --    139.1842                 7.5828                10.6877

                     70                     71                     72
                      A                      A                      A
 Frequencies --   1330.2774              1348.9646              1370.0838
 Red. masses --      4.7566                 1.7700                 1.4490
 Frc consts  --      4.9594                 1.8977                 1.6026
 IR Inten    --     85.3238                 6.3903                27.3431

                     73                     74                     75
                      A                      A                      A
 Frequencies --   1396.5063              1408.6701              1412.4482
 Red. masses --      2.5807                 1.3613                 1.3769
 Frc consts  --      2.9653                 1.5916                 1.6184
 IR Inten    --    422.7382                43.6701                11.6964

                     76                     77                     78
                      A                      A                      A
 Frequencies --   1425.8591              1430.4331              1436.7104
 Red. masses --      1.2204                 1.3416                 1.3875
 Frc consts  --      1.4619                 1.6174                 1.6875
 IR Inten    --      9.7576                45.6533                16.2588

                     79                     80                     81
                      A                      A                      A
 Frequencies --   1449.5393              1469.9869              1490.1508
 Red. masses --      1.2237                 1.1127                 1.8361
 Frc consts  --      1.5149                 1.4166                 2.4022
 IR Inten    --     14.6231                11.0010                 1.4940

                     82                     83                     84
                      A                      A                      A
 Frequencies --   1493.3232              1500.6435              1502.3771
 Red. masses --      1.3323                 1.1142                 1.1986
 Frc consts  --      1.7504                 1.4783                 1.5940
 IR Inten    --     57.3333                 2.3642                26.0840

                     85                     86                     87
                      A                      A                      A
 Frequencies --   1504.8357              1506.8340              1515.6035
 Red. masses --      1.0588                 1.2064                 1.0633
 Frc consts  --      1.4126                 1.6138                 1.4391
 IR Inten    --      6.9397                12.5610                 9.5867

                     88                     89                     90
                      A                      A                      A
 Frequencies --   1523.3979              1525.5602              1528.0391
 Red. masses --      1.0477                 1.0962                 1.3181
 Frc consts  --      1.4326                 1.5032                 1.8134
 IR Inten    --      5.7315                28.8282               156.7808

                     91                     92                     93
                      A                      A                      A
 Frequencies --   1532.7403              1534.4180              1548.1590
 Red. masses --      1.0678                 1.1117                 1.0642
 Frc consts  --      1.4780                 1.5421                 1.5027
 IR Inten    --      5.8753                 8.2934                12.2654

                     94                     95                     96
                      A                      A                      A
 Frequencies --   1567.2142              1620.0852              1643.7656
 Red. masses --      2.6078                 6.0564                 7.9627
 Frc consts  --      3.7739                 9.3657                12.6762
 IR Inten    --    157.8427               387.7974               631.5107

                     97                     98                     99
                      A                      A                      A
 Frequencies --   3039.6809              3039.8783              3059.4061
 Red. masses --      1.0401                 1.0634                 1.0359
 Frc consts  --      5.6622                 5.7897                 5.7129
 IR Inten    --     57.6509                12.3845                13.2591

                    100                    101                    102
                      A                      A                      A
 Frequencies --   3061.8596              3066.3004              3073.6490
 Red. masses --      1.0390                 1.0393                 1.0660
 Frc consts  --      5.7388                 5.7572                 5.9338
 IR Inten    --      7.9802                21.8249                42.6527

                    103                    104                    105
                      A                      A                      A
 Frequencies --   3092.6271              3100.2960              3104.2683
 Red. masses --      1.0601                 1.0581                 1.1071
 Frc consts  --      5.9739                 5.9920                 6.2854
 IR Inten    --     47.3045                 8.6265                33.2572

                    106                    107                    108
                      A                      A                      A
 Frequencies --   3120.7194              3127.7812              3130.2451
 Red. masses --      1.1005                 1.0923                 1.0972
 Frc consts  --      6.3146                 6.2960                 6.3342
 IR Inten    --     11.0179                 3.1114                14.4369

                    109                    110                    111
                      A                      A                      A
 Frequencies --   3136.1830              3136.8318              3143.5259
 Red. masses --      1.1005                 1.1038                 1.1033
 Frc consts  --      6.3774                 6.3989                 6.4238
 IR Inten    --     23.9116                 1.0491                21.9302

                    112                    113                    114
                      A                      A                      A
 Frequencies --   3144.3498              3153.3761              3162.8404
 Red. masses --      1.0991                 1.1022                 1.1027
 Frc consts  --      6.4025                 6.4572                 6.4995
 IR Inten    --      6.0799                16.1429                 7.7804

                    115                    116                    117
                      A                      A                      A
 Frequencies --   3167.1831              3168.3867              3252.5532
 Red. masses --      1.1082                 1.1011                 1.0914
 Frc consts  --      6.5494                 6.5123                 6.8025
 IR Inten    --      5.0287                22.9114                 5.2864

 - Thermochemistry -
 -------------------
 Temperature   298.150 Kelvin.  Pressure   1.00000 Atm.
 Atom     1 has atomic number  6 and mass  12.00000

 Molecular mass:   299.13036 amu.
 Principal axes and moments of inertia in atomic units:
                           1         2         3
     Eigenvalues --  3266.652348041.472849070.11489
           X            0.99980   0.01200   0.01631
           Y           -0.01120   0.99880  -0.04778
           Z           -0.01686   0.04758   0.99872
 This molecule is an asymmetric top.
 Rotational symmetry number  1.
 Warning -- assumption of classical behavior for rotation
           may cause significant error
 Rotational temperatures (Kelvin)      0.02651     0.01077     0.00955
 Rotational constants (GHZ):           0.55247     0.22443     0.19898
 Zero-point vibrational energy     907239.9 (Joules/Mol)
                                  216.83553 (Kcal/Mol)
 Warning -- explicit consideration of  35 degrees of freedom as
           vibrations may cause significant error
 Vibrational temperatures:     45.93    61.52    97.57    99.84   137.75
          (Kelvin)            162.23   219.44   238.93   255.74   268.46
                              308.75   310.01   341.95   344.62   365.19
                              380.08   385.64   392.89   424.39   436.41
                              461.25   514.11   538.30   590.35   610.42
                              640.33   649.58   679.75   755.09   794.09
                              802.60   818.38   838.42   866.59   877.82
                              925.34  1024.68  1068.21  1113.52  1145.10
                             1160.58  1192.65  1228.81  1336.70  1361.53
                             1393.41  1402.41  1430.30  1443.59  1466.16
                             1471.43  1485.50  1508.72  1538.53  1543.21
                             1570.30  1599.18  1674.53  1699.67  1706.07
                             1708.17  1736.14  1769.33  1775.60  1790.93
                             1825.48  1860.33  1881.94  1890.39  1913.97
                             1940.86  1971.25  2009.26  2026.76  2032.20
                             2051.49  2058.07  2067.11  2085.56  2114.98
                             2143.99  2148.56  2159.09  2161.59  2165.12
                             2168.00  2180.62  2191.83  2194.94  2198.51
                             2205.27  2207.69  2227.46  2254.87  2330.94
                             2365.01  4373.42  4373.71  4401.80  4405.33
                             4411.72  4422.30  4449.60  4460.63  4466.35
                             4490.02  4500.18  4503.72  4512.27  4513.20
                             4522.83  4524.02  4537.00  4550.62  4556.87
                             4558.60  4679.70

 Zero-point correction=                           0.345549 (Hartree/Particle)
 Thermal correction to Energy=                    0.365592
 Thermal correction to Enthalpy=                  0.366537
 Thermal correction to Gibbs Free Energy=         0.297806
 Sum of electronic and zero-point Energies=          -1295.850332
 Sum of electronic and thermal Energies=             -1295.830289
 Sum of electronic and thermal Enthalpies=           -1295.829344
 Sum of electronic and thermal Free Energies=        -1295.898075

                     E (Thermal)             CV                S
                      KCal/Mol        Cal/Mol-Kelvin    Cal/Mol-Kelvin
 Total                  229.413             77.184            144.657
 Electronic               0.000              0.000              0.000
 Translational            0.889              2.981             42.984
 Rotational               0.889              2.981             33.832
 Vibrational            227.635             71.222             67.841
 Vibration     1          0.594              1.983              5.706
 Vibration     2          0.595              1.980              5.127
 Vibration     3          0.598              1.970              4.216
 Vibration     4          0.598              1.969              4.171
 Vibration     5          0.603              1.952              3.539
 Vibration     6          0.607              1.939              3.221
 Vibration     7          0.619              1.900              2.641
 Vibration     8          0.624              1.884              2.480
 Vibration     9          0.628              1.870              2.352
 Vibration    10          0.632              1.858              2.261
 Vibration    11          0.645              1.819              2.004
 Vibration    12          0.645              1.817              1.997
 Vibration    13          0.656              1.783              1.820
 Vibration    14          0.657              1.780              1.806
 Vibration    15          0.665              1.756              1.704
 Vibration    16          0.671              1.739              1.634
 Vibration    17          0.673              1.732              1.609
 Vibration    18          0.676              1.723              1.577
 Vibration    19          0.689              1.683              1.445
 Vibration    20          0.695              1.667              1.399
 Vibration    21          0.706              1.634              1.307
 Vibration    22          0.732              1.560              1.134
 Vibration    23          0.745              1.525              1.063
 Vibration    24          0.774              1.448              0.926
 Vibration    25          0.786              1.417              0.878
 Vibration    26          0.804              1.372              0.811
 Vibration    27          0.810              1.358              0.791
 Vibration    28          0.829              1.311              0.731
 Vibration    29          0.880              1.195              0.599
 Vibration    30          0.907              1.135              0.540
 Vibration    31          0.913              1.123              0.528
 Vibration    32          0.925              1.099              0.507
 Vibration    33          0.940              1.069              0.480
 Vibration    34          0.961              1.027              0.446
 Vibration    35          0.969              1.010              0.433

                           ! Non-Optimized Parameters !
 Normal termination of Gaussian 16 at Mon Dec 14 18:31:49 2020.

 ----------------------------------------------------------------------
 # B3LYP/6-311++G(d,p) empiricaldispersion=gd3bj scf=xqc pop=npa geom=c
 heck
 ----------------------------------------------------------------------

 ----------------------------------------
 CID_139013158_JID_10172_Energie_neutraal
 ----------------------------------------
 Structure from the checkpoint file:  "JID_10172.chk"
 Charge =  0 Multiplicity = 1

 SCF Done:  E(RB3LYP) =  -1296.46980282     A.U. after   16 cycles
 Normal termination of Gaussian 16 at Mon Dec 14 18:44:27 2020.

 ----------------------------------------------------------------------
 # B3LYP/6-311++G(d,p) empiricaldispersion=gd3bj scf=xqc pop=npa geom=c
 heck
 ----------------------------------------------------------------------

 --------------------------------------
 CID_139013158_JID_10172_Energie_kation
 --------------------------------------
 Structure from the checkpoint file:  "JID_10172.chk"
 Charge =  1 Multiplicity = 2

 SCF Done:  E(UB3LYP) =  -1296.18793532     A.U. after   24 cycles
 Normal termination of Gaussian 16 at Mon Dec 14 19:12:12 2020.
 Gaussian 16:  ES64L-G16RevA.03 25-Dec-2016

 ----------------------------------------------------------------------
 # B3LYP/6-311++G(d,p) empiricaldispersion=gd3bj scf=xqc pop=npa geom=c
 heck
 ----------------------------------------------------------------------

 -------------------------------------
 CID_139013158_JID_10172_Energie_anion
 -------------------------------------
 Structure from the checkpoint file:  "JID_10172.chk"
 Charge = -1 Multiplicity = 2

                         Standard orientation:
 ---------------------------------------------------------------------
 Center     Atomic      Atomic             Coordinates (Angstroms)
 Number     Number       Type             X           Y           Z
 ---------------------------------------------------------------------
      1          6           0       -2.936494    2.976458   -0.952040
      2          6           0       -2.535203    1.665620   -0.332041
      3          6           0       -3.337107    0.530197   -0.451587
      4          6           0       -2.856140   -0.634711    0.165044
      5          7           0       -1.703654   -0.669909    0.821823
      6          6           0       -1.004553    0.476165    0.858348
      7          7           0       -1.368294    1.654899    0.323696
      8          7           0        0.200265    0.430432    1.517862
      9          6           0        1.117686    1.562259    1.452483
     10          6           0        1.895303    1.674634    0.136831
     11          6           0        2.827448    0.516306   -0.261575
     12         16           0        1.829763   -0.996760   -0.702249
     13          8           0        2.764942   -1.977639   -1.289577
     14          8           0        0.667330   -0.535443   -1.485803
     15          6           0        1.199698   -1.783990    0.826588
     16          6           0        0.715954   -0.853978    1.952713
     17          6           0        3.864315    0.138908    0.799594
     18          6           0        3.532801    0.876477   -1.580422
     19          8           0       -3.502357   -1.819499    0.157167
     20          6           0       -4.734197   -1.905212   -0.549220
     21          1           0       -2.944836    3.765141   -0.192245
     22          1           0       -2.202691    3.268529   -1.711535
     23          1           0       -3.923344    2.921128   -1.419629
     24          1           0       -4.267751    0.565078   -1.000256
     25          1           0        0.532598    2.474667    1.577665
     26          1           0        1.797643    1.481309    2.306926
     27          1           0        2.521579    2.575698    0.196154
     28          1           0        1.176152    1.835421   -0.670629
     29          1           0        1.986582   -2.459057    1.169373
     30          1           0        0.362889   -2.366914    0.433043
     31          1           0        1.531003   -0.652645    2.651393
     32          1           0       -0.068722   -1.384897    2.496245
     33          1           0        4.484371   -0.690876    0.449508
     34          1           0        4.516281    1.000341    0.984373
     35          1           0        3.417138   -0.145606    1.755221
     36          1           0        2.802495    1.104812   -2.361772
     37          1           0        4.154693    1.763048   -1.415263
     38          1           0        4.167092    0.056966   -1.924662
     39          1           0       -5.486604   -1.229398   -0.124758
     40          1           0       -4.599527   -1.679330   -1.613635
     41          1           0       -5.067873   -2.937374   -0.435796
 ---------------------------------------------------------------------

 SCF Done:  E(UB3LYP) =  -1296.46029208     A.U. after   33 cycles
 SCF Done:  E(UB3LYP) =  -1296.46029208     a.u. after    1 cycles

 The electronic state is 2-A.
 Alpha  occ. eigenvalues --  -88.94543 -19.07669 -19.01808 -19.01749 -14.25103
 Alpha  occ. eigenvalues --  -14.21016 -14.20722 -10.18634 -10.18109 -10.14041
 Alpha  occ. eigenvalues --  -10.13876 -10.13709 -10.13254 -10.12082 -10.11687
 Alpha  occ. eigenvalues --  -10.08954 -10.08797 -10.08680 -10.08348 -10.08089
 Alpha  occ. eigenvalues --   -8.01107  -5.97362  -5.97251  -5.97192  -1.00835
 Alpha  occ. eigenvalues --   -1.00056  -0.91635  -0.90490  -0.84734  -0.79989
 Alpha  occ. eigenvalues --   -0.75498  -0.71563  -0.69782  -0.65904  -0.64184
 Alpha  occ. eigenvalues --   -0.63202  -0.61935  -0.60465  -0.57306  -0.55981
 Alpha  occ. eigenvalues --   -0.52151  -0.49920  -0.46306  -0.45243  -0.44736
 Alpha  occ. eigenvalues --   -0.42530  -0.41856  -0.40068  -0.39303  -0.38784
 Alpha  occ. eigenvalues --   -0.37904  -0.37552  -0.36884  -0.36421  -0.35213
 Alpha  occ. eigenvalues --   -0.35136  -0.34735  -0.33983  -0.32437  -0.31890
 Alpha  occ. eigenvalues --   -0.31643  -0.31206  -0.31092  -0.30671  -0.30307
 Alpha  occ. eigenvalues --   -0.29132  -0.28091  -0.27193  -0.26368  -0.26114
 Alpha  occ. eigenvalues --   -0.25283  -0.23234  -0.22420  -0.22327  -0.21045
 Alpha  occ. eigenvalues --   -0.20477  -0.19034  -0.17918  -0.16662  -0.13190
 Alpha  occ. eigenvalues --    0.03649
 Alpha virt. eigenvalues --    0.04826   0.06052   0.06258   0.06717   0.07538
 Alpha virt. eigenvalues --    0.07893   0.08562   0.08913   0.09284   0.09636
 Alpha virt. eigenvalues --    0.09742   0.10058   0.10613   0.10797   0.11533

  Beta  occ. eigenvalues --  -88.94542 -19.07663 -19.01807 -19.01748 -14.25106
  Beta  occ. eigenvalues --  -14.21005 -14.20721 -10.18635 -10.18101 -10.14000
  Beta  occ. eigenvalues --  -10.13874 -10.13694 -10.13236 -10.12076 -10.11668
  Beta  occ. eigenvalues --  -10.08942 -10.08756 -10.08669 -10.08331 -10.08072
  Beta  occ. eigenvalues --   -8.01106  -5.97361  -5.97250  -5.97188  -1.00832
  Beta  occ. eigenvalues --   -1.00041  -0.91623  -0.90488  -0.84724  -0.79970
  Beta  occ. eigenvalues --   -0.75481  -0.71540  -0.69759  -0.65878  -0.64143
  Beta  occ. eigenvalues --   -0.63166  -0.61882  -0.60436  -0.57274  -0.55953
  Beta  occ. eigenvalues --   -0.52112  -0.49879  -0.46284  -0.45215  -0.44707
  Beta  occ. eigenvalues --   -0.42507  -0.41836  -0.40039  -0.39275  -0.38760
  Beta  occ. eigenvalues --   -0.37872  -0.37525  -0.36857  -0.36398  -0.35188
  Beta  occ. eigenvalues --   -0.35100  -0.34698  -0.33962  -0.32404  -0.31854
  Beta  occ. eigenvalues --   -0.31608  -0.31177  -0.31067  -0.30643  -0.30282
  Beta  occ. eigenvalues --   -0.29106  -0.28066  -0.27169  -0.26336  -0.26086
  Beta  occ. eigenvalues --   -0.25264  -0.23225  -0.22415  -0.22312  -0.21023
  Beta  occ. eigenvalues --   -0.20449  -0.19022  -0.17888  -0.16649  -0.13173
  Beta virt. eigenvalues --    0.05773   0.06142   0.06193   0.06783   0.07205
  Beta virt. eigenvalues --    0.07912   0.08304   0.08765   0.09208   0.09561
  Beta virt. eigenvalues --    0.09964   0.10056   0.10327   0.10763   0.11122

 Mulliken charges and spin densities:
               1          2
     1  C    0.250770  -0.762021
     2  C   -0.337319   0.502084
     3  C    0.903423  -0.673382
     4  C    0.280806  -0.331169
     5  N   -0.203662   0.043582
     6  C   -1.552371   0.449366
     7  N    0.026830   0.024632
     8  N    0.000121   0.079926
     9  C    0.353043  -0.786086
    10  C   -0.539261   0.402335
    11  C   -1.005642   0.722007
    12  S    1.007224  -0.794916
    13  O   -0.056059   0.007866
    14  O   -0.084790   0.008761
    15  C   -0.873794   0.279215
    16  C    0.436130  -0.556380
    17  C    1.211255  -1.614150
    18  C   -0.411042  -0.093740
    19  O   -0.079993   0.030184
    20  C    0.780652  -1.011335
    21  H    0.004256   0.155148
    22  H    0.111744   0.047139
    23  H   -0.249997   0.402061
    24  H   -0.246661   0.434443
    25  H    0.059310   0.188225
    26  H   -0.266008   0.453537
    27  H   -0.205289   0.379636
    28  H    0.194815   0.021774
    29  H    0.051125   0.196578
    30  H    0.316045  -0.030547
    31  H   -0.270229   0.443146
    32  H    0.151754   0.081305
    33  H    0.074675   0.114235
    34  H   -0.473709   0.663292
    35  H   -0.070926   0.218519
    36  H    0.152836   0.038305
    37  H   -0.032566   0.188336
    38  H    0.184694  -0.011211
    39  H   -0.365572   0.529080
    40  H   -0.031294   0.185846
    41  H   -0.195319   0.374373
 Sum of Mulliken charges =  -1.00000   1.00000

 Dipole moment (field-independent basis, Debye):
    X=              1.2281    Y=             -0.3901    Z=             -0.5669  Tot=              1.4077
 Quadrupole moment (field-independent basis, Debye-Ang):
   XX=           -231.6346   YY=           -172.2887   ZZ=           -169.4865
   XY=             -5.2806   XZ=            -12.2081   YZ=             -9.0042

 Summary of Natural Population Analysis:

                                       Natural Population
                Natural  -----------------------------------------------
    Atom  No    Charge         Core      Valence    Rydberg      Total
 -----------------------------------------------------------------------
      C    1   -0.29844      0.99963     2.29351    0.00531     3.29844
      C    2    0.14392      0.99957     1.84329    0.01323     2.85608
      C    3   -0.20463      0.99946     2.19703    0.00815     3.20463
      C    4    0.29559      0.99945     1.68772    0.01724     2.70441
      N    5   -0.28667      0.99962     2.77723    0.00983     3.78667
      C    6    0.32353      0.99957     1.65869    0.01821     2.67647
      N    7   -0.28951      0.99964     2.78008    0.00980     3.78951
      N    8   -0.25356      0.99963     2.74149    0.01243     3.75356
      C    9   -0.08382      0.99960     2.07199    0.01224     3.08382
      C   10   -0.21074      0.99955     2.19971    0.01148     3.21074
      C   11   -0.11388      0.99954     2.09751    0.01683     3.11388
      S   12    1.02014      4.99913     1.88836    0.09237     6.97986
      O   13   -0.47685      0.99991     3.47137    0.00557     4.47685
      O   14   -0.46824      0.99991     3.46260    0.00572     4.46824
      C   15   -0.29650      0.99957     2.28580    0.01113     3.29650
      C   16   -0.09183      0.99960     2.08001    0.01222     3.09183
      C   17   -0.30052      0.99960     2.29241    0.00851     3.30052
      C   18   -0.29660      0.99961     2.28852    0.00847     3.29660
      O   19   -0.26205      0.99985     3.25299    0.00921     4.26205
      C   20   -0.10315      0.99960     2.09471    0.00885     3.10315
      H   21    0.10934      0.00000     0.38954    0.00112     0.39066
      H   22    0.10949      0.00000     0.38950    0.00101     0.39051
      H   23    0.10195      0.00000     0.39712    0.00093     0.39805
      H   24    0.11167      0.00000     0.38691    0.00143     0.38833
      H   25    0.11495      0.00000     0.38346    0.00158     0.38505
      H   26    0.09786      0.00000     0.40052    0.00162     0.40214
      H   27    0.10664      0.00000     0.39199    0.00137     0.39336
      H   28    0.11872      0.00000     0.37971    0.00157     0.38128
      H   29    0.11610      0.00000     0.38281    0.00109     0.38390
      H   30    0.12735      0.00000     0.37128    0.00138     0.37265
      H   31    0.10096      0.00000     0.39769    0.00136     0.39904
      H   32    0.11534      0.00000     0.38316    0.00151     0.38466
      H   33    0.11072      0.00000     0.38813    0.00115     0.38928
      H   34    0.11037      0.00000     0.38779    0.00184     0.38963
      H   35    0.10371      0.00000     0.39465    0.00164     0.39629
      H   36    0.10950      0.00000     0.38959    0.00091     0.39050
      H   37    0.10558      0.00000     0.39352    0.00089     0.39442
      H   38    0.11233      0.00000     0.38677    0.00090     0.38767
      H   39    0.08907      0.00000     0.40891    0.00202     0.41093
      H   40    0.08751      0.00000     0.41124    0.00125     0.41249
      H   41    0.09465      0.00000     0.40434    0.00100     0.40535
 =======================================================================
   * Total *   -0.00000     23.99203    55.68362    0.32435    80.00000

 Normal termination of Gaussian 16 at Mon Dec 14 19:50:22 2020.
