 Gaussian 16, Revision A.03,

 -----------------------------------------------------------
 # opt freq B3LYP/6-31G(d) empiricaldispersion=gd3bj scf=xqc
 -----------------------------------------------------------

 ------------------------------
 CID_43732722_JID_8914_neutraal
 ------------------------------
 Symbolic Z-matrix:
 Charge =  0 Multiplicity = 1

 SCF Done:  E(RB3LYP) =  -754.810193213     A.U. after   13 cycles
 SCF Done:  E(RB3LYP) =  -754.814380916     A.U. after   12 cycles
 SCF Done:  E(RB3LYP) =  -754.814723425     A.U. after   11 cycles
 SCF Done:  E(RB3LYP) =  -754.814738191     A.U. after   10 cycles
 SCF Done:  E(RB3LYP) =  -754.814771297     A.U. after    9 cycles
 SCF Done:  E(RB3LYP) =  -754.814775756     A.U. after    9 cycles
 SCF Done:  E(RB3LYP) =  -754.814779038     A.U. after    8 cycles
 SCF Done:  E(RB3LYP) =  -754.814781211     A.U. after    8 cycles
 SCF Done:  E(RB3LYP) =  -754.814782881     A.U. after    8 cycles
 SCF Done:  E(RB3LYP) =  -754.814783824     A.U. after    8 cycles
 SCF Done:  E(RB3LYP) =  -754.814784362     A.U. after    7 cycles
 SCF Done:  E(RB3LYP) =  -754.814784503     A.U. after    7 cycles
 SCF Done:  E(RB3LYP) =  -754.814784638     A.U. after    7 cycles
 SCF Done:  E(RB3LYP) =  -754.814784704     A.U. after    6 cycles
 Optimization completed.
    -- Stationary point found.
 Normal termination of Gaussian 16 at Fri Dec 11 21:25:14 2020.

 --------------------------------------------------------------------
 #N Geom=AllCheck Guess=TCheck SCRF=Check GenChk RB3LYP/6-31G(d) Freq
 --------------------------------------------------------------------

 Structure from the checkpoint file:  "JID_8914.chk"
 ------------------------------
 CID_43732722_JID_8914_neutraal
 ------------------------------
 Charge =  0 Multiplicity = 1

 SCF Done:  E(RB3LYP) =  -754.814784704     A.U. after    1 cycles

  Exact polarizability: 248.917   4.741 149.593  10.203 -18.276 143.501
 Approx polarizability: 307.437  16.560 238.055  15.883 -44.496 222.112

                      1                      2                      3
                      A                      A                      A
 Frequencies --     20.2870                45.9802                48.7621
 Red. masses --      4.1139                 3.1769                 3.6144
 Frc consts  --      0.0010                 0.0040                 0.0051
 IR Inten    --      0.0768                 0.5444                 0.2127

                      4                      5                      6
                      A                      A                      A
 Frequencies --     69.1153                82.8469               102.4421
 Red. masses --      2.1834                 3.1278                 2.5042
 Frc consts  --      0.0061                 0.0126                 0.0155
 IR Inten    --      0.4222                 0.5447                 1.6399

                      7                      8                      9
                      A                      A                      A
 Frequencies --    106.7455               149.3459               168.5458
 Red. masses --      2.4637                 2.9104                 2.4783
 Frc consts  --      0.0165                 0.0382                 0.0415
 IR Inten    --      0.5725                 0.6420                 0.4455

                     10                     11                     12
                      A                      A                      A
 Frequencies --    184.9340               202.8948               209.5711
 Red. masses --      2.1633                 2.8613                 3.4547
 Frc consts  --      0.0436                 0.0694                 0.0894
 IR Inten    --      0.0732                 3.8490                 1.2068

                     13                     14                     15
                      A                      A                      A
 Frequencies --    218.1562               231.9052               251.6573
 Red. masses --      1.0537                 1.5158                 1.7486
 Frc consts  --      0.0295                 0.0480                 0.0652
 IR Inten    --      0.0619                 0.2011                 0.1472

                     16                     17                     18
                      A                      A                      A
 Frequencies --    287.4634               293.0641               310.7728
 Red. masses --      2.1082                 2.0166                 2.6941
 Frc consts  --      0.1026                 0.1020                 0.1533
 IR Inten    --      2.5603                 0.0334                 5.3129

                     19                     20                     21
                      A                      A                      A
 Frequencies --    346.4972               363.6807               407.7905
 Red. masses --      2.2276                 3.0524                 1.9692
 Frc consts  --      0.1576                 0.2379                 0.1929
 IR Inten    --      1.6841                 9.5341                39.3659

                     22                     23                     24
                      A                      A                      A
 Frequencies --    420.7997               429.2225               432.1156
 Red. masses --      2.4558                 3.1633                 2.4569
 Frc consts  --      0.2562                 0.3434                 0.2703
 IR Inten    --     58.8615                 1.7751                 1.0388

                     25                     26                     27
                      A                      A                      A
 Frequencies --    476.4401               540.4044               580.2633
 Red. masses --      2.7222                 3.5629                 2.8414
 Frc consts  --      0.3641                 0.6130                 0.5637
 IR Inten    --      0.8203                 0.8215                 2.5205

                     28                     29                     30
                      A                      A                      A
 Frequencies --    586.7828               601.8650               658.8018
 Red. masses --      3.3595                 2.8327                 3.7553
 Frc consts  --      0.6815                 0.6046                 0.9603
 IR Inten    --     10.5182                 2.3078                 6.9640

                     31                     32                     33
                      A                      A                      A
 Frequencies --    683.4915               714.4818               764.9457
 Red. masses --      3.1769                 4.5671                 2.6841
 Frc consts  --      0.8744                 1.3736                 0.9254
 IR Inten    --      0.9251                 1.2535                17.4964

                     34                     35                     36
                      A                      A                      A
 Frequencies --    785.3355               791.7734               812.7815
 Red. masses --      1.3881                 2.2677                 1.4752
 Frc consts  --      0.5044                 0.8376                 0.5742
 IR Inten    --      6.1779                 1.8751                14.8377

                     37                     38                     39
                      A                      A                      A
 Frequencies --    813.0916               824.2164               830.4171
 Red. masses --      1.4513                 3.4840                 2.0697
 Frc consts  --      0.5653                 1.3945                 0.8409
 IR Inten    --     13.8963                13.1946                 4.3709

                     40                     41                     42
                      A                      A                      A
 Frequencies --    853.8270               872.4286               914.5094
 Red. masses --      1.4628                 1.9326                 1.2844
 Frc consts  --      0.6283                 0.8667                 0.6329
 IR Inten    --     15.9972                 7.7088                 0.1825

                     43                     44                     45
                      A                      A                      A
 Frequencies --    930.7643               941.3059               964.4950
 Red. masses --      1.9954                 2.1273                 2.2610
 Frc consts  --      1.0185                 1.1105                 1.2392
 IR Inten    --      6.2735                 4.2005                 9.8153

                     46                     47                     48
                      A                      A                      A
 Frequencies --    971.3767               988.7231               997.7222
 Red. masses --      1.8028                 1.4473                 1.5579
 Frc consts  --      1.0023                 0.8336                 0.9137
 IR Inten    --      3.5153                 4.1519                 0.9205

                     49                     50                     51
                      A                      A                      A
 Frequencies --   1019.2118              1024.2303              1044.6819
 Red. masses --      1.9174                 3.9033                 1.9125
 Frc consts  --      1.1735                 2.4126                 1.2297
 IR Inten    --     41.4077                47.1298                 2.2676

                     52                     53                     54
                      A                      A                      A
 Frequencies --   1059.0845              1070.5627              1089.2871
 Red. masses --      2.8500                 1.5866                 1.6302
 Frc consts  --      1.8835                 1.0714                 1.1397
 IR Inten    --      0.5707                 8.5803                 4.6998

                     55                     56                     57
                      A                      A                      A
 Frequencies --   1118.8915              1132.6104              1149.5339
 Red. masses --      2.4614                 2.2046                 1.9770
 Frc consts  --      1.8155                 1.6663                 1.5392
 IR Inten    --     16.6988                 4.6139                 2.3451

                     58                     59                     60
                      A                      A                      A
 Frequencies --   1178.5988              1183.3173              1195.6174
 Red. masses --      1.4800                 2.0207                 2.3261
 Frc consts  --      1.2113                 1.6671                 1.9592
 IR Inten    --      4.4568                 2.5889                27.6896

                     61                     62                     63
                      A                      A                      A
 Frequencies --   1200.4406              1216.3147              1234.5574
 Red. masses --      2.0373                 1.2739                 1.2575
 Frc consts  --      1.7297                 1.1104                 1.1293
 IR Inten    --     11.7446                 2.3295                37.9634

                     64                     65                     66
                      A                      A                      A
 Frequencies --   1258.5003              1262.9197              1288.2350
 Red. masses --      1.4805                 1.8355                 1.9261
 Frc consts  --      1.3815                 1.7249                 1.8833
 IR Inten    --     44.3046               195.4270                 9.2707

                     67                     68                     69
                      A                      A                      A
 Frequencies --   1310.6194              1316.5938              1321.0325
 Red. masses --      1.5248                 1.1849                 1.2629
 Frc consts  --      1.5432                 1.2101                 1.2985
 IR Inten    --      6.8921                 5.2841                 0.0676

                     70                     71                     72
                      A                      A                      A
 Frequencies --   1332.8378              1340.1118              1364.5201
 Red. masses --      1.4086                 1.6099                 1.3999
 Frc consts  --      1.4743                 1.7034                 1.5357
 IR Inten    --      4.3220                17.7061                 1.5812

                     73                     74                     75
                      A                      A                      A
 Frequencies --   1377.0249              1382.4509              1392.7001
 Red. masses --      1.8176                 1.3916                 1.7662
 Frc consts  --      2.0306                 1.5670                 2.0184
 IR Inten    --     26.9862                23.4025                29.9404

                     76                     77                     78
                      A                      A                      A
 Frequencies --   1405.0903              1407.9408              1414.9269
 Red. masses --      1.3401                 1.5751                 1.3896
 Frc consts  --      1.5589                 1.8396                 1.6391
 IR Inten    --      3.0706                 5.0703                 2.3231

                     79                     80                     81
                      A                      A                      A
 Frequencies --   1432.4548              1439.3746              1441.2052
 Red. masses --      1.4925                 1.2888                 1.3024
 Frc consts  --      1.8044                 1.5732                 1.5938
 IR Inten    --     14.8065                 6.8364                20.6798

                     82                     83                     84
                      A                      A                      A
 Frequencies --   1444.1713              1467.7010              1513.1293
 Red. masses --      1.2272                 2.3523                 1.1488
 Frc consts  --      1.5080                 2.9855                 1.5497
 IR Inten    --      0.7412                 6.4282                12.0280

                     85                     86                     87
                      A                      A                      A
 Frequencies --   1513.2012              1516.4946              1523.1069
 Red. masses --      1.0669                 1.0768                 1.0798
 Frc consts  --      1.4394                 1.4591                 1.4759
 IR Inten    --      0.1361                 0.1858                 4.2373

                     88                     89                     90
                      A                      A                      A
 Frequencies --   1527.5106              1530.2094              1534.6414
 Red. masses --      1.0440                 1.0579                 1.0638
 Frc consts  --      1.4352                 1.4595                 1.4762
 IR Inten    --     10.1835                 2.8604                 8.0323

                     91                     92                     93
                      A                      A                      A
 Frequencies --   1536.1805              1538.6592              1543.0544
 Red. masses --      1.0648                 1.5988                 1.0700
 Frc consts  --      1.4804                 2.2301                 1.5011
 IR Inten    --     12.0466               138.7207                 4.8234

                     94                     95                     96
                      A                      A                      A
 Frequencies --   1545.1551              1550.0306              1557.8284
 Red. masses --      1.0504                 1.4705                 1.8936
 Frc consts  --      1.4776                 2.0815                 2.7075
 IR Inten    --      2.1207                11.4054               259.6281

                     97                     98                     99
                      A                      A                      A
 Frequencies --   1658.6835              1688.3616              3006.0607
 Red. masses --      6.0655                 6.9807                 1.0821
 Frc consts  --      9.8321                11.7241                 5.7615
 IR Inten    --     11.7850                16.7359                25.5715

                    100                    101                    102
                      A                      A                      A
 Frequencies --   3015.9560              3020.1130              3030.2185
 Red. masses --      1.0664                 1.0713                 1.0682
 Frc consts  --      5.7151                 5.7570                 5.7792
 IR Inten    --     10.2225                 8.5124                28.8605

                    103                    104                    105
                      A                      A                      A
 Frequencies --   3039.5092              3042.7667              3042.8026
 Red. masses --      1.0731                 1.0641                 1.0415
 Frc consts  --      5.8412                 5.8046                 5.6813
 IR Inten    --     53.6632                44.8054                47.5774

                    106                    107                    108
                      A                      A                      A
 Frequencies --   3046.9593              3050.1495              3052.1750
 Red. masses --      1.0385                 1.0576                 1.0465
 Frc consts  --      5.6804                 5.7971                 5.7441
 IR Inten    --     34.6163                30.0656                12.3187

                    109                    110                    111
                      A                      A                      A
 Frequencies --   3059.3631              3073.3015              3085.1192
 Red. masses --      1.0956                 1.0951                 1.0999
 Frc consts  --      6.0418                 6.0941                 6.1681
 IR Inten    --     66.4956                28.6059                25.1453

                    112                    113                    114
                      A                      A                      A
 Frequencies --   3099.1095              3103.8027              3109.6512
 Red. masses --      1.0951                 1.1008                 1.1010
 Frc consts  --      6.1968                 6.2478                 6.2726
 IR Inten    --     29.2657                38.1246                52.4563

                    115                    116                    117
                      A                      A                      A
 Frequencies --   3115.6683              3119.6900              3128.4019
 Red. masses --      1.1014                 1.1019                 1.1024
 Frc consts  --      6.2993                 6.3186                 6.3568
 IR Inten    --     49.3526                43.4458                35.5884

                    118                    119                    120
                      A                      A                      A
 Frequencies --   3129.4059              3132.1879              3167.8254
 Red. masses --      1.0995                 1.0993                 1.0900
 Frc consts  --      6.3439                 6.3543                 6.4444
 IR Inten    --     45.8296                44.7305                18.8916

                    121                    122                    123
                      A                      A                      A
 Frequencies --   3211.2642              3229.1450              3585.8803
 Red. masses --      1.0883                 1.0923                 1.0758
 Frc consts  --      6.6125                 6.7110                 8.1502
 IR Inten    --     13.1209                14.4098                 9.2399

 - Thermochemistry -
 -------------------
 Temperature   298.150 Kelvin.  Pressure   1.00000 Atm.
 Atom     1 has atomic number  6 and mass  12.00000

 Molecular mass:   247.19361 amu.
 Principal axes and moments of inertia in atomic units:
                           1         2         3
     Eigenvalues --  1863.32490********************
           X            0.99997  -0.00730   0.00153
           Y            0.00729   0.99996   0.00452
           Z           -0.00156  -0.00451   0.99999
 This molecule is an asymmetric top.
 Rotational symmetry number  1.
 Warning -- assumption of classical behavior for rotation
           may cause significant error
 Rotational temperatures (Kelvin)      0.04648     0.00726     0.00713
 Rotational constants (GHZ):           0.96856     0.15118     0.14861
 Zero-point vibrational energy    1014283.5 (Joules/Mol)
                                  242.41958 (Kcal/Mol)
 Warning -- explicit consideration of  29 degrees of freedom as
           vibrations may cause significant error
 Vibrational temperatures:     29.19    66.16    70.16    99.44   119.20
          (Kelvin)            147.39   153.58   214.88   242.50   266.08
                              291.92   301.53   313.88   333.66   362.08
                              413.60   421.65   447.13   498.53   523.26
                              586.72   605.44   617.56   621.72   685.49
                              777.52   834.87   844.25   865.95   947.87
                              983.39  1027.98  1100.59  1129.92  1139.19
                             1169.41  1169.86  1185.86  1194.78  1228.47
                             1255.23  1315.78  1339.16  1354.33  1387.69
                             1397.59  1422.55  1435.50  1466.42  1473.64
                             1503.06  1523.79  1540.30  1567.24  1609.84
                             1629.57  1653.92  1695.74  1702.53  1720.23
                             1727.17  1750.01  1776.25  1810.70  1817.06
                             1853.48  1885.69  1894.28  1900.67  1917.66
                             1928.12  1963.24  1981.23  1989.04  2003.78
                             2021.61  2025.71  2035.76  2060.98  2070.94
                             2073.57  2077.84  2111.69  2177.06  2177.16
                             2181.90  2191.41  2197.75  2201.63  2208.01
                             2210.22  2213.79  2220.11  2223.13  2230.15
                             2241.37  2386.48  2429.18  4325.05  4339.29
                             4345.27  4359.81  4373.18  4377.86  4377.91
                             4383.89  4388.48  4391.40  4401.74  4421.80
                             4438.80  4458.93  4465.68  4474.09  4482.75
                             4488.54  4501.07  4502.52  4506.52  4557.79
                             4620.29  4646.02  5159.28

 Zero-point correction=                           0.386320 (Hartree/Particle)
 Thermal correction to Energy=                    0.405203
 Thermal correction to Enthalpy=                  0.406147
 Thermal correction to Gibbs Free Energy=         0.338463
 Sum of electronic and zero-point Energies=           -754.428465
 Sum of electronic and thermal Energies=              -754.409582
 Sum of electronic and thermal Enthalpies=            -754.408638
 Sum of electronic and thermal Free Energies=         -754.476321

                     E (Thermal)             CV                S
                      KCal/Mol        Cal/Mol-Kelvin    Cal/Mol-Kelvin
 Total                  254.269             72.334            142.452
 Electronic               0.000              0.000              0.000
 Translational            0.889              2.981             42.416
 Rotational               0.889              2.981             33.957
 Vibrational            252.491             66.373             66.080
 Vibration     1          0.593              1.986              6.606
 Vibration     2          0.595              1.979              4.983
 Vibration     3          0.595              1.978              4.867
 Vibration     4          0.598              1.969              4.178
 Vibration     5          0.600              1.961              3.822
 Vibration     6          0.605              1.947              3.407
 Vibration     7          0.606              1.944              3.327
 Vibration     8          0.618              1.903              2.681
 Vibration     9          0.625              1.881              2.452
 Vibration    10          0.631              1.860              2.278
 Vibration    11          0.639              1.836              2.107
 Vibration    12          0.642              1.826              2.047
 Vibration    13          0.646              1.813              1.974
 Vibration    14          0.653              1.792              1.864
 Vibration    15          0.664              1.760              1.719
 Vibration    16          0.685              1.697              1.489
 Vibration    17          0.688              1.687              1.456
 Vibration    18          0.700              1.653              1.358
 Vibration    19          0.724              1.582              1.182
 Vibration    20          0.737              1.547              1.106
 Vibration    21          0.772              1.453              0.934
 Vibration    22          0.783              1.425              0.889
 Vibration    23          0.791              1.407              0.861
 Vibration    24          0.793              1.400              0.852
 Vibration    25          0.833              1.302              0.720
 Vibration    26          0.895              1.161              0.564
 Vibration    27          0.937              1.074              0.485
 Vibration    28          0.944              1.060              0.473
 Vibration    29          0.960              1.028              0.446

 Optimization completed.
    -- Stationary point found.
 Normal termination of Gaussian 16 at Fri Dec 11 21:42:47 2020.

 ----------------------------------------------------------------------
 # B3LYP/6-311++G(d,p) empiricaldispersion=gd3bj scf=xqc pop=npa geom=c
 heck
 ----------------------------------------------------------------------

 --------------------------------------
 CID_43732722_JID_8914_Energie_neutraal
 --------------------------------------
 Structure from the checkpoint file:  "JID_8914.chk"
 Charge =  0 Multiplicity = 1

 SCF Done:  E(RB3LYP) =  -755.020158243     A.U. after   15 cycles
 Normal termination of Gaussian 16 at Fri Dec 11 21:50:44 2020.

 ----------------------------------------------------------------------
 # B3LYP/6-311++G(d,p) empiricaldispersion=gd3bj scf=xqc pop=npa geom=c
 heck
 ----------------------------------------------------------------------

 ------------------------------------
 CID_43732722_JID_8914_Energie_kation
 ------------------------------------
 Structure from the checkpoint file:  "JID_8914.chk"
 Charge =  1 Multiplicity = 2

 SCF Done:  E(UB3LYP) =  -754.775422965     A.U. after   20 cycles
 Normal termination of Gaussian 16 at Fri Dec 11 22:05:20 2020.
 Gaussian 16:  ES64L-G16RevA.03 25-Dec-2016

 ----------------------------------------------------------------------
 # B3LYP/6-311++G(d,p) empiricaldispersion=gd3bj scf=xqc pop=npa geom=c
 heck
 ----------------------------------------------------------------------

 -----------------------------------
 CID_43732722_JID_8914_Energie_anion
 -----------------------------------
 Structure from the checkpoint file:  "JID_8914.chk"
 Charge = -1 Multiplicity = 2

                         Standard orientation:
 ---------------------------------------------------------------------
 Center     Atomic      Atomic             Coordinates (Angstroms)
 Number     Number       Type             X           Y           Z
 ---------------------------------------------------------------------
      1          6           0        5.299036   -2.062297   -0.056855
      2          6           0        3.939535   -1.454940   -0.415525
      3          6           0        3.921200    0.083890   -0.457892
      4          6           0        4.905693    0.641006   -1.495480
      5          6           0        2.513477    0.632761   -0.747463
      6          6           0        1.407560    0.250187    0.249096
      7          6           0        1.754547    0.589186    1.714090
      8          6           0        2.078481    2.065076    1.951744
      9          7           0        0.175250    0.924342   -0.158781
     10          6           0       -1.084764    0.337820   -0.011993
     11          6           0       -2.172077    0.872446   -0.738686
     12          6           0       -3.436067    0.331731   -0.582646
     13          6           0       -3.644299   -0.742111    0.285529
     14          6           0       -2.601007   -1.292382    1.010736
     15          6           0       -1.320744   -0.745373    0.853773
     16          8           0       -4.950836   -1.171132    0.315230
     17          6           0       -5.733482   -0.163137   -0.365216
     18          6           0       -4.755121    0.643776   -1.251829
     19          1           0        6.055088   -1.858798   -0.822094
     20          1           0        5.224592   -3.149997    0.050489
     21          1           0        5.670384   -1.659050    0.893603
     22          1           0        3.607534   -1.839911   -1.390996
     23          1           0        3.200509   -1.803881    0.315724
     24          1           0        4.237334    0.449318    0.529834
     25          1           0        4.666910    0.266140   -2.499296
     26          1           0        4.860424    1.735708   -1.529251
     27          1           0        5.938931    0.359966   -1.270590
     28          1           0        2.569775    1.729082   -0.797818
     29          1           0        2.202295    0.293089   -1.746395
     30          1           0        1.249978   -0.836125    0.182260
     31          1           0        0.898248    0.308972    2.337990
     32          1           0        2.591996   -0.041908    2.038712
     33          1           0        1.267197    2.695401    1.573329
     34          1           0        2.199437    2.270796    3.020624
     35          1           0        3.005794    2.367228    1.451580
     36          1           0        0.265107    1.464498   -1.009031
     37          1           0       -2.005700    1.709372   -1.414240
     38          1           0       -2.770344   -2.124429    1.686138
     39          1           0       -0.504813   -1.167908    1.427634
     40          1           0       -6.520381   -0.675079   -0.923254
     41          1           0       -6.195888    0.481848    0.393481
     42          1           0       -5.002581    1.710086   -1.266138
     43          1           0       -4.763679    0.288398   -2.290965
 ---------------------------------------------------------------------

 SCF Done:  E(UB3LYP) =  -755.006817666     A.U. after   33 cycles
 SCF Done:  E(UB3LYP) =  -755.006817666     a.u. after    1 cycles

 The electronic state is 2-A.
 Alpha  occ. eigenvalues --  -19.05756 -14.22546 -10.14164 -10.12672 -10.12042
 Alpha  occ. eigenvalues --  -10.11626 -10.09608 -10.08891 -10.08580 -10.08359
 Alpha  occ. eigenvalues --  -10.08142 -10.07912 -10.07887 -10.07775 -10.07659
 Alpha  occ. eigenvalues --  -10.07100 -10.06777 -10.06754  -0.97756  -0.84456
 Alpha  occ. eigenvalues --   -0.75931  -0.73119  -0.70335  -0.69209  -0.65192
 Alpha  occ. eigenvalues --   -0.64244  -0.64085  -0.61021  -0.56620  -0.55266
 Alpha  occ. eigenvalues --   -0.54090  -0.51688  -0.50587  -0.48010  -0.46357
 Alpha  occ. eigenvalues --   -0.42798  -0.42087  -0.41393  -0.39655  -0.38994
 Alpha  occ. eigenvalues --   -0.38601  -0.36064  -0.35633  -0.34685  -0.34260
 Alpha  occ. eigenvalues --   -0.33350  -0.32351  -0.31641  -0.31134  -0.30882
 Alpha  occ. eigenvalues --   -0.29971  -0.29687  -0.29486  -0.28981  -0.28387
 Alpha  occ. eigenvalues --   -0.27373  -0.27117  -0.26475  -0.25542  -0.25044
 Alpha  occ. eigenvalues --   -0.24302  -0.23982  -0.23321  -0.23016  -0.22161
 Alpha  occ. eigenvalues --   -0.17957  -0.15985  -0.09669   0.03940
 Alpha virt. eigenvalues --    0.05168   0.06236   0.06517   0.06799   0.07009
 Alpha virt. eigenvalues --    0.07632   0.08372   0.08501   0.08782   0.09080
 Alpha virt. eigenvalues --    0.09392   0.09788   0.10356   0.10747   0.10963

  Beta  occ. eigenvalues --  -19.05756 -14.22537 -10.14146 -10.12671 -10.12044
  Beta  occ. eigenvalues --  -10.11625 -10.09582 -10.08887 -10.08572 -10.08352
  Beta  occ. eigenvalues --  -10.08127 -10.07902 -10.07872 -10.07765 -10.07651
  Beta  occ. eigenvalues --  -10.07071 -10.06760 -10.06724  -0.97751  -0.84443
  Beta  occ. eigenvalues --   -0.75916  -0.73097  -0.70306  -0.69190  -0.65164
  Beta  occ. eigenvalues --   -0.64215  -0.64058  -0.60986  -0.56580  -0.55219
  Beta  occ. eigenvalues --   -0.54037  -0.51643  -0.50561  -0.47978  -0.46314
  Beta  occ. eigenvalues --   -0.42771  -0.42064  -0.41373  -0.39630  -0.38972
  Beta  occ. eigenvalues --   -0.38573  -0.36044  -0.35604  -0.34655  -0.34237
  Beta  occ. eigenvalues --   -0.33321  -0.32326  -0.31614  -0.31102  -0.30858
  Beta  occ. eigenvalues --   -0.29944  -0.29664  -0.29454  -0.28953  -0.28355
  Beta  occ. eigenvalues --   -0.27343  -0.27085  -0.26451  -0.25522  -0.25020
  Beta  occ. eigenvalues --   -0.24282  -0.23957  -0.23296  -0.22981  -0.22140
  Beta  occ. eigenvalues --   -0.17932  -0.15945  -0.09645
  Beta virt. eigenvalues --    0.05782   0.06036   0.06697   0.06800   0.07095
  Beta virt. eigenvalues --    0.07393   0.07923   0.08658   0.08730   0.09104
  Beta virt. eigenvalues --    0.09294   0.09696   0.09979   0.10440   0.11029

 Mulliken charges and spin densities:
               1          2
     1  C    0.814082  -1.501913
     2  C   -0.975792   0.737612
     3  C   -0.692291   0.982324
     4  C    1.208836  -1.983598
     5  C    0.825087  -1.310074
     6  C   -1.083326   0.907975
     7  C   -0.616269   0.611974
     8  C    0.124163  -0.776302
     9  N    0.164433   0.102802
    10  C    0.386807  -0.179137
    11  C   -2.290491   2.150465
    12  C    1.277015  -0.272820
    13  C    0.196297  -1.531243
    14  C   -1.418410   0.907628
    15  C    0.547752  -0.551039
    16  O   -0.158915   0.037103
    17  C    0.151410  -0.319985
    18  C    1.570829  -1.940942
    19  H   -0.088210   0.232180
    20  H   -0.093684   0.229730
    21  H   -0.281448   0.426745
    22  H   -0.072188   0.217749
    23  H    0.169512  -0.063712
    24  H    0.318251  -0.164693
    25  H   -0.053615   0.202199
    26  H   -0.275432   0.411306
    27  H   -0.233770   0.377768
    28  H    0.173421  -0.031385
    29  H    0.063932   0.098421
    30  H    0.243191  -0.064984
    31  H    0.121659   0.010280
    32  H   -0.130879   0.302727
    33  H    0.027936   0.148211
    34  H   -0.030290   0.176782
    35  H   -0.117549   0.252020
    36  H   -0.118050   0.428960
    37  H   -0.356089   0.478683
    38  H    0.090308   0.083756
    39  H    0.020234   0.114527
    40  H   -0.124528   0.294909
    41  H    0.026321   0.127241
    42  H   -0.154809   0.316581
    43  H   -0.155443   0.323168
 Sum of Mulliken charges =  -1.00000   1.00000

 Dipole moment (field-independent basis, Debye):
    X=             -2.8026    Y=             -1.1587    Z=              2.3919  Tot=              3.8624
 Quadrupole moment (field-independent basis, Debye-Ang):
   XX=           -247.1634   YY=           -155.0790   ZZ=           -153.2205
   XY=              1.2389   XZ=             -3.9335   YZ=              1.1472

 Summary of Natural Population Analysis:

                                       Natural Population
                Natural  -----------------------------------------------
    Atom  No    Charge         Core      Valence    Rydberg      Total
 -----------------------------------------------------------------------
      C    1   -0.28355      0.99967     2.27963    0.00425     3.28355
      C    2   -0.18930      0.99962     2.18105    0.00863     3.18930
      C    3   -0.11469      0.99960     2.10464    0.01045     3.11469
      C    4   -0.28447      0.99965     2.27837    0.00645     3.28447
      C    5   -0.19120      0.99960     2.18167    0.00993     3.19120
      C    6   -0.00787      0.99958     1.99669    0.01159     3.00787
      C    7   -0.19504      0.99961     2.18729    0.00813     3.19504
      C    8   -0.28937      0.99966     2.28512    0.00459     3.28937
      N    9   -0.31845      0.99967     2.80789    0.01089     3.81845
      C   10    0.08610      0.99950     1.90379    0.01061     2.91390
      C   11   -0.11044      0.99949     2.10184    0.00912     3.11044
      C   12   -0.03422      0.99948     2.02501    0.00973     3.03422
      C   13    0.13890      0.99931     1.84878    0.01302     2.86110
      C   14   -0.11578      0.99952     2.10801    0.00825     3.11578
      C   15   -0.12699      0.99954     2.12046    0.00699     3.12699
      O   16   -0.28047      0.99987     3.27277    0.00782     4.28047
      C   17   -0.00603      0.99960     1.99421    0.01221     3.00603
      C   18   -0.20854      0.99962     2.20093    0.00800     3.20854
      H   19    0.09756      0.00000     0.40128    0.00116     0.40244
      H   20    0.09803      0.00000     0.40107    0.00091     0.40197
      H   21    0.09664      0.00000     0.40211    0.00125     0.40336
      H   22    0.09358      0.00000     0.40536    0.00106     0.40642
      H   23    0.09516      0.00000     0.40343    0.00141     0.40484
      H   24    0.09413      0.00000     0.40380    0.00207     0.40587
      H   25    0.09633      0.00000     0.40262    0.00105     0.40367
      H   26    0.10053      0.00000     0.39841    0.00106     0.39947
      H   27    0.10115      0.00000     0.39784    0.00101     0.39885
      H   28    0.10022      0.00000     0.39836    0.00142     0.39978
      H   29    0.09981      0.00000     0.39891    0.00128     0.40019
      H   30    0.09113      0.00000     0.40595    0.00293     0.40887
      H   31    0.09864      0.00000     0.40007    0.00129     0.40136
      H   32    0.09624      0.00000     0.40261    0.00114     0.40376
      H   33    0.10272      0.00000     0.39603    0.00126     0.39728
      H   34    0.09796      0.00000     0.40119    0.00085     0.40204
      H   35    0.09603      0.00000     0.40289    0.00108     0.40397
      H   36    0.18510      0.00000     0.31206    0.00284     0.31490
      H   37    0.10060      0.00000     0.39782    0.00158     0.39940
      H   38    0.10291      0.00000     0.39586    0.00123     0.39709
      H   39    0.10113      0.00000     0.39751    0.00137     0.39887
      H   40    0.09066      0.00000     0.40794    0.00140     0.40934
      H   41    0.08144      0.00000     0.41725    0.00131     0.41856
      H   42    0.10795      0.00000     0.39075    0.00130     0.39205
      H   43    0.10575      0.00000     0.39252    0.00173     0.39425
 =======================================================================
   * Total *   -0.00000     17.99258    49.81179    0.19563    68.00000

 Normal termination of Gaussian 16 at Fri Dec 11 22:29:50 2020.
