 Gaussian 16, Revision A.03,

 -----------------------------------------------------------
 # opt freq B3LYP/6-31G(d) empiricaldispersion=gd3bj scf=xqc
 -----------------------------------------------------------

 ------------------------------
 CID_23057694_JID_1029_neutraal
 ------------------------------
 Symbolic Z-matrix:
 Charge =  0 Multiplicity = 1

 SCF Done:  E(RB3LYP) =  -856.905864093     A.U. after   14 cycles
 SCF Done:  E(RB3LYP) =  -856.911759980     A.U. after   12 cycles
 SCF Done:  E(RB3LYP) =  -856.912034883     A.U. after   12 cycles
 SCF Done:  E(RB3LYP) =  -856.912246519     A.U. after   12 cycles
 SCF Done:  E(RB3LYP) =  -856.912813777     A.U. after   12 cycles
 SCF Done:  E(RB3LYP) =  -856.913078343     A.U. after   12 cycles
 SCF Done:  E(RB3LYP) =  -856.913351989     A.U. after   12 cycles
 SCF Done:  E(RB3LYP) =  -856.913445754     A.U. after   12 cycles
 SCF Done:  E(RB3LYP) =  -856.913546803     A.U. after   12 cycles
 SCF Done:  E(RB3LYP) =  -856.913565414     A.U. after   10 cycles
 SCF Done:  E(RB3LYP) =  -856.913579872     A.U. after   10 cycles
 SCF Done:  E(RB3LYP) =  -856.913579072     A.U. after   10 cycles
 SCF Done:  E(RB3LYP) =  -856.913581589     A.U. after   10 cycles
 SCF Done:  E(RB3LYP) =  -856.913582085     A.U. after    8 cycles
 SCF Done:  E(RB3LYP) =  -856.913581877     A.U. after    8 cycles
 Optimization completed.
    -- Stationary point found.
 Normal termination of Gaussian 16 at Tue Dec  8 19:12:55 2020.

 --------------------------------------------------------------------
 #N Geom=AllCheck Guess=TCheck SCRF=Check GenChk RB3LYP/6-31G(d) Freq
 --------------------------------------------------------------------

 Structure from the checkpoint file:  "JID_1029.chk"
 ------------------------------
 CID_23057694_JID_1029_neutraal
 ------------------------------
 Charge =  0 Multiplicity = 1

 SCF Done:  E(RB3LYP) =  -856.913581877     A.U. after    1 cycles

  Exact polarizability: 140.801   3.769  81.493  -3.098  -3.970  93.928
 Approx polarizability: 188.569   9.453 115.192   2.089  -7.355 163.376

                      1                      2                      3
                      A                      A                      A
 Frequencies --     18.5088                56.2120                79.3449
 Red. masses --      4.9591                 3.1813                 4.5429
 Frc consts  --      0.0010                 0.0059                 0.0169
 IR Inten    --      0.9401                 1.4281                 7.8664

                      4                      5                      6
                      A                      A                      A
 Frequencies --     97.2702               122.3603               165.5458
 Red. masses --      2.3360                 5.9677                 2.7498
 Frc consts  --      0.0130                 0.0526                 0.0444
 IR Inten    --      0.7522                 2.3544                 1.2178

                      7                      8                      9
                      A                      A                      A
 Frequencies --    228.9086               249.8472               271.4366
 Red. masses --      2.0448                 2.1820                 3.7307
 Frc consts  --      0.0631                 0.0803                 0.1619
 IR Inten    --      3.8373                 2.0199                 1.5204

                     10                     11                     12
                      A                      A                      A
 Frequencies --    301.9072               369.5734               393.8548
 Red. masses --      1.6009                 3.0884                 1.5260
 Frc consts  --      0.0860                 0.2485                 0.1395
 IR Inten    --      0.7111                45.8297               102.2713

                     13                     14                     15
                      A                      A                      A
 Frequencies --    442.7271               446.6674               498.9549
 Red. masses --      2.5876                 2.9686                 6.3958
 Frc consts  --      0.2988                 0.3490                 0.9381
 IR Inten    --      3.9531                27.0871                16.8698

                     16                     17                     18
                      A                      A                      A
 Frequencies --    549.8416               645.0449               650.6705
 Red. masses --      1.3645                 3.3473                 4.1091
 Frc consts  --      0.2431                 0.8206                 1.0250
 IR Inten    --     71.5936                13.6854                 6.5600

                     19                     20                     21
                      A                      A                      A
 Frequencies --    702.4019               748.9361               791.3823
 Red. masses --      5.0732                 4.2054                 1.3169
 Frc consts  --      1.4747                 1.3898                 0.4859
 IR Inten    --      1.8402                 9.9761                11.5548

                     22                     23                     24
                      A                      A                      A
 Frequencies --    838.2124               864.8753               899.5395
 Red. masses --      1.3130                 1.8009                 1.7065
 Frc consts  --      0.5435                 0.7937                 0.8136
 IR Inten    --     20.0846                 4.6719                 4.6948

                     25                     26                     27
                      A                      A                      A
 Frequencies --    973.2525               992.5953              1030.6855
 Red. masses --      1.7735                 3.8962                 6.5756
 Frc consts  --      0.9897                 2.2617                 4.1157
 IR Inten    --     35.2753                11.3090                62.9190

                     28                     29                     30
                      A                      A                      A
 Frequencies --   1059.2925              1063.1452              1091.8125
 Red. masses --      4.3370                 1.7428                 1.7337
 Frc consts  --      2.8673                 1.1606                 1.2176
 IR Inten    --     25.3610                 1.7169                 3.3222

                     31                     32                     33
                      A                      A                      A
 Frequencies --   1117.0169              1166.4920              1193.4529
 Red. masses --      1.5373                 1.8328                 1.5650
 Frc consts  --      1.1301                 1.4693                 1.3133
 IR Inten    --      3.7052                19.0956                 9.1199

                     34                     35                     36
                      A                      A                      A
 Frequencies --   1211.9814              1265.6622              1286.0786
 Red. masses --      1.3626                 1.2893                 2.1678
 Frc consts  --      1.1793                 1.2168                 2.1125
 IR Inten    --     19.0109                 0.8915                 6.3779

                     37                     38                     39
                      A                      A                      A
 Frequencies --   1294.3350              1348.4523              1360.7675
 Red. masses --      1.3157                 1.1934                 1.8360
 Frc consts  --      1.2986                 1.2786                 2.0031
 IR Inten    --      1.7669                29.7938                15.3097

                     40                     41                     42
                      A                      A                      A
 Frequencies --   1396.8035              1399.7823              1431.4159
 Red. masses --      2.0078                 1.7484                 1.4154
 Frc consts  --      2.3080                 2.0185                 1.7086
 IR Inten    --     30.7461                12.6372                42.2473

                     43                     44                     45
                      A                      A                      A
 Frequencies --   1441.7191              1444.9561              1480.0536
 Red. masses --      2.7893                 1.2696                 3.3914
 Frc consts  --      3.4159                 1.5618                 4.3771
 IR Inten    --     83.5782                 5.4468                74.9258

                     46                     47                     48
                      A                      A                      A
 Frequencies --   1493.9477              1510.1119              1527.5464
 Red. masses --      1.1353                 1.0770                 1.0581
 Frc consts  --      1.4929                 1.4470                 1.4547
 IR Inten    --     12.7544                 0.6200                10.6813

                     49                     50                     51
                      A                      A                      A
 Frequencies --   1529.6709              1539.0415              1625.4673
 Red. masses --      1.0888                 1.0534                 4.9878
 Frc consts  --      1.5010                 1.4700                 7.7645
 IR Inten    --      0.1115                 9.2072                 8.3750

                     52                     53                     54
                      A                      A                      A
 Frequencies --   3029.1156              3029.3861              3056.9674
 Red. masses --      1.0648                 1.0645                 1.0355
 Frc consts  --      5.7565                 5.7558                 5.7014
 IR Inten    --     87.5442                10.0413                19.4192

                     55                     56                     57
                      A                      A                      A
 Frequencies --   3070.9538              3082.3592              3088.5067
 Red. masses --      1.0967                 1.0994                 1.0624
 Frc consts  --      6.0939                 6.1540                 5.9706
 IR Inten    --     16.7455                31.9081                23.1660

                     58                     59                     60
                      A                      A                      A
 Frequencies --   3122.0101              3132.1158              3146.5952
 Red. masses --      1.1019                 1.1030                 1.1060
 Frc consts  --      6.3280                 6.3750                 6.4520
 IR Inten    --     45.5728                24.2149                 4.0408

                     61                     62                     63
                      A                      A                      A
 Frequencies --   3257.9972              3645.7431              3727.0724
 Red. masses --      1.0969                 1.0804                 1.0661
 Frc consts  --      6.8598                 8.4609                 8.7251
 IR Inten    --     10.0845                61.7937                10.4941

 - Thermochemistry -
 -------------------
 Temperature   298.150 Kelvin.  Pressure   1.00000 Atm.
 Atom     1 has atomic number  6 and mass  12.00000

 Molecular mass:   172.06703 amu.
 Principal axes and moments of inertia in atomic units:
                           1         2         3
     Eigenvalues --  1034.403603486.382103674.18843
           X            0.99981  -0.01951   0.00095
           Y            0.01951   0.99981   0.00200
           Z           -0.00099  -0.00198   1.00000
 This molecule is an asymmetric top.
 Rotational symmetry number  1.
 Warning -- assumption of classical behavior for rotation
           may cause significant error
 Rotational temperatures (Kelvin)      0.08373     0.02484     0.02357
 Rotational constants (GHZ):           1.74472     0.51765     0.49119
 Zero-point vibrational energy     503020.0 (Joules/Mol)
                                  120.22468 (Kcal/Mol)
 Warning -- explicit consideration of  16 degrees of freedom as
           vibrations may cause significant error
 Vibrational temperatures:     26.63    80.88   114.16   139.95   176.05
          (Kelvin)            238.18   329.35   359.47   390.54   434.38
                              531.73   566.67   636.99   642.65   717.88
                              791.10   928.08   936.17  1010.60  1077.55
                             1138.62  1206.00  1244.36  1294.24  1400.29
                             1428.12  1482.93  1524.09  1529.63  1570.87
                             1607.14  1678.32  1717.11  1743.77  1821.01
                             1850.38  1862.26  1940.12  1957.84  2009.69
                             2013.97  2059.49  2074.31  2078.97  2129.47
                             2149.46  2172.71  2197.80  2200.86  2214.34
                             2338.68  4358.22  4358.61  4398.29  4418.42
                             4434.83  4443.67  4491.88  4506.42  4527.25
                             4687.53  5245.41  5362.43

 Zero-point correction=                           0.191590 (Hartree/Particle)
 Thermal correction to Energy=                    0.203589
 Thermal correction to Enthalpy=                  0.204533
 Thermal correction to Gibbs Free Energy=         0.151741
 Sum of electronic and zero-point Energies=           -856.721992
 Sum of electronic and thermal Energies=              -856.709993
 Sum of electronic and thermal Enthalpies=            -856.709049
 Sum of electronic and thermal Free Energies=         -856.761841

                     E (Thermal)             CV                S
                      KCal/Mol        Cal/Mol-Kelvin    Cal/Mol-Kelvin
 Total                  127.754             43.139            111.110
 Electronic               0.000              0.000              0.000
 Translational            0.889              2.981             41.336
 Rotational               0.889              2.981             30.961
 Vibrational            125.976             37.177             38.813
 Vibration     1          0.593              1.986              6.788
 Vibration     2          0.596              1.975              4.586
 Vibration     3          0.600              1.963              3.907
 Vibration     4          0.603              1.951              3.508
 Vibration     5          0.610              1.930              3.063
 Vibration     6          0.624              1.885              2.485
 Vibration     7          0.652              1.797              1.887
 Vibration     8          0.663              1.763              1.732
 Vibration     9          0.675              1.726              1.587
 Vibration    10          0.694              1.670              1.406
 Vibration    11          0.742              1.535              1.082
 Vibration    12          0.761              1.483              0.986
 Vibration    13          0.802              1.377              0.818
 Vibration    14          0.806              1.368              0.806
 Vibration    15          0.854              1.252              0.661
 Vibration    16          0.905              1.140              0.544

 Optimization completed.
    -- Stationary point found.
 Normal termination of Gaussian 16 at Tue Dec  8 19:17:05 2020.

 ----------------------------------------------------------------------
 # B3LYP/6-311++G(d,p) empiricaldispersion=gd3bj scf=xqc pop=npa geom=c
 heck
 ----------------------------------------------------------------------

 --------------------------------------
 CID_23057694_JID_1029_Energie_neutraal
 --------------------------------------
 Structure from the checkpoint file:  "JID_1029.chk"
 Charge =  0 Multiplicity = 1

 SCF Done:  E(RB3LYP) =  -857.081440567     A.U. after   14 cycles
 Normal termination of Gaussian 16 at Tue Dec  8 19:18:36 2020.

 ----------------------------------------------------------------------
 # B3LYP/6-311++G(d,p) empiricaldispersion=gd3bj scf=xqc pop=npa geom=c
 heck
 ----------------------------------------------------------------------

 ------------------------------------
 CID_23057694_JID_1029_Energie_kation
 ------------------------------------
 Structure from the checkpoint file:  "JID_1029.chk"
 Charge =  1 Multiplicity = 2

 SCF Done:  E(UB3LYP) =  -856.796022774     A.U. after   21 cycles
 Normal termination of Gaussian 16 at Tue Dec  8 19:21:34 2020.
 Gaussian 16:  ES64L-G16RevA.03 25-Dec-2016

 ----------------------------------------------------------------------
 # B3LYP/6-311++G(d,p) empiricaldispersion=gd3bj scf=xqc pop=npa geom=c
 heck
 ----------------------------------------------------------------------

 -----------------------------------
 CID_23057694_JID_1029_Energie_anion
 -----------------------------------
 Structure from the checkpoint file:  "JID_1029.chk"
 Charge = -1 Multiplicity = 2

                         Standard orientation:
 ---------------------------------------------------------------------
 Center     Atomic      Atomic             Coordinates (Angstroms)
 Number     Number       Type             X           Y           Z
 ---------------------------------------------------------------------
      1          6           0       -1.851990    2.039922   -0.153879
      2          6           0       -3.067684    1.138311    0.069785
      3          6           0       -2.826930   -0.339995   -0.240380
      4         16           0       -1.578692   -1.162883    0.840276
      5          6           0       -0.111748   -0.761768   -0.055636
      6          7           0        0.019000   -0.649230   -1.363424
      7          6           0        1.339776   -0.305914   -1.569699
      8          6           0        2.023576   -0.233001   -0.380060
      9          7           0        1.073017   -0.529598    0.586514
     10          6           0        3.435141    0.069926   -0.012409
     11          8           0        3.522985    1.037199    1.037649
     12          1           0       -1.044916    1.794184    0.543902
     13          1           0       -2.118293    3.091433   -0.000556
     14          1           0       -1.456919    1.925949   -1.168580
     15          1           0       -3.423050    1.239592    1.102921
     16          1           0       -3.892379    1.469832   -0.577577
     17          1           0       -3.741180   -0.923380   -0.096661
     18          1           0       -2.479781   -0.489772   -1.265814
     19          1           0        1.726274   -0.144857   -2.567322
     20          1           0        1.216140   -0.456499    1.584048
     21          1           0        3.945320   -0.814663    0.386108
     22          1           0        3.981209    0.384385   -0.913442
     23          1           0        3.077796    1.839240    0.719400
 ---------------------------------------------------------------------

 SCF Done:  E(UB3LYP) =  -857.067923990     A.U. after   33 cycles
 SCF Done:  E(UB3LYP) =  -857.067923990     a.u. after    1 cycles

 The electronic state is 2-A.
 Alpha  occ. eigenvalues --  -88.75812 -19.02102 -14.26653 -14.19685 -10.15262
 Alpha  occ. eigenvalues --  -10.12589 -10.10534 -10.10362 -10.08678 -10.07611
 Alpha  occ. eigenvalues --  -10.05353  -7.84448  -5.80847  -5.80456  -5.79828
 Alpha  occ. eigenvalues --   -0.92817  -0.91417  -0.77626  -0.72364  -0.67769
 Alpha  occ. eigenvalues --   -0.63835  -0.58633  -0.55675  -0.51190  -0.49917
 Alpha  occ. eigenvalues --   -0.47428  -0.43523  -0.39199  -0.36534  -0.36120
 Alpha  occ. eigenvalues --   -0.35299  -0.34954  -0.32622  -0.32027  -0.31146
 Alpha  occ. eigenvalues --   -0.30254  -0.26131  -0.25110  -0.24849  -0.24815
 Alpha  occ. eigenvalues --   -0.22635  -0.19889  -0.18535  -0.17629  -0.17071
 Alpha  occ. eigenvalues --   -0.11178   0.04561
 Alpha virt. eigenvalues --    0.06259   0.07688   0.08030   0.08497   0.09318
 Alpha virt. eigenvalues --    0.09517   0.10049   0.11076   0.11253   0.12061
 Alpha virt. eigenvalues --    0.12567   0.13027   0.13743   0.14103   0.14474

  Beta  occ. eigenvalues --  -88.75806 -19.02043 -14.26617 -14.19687 -10.15250
  Beta  occ. eigenvalues --  -10.12549 -10.10524 -10.10368 -10.08653 -10.07594
  Beta  occ. eigenvalues --  -10.05323  -7.84441  -5.80843  -5.80451  -5.79817
  Beta  occ. eigenvalues --   -0.92742  -0.91340  -0.77588  -0.72337  -0.67726
  Beta  occ. eigenvalues --   -0.63779  -0.58555  -0.55613  -0.51133  -0.49865
  Beta  occ. eigenvalues --   -0.47374  -0.43457  -0.39125  -0.36485  -0.36076
  Beta  occ. eigenvalues --   -0.35231  -0.34911  -0.32585  -0.31956  -0.31119
  Beta  occ. eigenvalues --   -0.30225  -0.26097  -0.25077  -0.24792  -0.24768
  Beta  occ. eigenvalues --   -0.22608  -0.19846  -0.18499  -0.17599  -0.17017
  Beta  occ. eigenvalues --   -0.11121
  Beta virt. eigenvalues --    0.06722   0.07320   0.08362   0.08637   0.09294
  Beta virt. eigenvalues --    0.09703   0.09842   0.10525   0.11319   0.11531
  Beta virt. eigenvalues --    0.12398   0.12877   0.13020   0.13848   0.14308

 Mulliken charges and spin densities:
               1          2
     1  C    0.071369  -0.697457
     2  C    0.035668  -0.139056
     3  C   -0.020080  -0.293419
     4  S    0.745391  -0.949875
     5  C    0.328305  -0.453403
     6  N   -0.084827   0.054794
     7  C   -0.237187   0.252451
     8  C   -1.046283   1.236871
     9  N   -0.255386   0.239236
    10  C    2.010936  -2.735488
    11  O   -0.278186   0.034455
    12  H   -0.041774   0.181812
    13  H   -0.559440   0.725783
    14  H    0.174723  -0.022813
    15  H   -0.053481   0.169215
    16  H   -0.227284   0.362325
    17  H   -0.104705   0.312169
    18  H    0.190676  -0.009505
    19  H   -0.462801   0.625677
    20  H   -0.041824   0.360943
    21  H   -0.360402   0.531638
    22  H   -0.526786   0.705217
    23  H   -0.256623   0.508430
 Sum of Mulliken charges =  -1.00000   1.00000

 Dipole moment (field-independent basis, Debye):
    X=             -3.7052    Y=             -4.2298    Z=             -0.1350  Tot=              5.6248
 Quadrupole moment (field-independent basis, Debye-Ang):
   XX=           -144.8166   YY=           -116.3918   ZZ=           -104.7279
   XY=             -2.1788   XZ=             -1.0138   YZ=             -2.6698

 Summary of Natural Population Analysis:

                                       Natural Population
                Natural  -----------------------------------------------
    Atom  No    Charge         Core      Valence    Rydberg      Total
 -----------------------------------------------------------------------
      C    1   -0.28969      0.99966     2.28386    0.00616     3.28969
      C    2   -0.19563      0.99963     2.18681    0.00919     3.19563
      C    3   -0.24174      0.99958     2.23272    0.00945     3.24174
      S    4    0.10842      4.99953     2.87355    0.01850     7.89158
      C    5    0.11003      0.99957     1.86810    0.02230     2.88997
      N    6   -0.27405      0.99967     2.76318    0.01119     3.77405
      C    7   -0.02224      0.99950     2.00844    0.01429     3.02224
      C    8    0.03465      0.99953     1.95109    0.01473     2.96535
      N    9   -0.27574      0.99962     2.76623    0.00990     3.77574
      C   10   -0.02256      0.99956     2.01079    0.01221     3.02256
      O   11   -0.36859      0.99991     3.36173    0.00695     4.36859
      H   12    0.10095      0.00000     0.39718    0.00187     0.39905
      H   13    0.09985      0.00000     0.39880    0.00135     0.40015
      H   14    0.10149      0.00000     0.39706    0.00145     0.39851
      H   15    0.09539      0.00000     0.40320    0.00141     0.40461
      H   16    0.09661      0.00000     0.40203    0.00136     0.40339
      H   17    0.10322      0.00000     0.39554    0.00124     0.39678
      H   18    0.11551      0.00000     0.38231    0.00218     0.38449
      H   19    0.09867      0.00000     0.40012    0.00121     0.40133
      H   20    0.21143      0.00000     0.28575    0.00282     0.28857
      H   21    0.09148      0.00000     0.40639    0.00213     0.40852
      H   22    0.08894      0.00000     0.40821    0.00285     0.41106
      H   23    0.23358      0.00000     0.25423    0.01219     0.26642
 =======================================================================
   * Total *    0.00000     14.99574    30.83732    0.16694    46.00000

 Normal termination of Gaussian 16 at Tue Dec  8 19:26:15 2020.
