 Gaussian 16, Revision A.03,

 -----------------------------------------------------------
 # opt freq B3LYP/6-31G(d) empiricaldispersion=gd3bj scf=xqc
 -----------------------------------------------------------

 -------------------------------
 CID_114548453_JID_3431_neutraal
 -------------------------------
 Symbolic Z-matrix:
 Charge =  0 Multiplicity = 1

 SCF Done:  E(RB3LYP) =  -899.652890813     A.U. after   14 cycles
 SCF Done:  E(RB3LYP) =  -899.659951022     A.U. after   12 cycles
 SCF Done:  E(RB3LYP) =  -899.660698627     A.U. after   11 cycles
 SCF Done:  E(RB3LYP) =  -899.660998504     A.U. after   11 cycles
 SCF Done:  E(RB3LYP) =  -899.661120457     A.U. after   11 cycles
 SCF Done:  E(RB3LYP) =  -899.661186348     A.U. after   10 cycles
 SCF Done:  E(RB3LYP) =  -899.661210049     A.U. after   10 cycles
 SCF Done:  E(RB3LYP) =  -899.661214106     A.U. after   10 cycles
 SCF Done:  E(RB3LYP) =  -899.661215800     A.U. after    8 cycles
 SCF Done:  E(RB3LYP) =  -899.661219583     A.U. after    9 cycles
 SCF Done:  E(RB3LYP) =  -899.661223879     A.U. after   10 cycles
 SCF Done:  E(RB3LYP) =  -899.661226063     A.U. after    9 cycles
 SCF Done:  E(RB3LYP) =  -899.661227306     A.U. after    9 cycles
 SCF Done:  E(RB3LYP) =  -899.661227471     A.U. after    7 cycles
 SCF Done:  E(RB3LYP) =  -899.661227580     A.U. after    7 cycles
 SCF Done:  E(RB3LYP) =  -899.661227669     A.U. after    7 cycles
 Optimization completed.
    -- Stationary point found.
 Normal termination of Gaussian 16 at Wed Dec  9 23:18:33 2020.

 --------------------------------------------------------------------
 #N Geom=AllCheck Guess=TCheck SCRF=Check GenChk RB3LYP/6-31G(d) Freq
 --------------------------------------------------------------------

 Structure from the checkpoint file:  "JID_3431.chk"
 -------------------------------
 CID_114548453_JID_3431_neutraal
 -------------------------------
 Charge =  0 Multiplicity = 1

 SCF Done:  E(RB3LYP) =  -899.661227669     A.U. after    1 cycles

  Exact polarizability: 172.363   5.252 124.595   1.981  -1.691 101.409
 Approx polarizability: 202.092   7.295 212.989   3.830  -4.951 152.500

                      1                      2                      3
                      A                      A                      A
 Frequencies --     24.0222                43.8859                53.9639
 Red. masses --      2.8137                 3.3741                 3.5682
 Frc consts  --      0.0010                 0.0038                 0.0061
 IR Inten    --      0.0457                 0.2841                 0.9911

                      4                      5                      6
                      A                      A                      A
 Frequencies --     86.1040               118.0850               163.9357
 Red. masses --      3.7708                 3.2879                 2.9382
 Frc consts  --      0.0165                 0.0270                 0.0465
 IR Inten    --      1.0525                 0.0871                 0.4109

                      7                      8                      9
                      A                      A                      A
 Frequencies --    226.0738               241.2662               243.3060
 Red. masses --      1.0748                 2.6375                 1.1787
 Frc consts  --      0.0324                 0.0905                 0.0411
 IR Inten    --      0.3205                 2.8042                 1.3910

                     10                     11                     12
                      A                      A                      A
 Frequencies --    253.4710               279.2324               335.7598
 Red. masses --      3.5740                 2.4857                 3.0517
 Frc consts  --      0.1353                 0.1142                 0.2027
 IR Inten    --      2.7756                 3.9131                 2.0148

                     13                     14                     15
                      A                      A                      A
 Frequencies --    369.6097               387.1624               414.4793
 Red. masses --      2.2293                 2.0184                 2.5326
 Frc consts  --      0.1794                 0.1783                 0.2563
 IR Inten    --      1.2573                 2.5587                 2.7102

                     16                     17                     18
                      A                      A                      A
 Frequencies --    468.7947               477.1332               515.7477
 Red. masses --      2.1590                 2.2516                 2.5173
 Frc consts  --      0.2796                 0.3020                 0.3945
 IR Inten    --     14.2402                78.7457                44.1263

                     19                     20                     21
                      A                      A                      A
 Frequencies --    610.2438               619.3861               641.4788
 Red. masses --      4.3633                 6.2208                 4.9176
 Frc consts  --      0.9573                 1.4061                 1.1923
 IR Inten    --      6.6781                 6.1798                13.1998

                     22                     23                     24
                      A                      A                      A
 Frequencies --    659.3304               686.9647               782.4260
 Red. masses --      3.9668                 2.9145                 1.8192
 Frc consts  --      1.0160                 0.8104                 0.6562
 IR Inten    --      0.6755                 7.6699                 4.6177

                     25                     26                     27
                      A                      A                      A
 Frequencies --    793.0691               840.9373               867.6034
 Red. masses --      3.7783                 2.8381                 2.2801
 Frc consts  --      1.4001                 1.1825                 1.0112
 IR Inten    --      5.9275                 1.8425                 1.4079

                     28                     29                     30
                      A                      A                      A
 Frequencies --    904.7136               926.5462               944.3482
 Red. masses --      2.0647                 1.9386                 2.0061
 Frc consts  --      0.9957                 0.9806                 1.0541
 IR Inten    --      5.1697                 1.1591                 0.1968

                     31                     32                     33
                      A                      A                      A
 Frequencies --    957.0210               983.2395              1004.0695
 Red. masses --      1.3830                 1.4507                 2.3968
 Frc consts  --      0.7463                 0.8263                 1.4237
 IR Inten    --      3.2361                 0.7489                 3.3363

                     34                     35                     36
                      A                      A                      A
 Frequencies --   1026.3947              1048.5732              1052.4104
 Red. masses --      2.0183                 2.0676                 1.6432
 Frc consts  --      1.2527                 1.3394                 1.0723
 IR Inten    --     12.6658                25.8934                11.3059

                     37                     38                     39
                      A                      A                      A
 Frequencies --   1067.2969              1104.7392              1119.4600
 Red. masses --      2.0483                 1.7611                 2.1220
 Frc consts  --      1.3747                 1.2664                 1.5668
 IR Inten    --     65.5981                18.4083                 1.2053

                     40                     41                     42
                      A                      A                      A
 Frequencies --   1121.9062              1140.9521              1159.4210
 Red. masses --      2.3948                 1.9195                 1.6638
 Frc consts  --      1.7760                 1.4722                 1.3178
 IR Inten    --      8.4761                 2.6644                13.0239

                     43                     44                     45
                      A                      A                      A
 Frequencies --   1207.1848              1226.1569              1243.5419
 Red. masses --      1.5915                 1.2333                 1.6018
 Frc consts  --      1.3665                 1.0925                 1.4594
 IR Inten    --      2.0633                 5.5294                17.0345

                     46                     47                     48
                      A                      A                      A
 Frequencies --   1250.9124              1270.3047              1302.0805
 Red. masses --      1.4895                 2.2651                 1.4377
 Frc consts  --      1.3732                 2.1535                 1.4361
 IR Inten    --      2.3158               113.8971                 7.3814

                     49                     50                     51
                      A                      A                      A
 Frequencies --   1312.3798              1321.6983              1329.3387
 Red. masses --      1.2664                 1.3386                 1.2800
 Frc consts  --      1.2851                 1.3778                 1.3326
 IR Inten    --     12.2116                 7.9988                17.7824

                     52                     53                     54
                      A                      A                      A
 Frequencies --   1335.5420              1355.9350              1368.8179
 Red. masses --      1.2630                 1.4713                 1.4245
 Frc consts  --      1.3273                 1.5938                 1.5726
 IR Inten    --     27.9520                 7.8006                 0.5395

                     55                     56                     57
                      A                      A                      A
 Frequencies --   1385.2569              1396.8578              1408.3341
 Red. masses --      1.3919                 1.4185                 1.3830
 Frc consts  --      1.5737                 1.6308                 1.6161
 IR Inten    --      7.8733                 5.0513                15.7364

                     58                     59                     60
                      A                      A                      A
 Frequencies --   1440.5757              1444.2311              1514.4362
 Red. masses --      1.2424                 1.2620                 1.0941
 Frc consts  --      1.5191                 1.5509                 1.4785
 IR Inten    --      3.0127                 5.1865                 2.2519

                     61                     62                     63
                      A                      A                      A
 Frequencies --   1515.0120              1520.3235              1524.2822
 Red. masses --      1.0743                 1.0572                 1.0842
 Frc consts  --      1.4528                 1.4397                 1.4842
 IR Inten    --      0.3864                 6.5630                14.1238

                     64                     65                     66
                      A                      A                      A
 Frequencies --   1527.9808              1530.8779              1532.7429
 Red. masses --      1.1326                 1.0489                 1.0652
 Frc consts  --      1.5580                 1.4483                 1.4744
 IR Inten    --     57.9397                 9.4825                 1.8194

                     67                     68                     69
                      A                      A                      A
 Frequencies --   1536.5503              1540.7158              1713.0764
 Red. masses --      1.4105                 1.0873                 8.4113
 Frc consts  --      1.9621                 1.5207                14.5434
 IR Inten    --    165.9237                 4.7926               264.1142

                     70                     71                     72
                      A                      A                      A
 Frequencies --   3002.2011              3023.7631              3044.1014
 Red. masses --      1.0703                 1.0700                 1.0562
 Frc consts  --      5.6837                 5.7642                 5.7667
 IR Inten    --     57.2789                30.9169                29.3902

                     73                     74                     75
                      A                      A                      A
 Frequencies --   3045.9370              3050.7581              3061.5430
 Red. masses --      1.0484                 1.0369                 1.0801
 Frc consts  --      5.7307                 5.6861                 5.9650
 IR Inten    --     10.9166                32.4213                63.1207

                     76                     77                     78
                      A                      A                      A
 Frequencies --   3063.7689              3082.2513              3082.4826
 Red. masses --      1.0851                 1.0831                 1.0748
 Frc consts  --      6.0009                 6.0625                 6.0170
 IR Inten    --      7.5474                15.5477                44.8260

                     79                     80                     81
                      A                      A                      A
 Frequencies --   3092.7289              3099.5760              3111.6081
 Red. masses --      1.0987                 1.0922                 1.0989
 Frc consts  --      6.1919                 6.1826                 6.2685
 IR Inten    --     22.2534                 6.2988                37.2253

                     82                     83                     84
                      A                      A                      A
 Frequencies --   3111.9253              3115.1704              3115.8681
 Red. masses --      1.1018                 1.0974                 1.1000
 Frc consts  --      6.2867                 6.2747                 6.2923
 IR Inten    --     40.3328                32.9822                20.1211

                     85                     86                     87
                      A                      A                      A
 Frequencies --   3129.3698              3134.0344              3588.2539
 Red. masses --      1.0994                 1.1035                 1.0760
 Frc consts  --      6.3433                 6.3857                 8.1626
 IR Inten    --     39.3235                25.7296                15.6837

 - Thermochemistry -
 -------------------
 Temperature   298.150 Kelvin.  Pressure   1.00000 Atm.
 Atom     1 has atomic number  6 and mass  12.00000

 Molecular mass:   198.11907 amu.
 Principal axes and moments of inertia in atomic units:
                           1         2         3
     Eigenvalues --   852.078986202.029216472.51502
           X            0.99998   0.00626   0.00088
           Y           -0.00625   0.99993  -0.01010
           Z           -0.00094   0.01010   0.99995
 This molecule is an asymmetric top.
 Rotational symmetry number  1.
 Warning -- assumption of classical behavior for rotation
           may cause significant error
 Rotational temperatures (Kelvin)      0.10165     0.01397     0.01338
 Rotational constants (GHZ):           2.11804     0.29099     0.27883
 Zero-point vibrational energy     722395.2 (Joules/Mol)
                                  172.65661 (Kcal/Mol)
 Warning -- explicit consideration of  20 degrees of freedom as
           vibrations may cause significant error
 Vibrational temperatures:     34.56    63.14    77.64   123.88   169.90
          (Kelvin)            235.87   325.27   347.13   350.06   364.69
                              401.75   483.08   531.79   557.04   596.34
                              674.49   686.49   742.05   878.00   891.16
                              922.94   948.63   988.39  1125.74  1141.05
                             1209.92  1248.29  1301.68  1333.09  1358.71
                             1376.94  1414.66  1444.63  1476.75  1508.66
                             1514.18  1535.60  1589.47  1610.65  1614.17
                             1641.58  1668.15  1736.87  1764.17  1789.18
                             1799.78  1827.69  1873.40  1888.22  1901.63
                             1912.62  1921.55  1950.89  1969.42  1993.08
                             2009.77  2026.28  2072.67  2077.93  2178.94
                             2179.76  2187.41  2193.10  2198.42  2202.59
                             2205.28  2210.75  2216.75  2464.73  4319.50
                             4350.52  4379.78  4382.42  4389.36  4404.88
                             4408.08  4434.67  4435.00  4449.75  4459.60
                             4476.91  4477.37  4482.04  4483.04  4502.47
                             4509.18  5162.70

 Zero-point correction=                           0.275146 (Hartree/Particle)
 Thermal correction to Energy=                    0.288807
 Thermal correction to Enthalpy=                  0.289751
 Thermal correction to Gibbs Free Energy=         0.233413
 Sum of electronic and zero-point Energies=           -899.386082
 Sum of electronic and thermal Energies=              -899.372421
 Sum of electronic and thermal Enthalpies=            -899.371476
 Sum of electronic and thermal Free Energies=         -899.427815

                     E (Thermal)             CV                S
                      KCal/Mol        Cal/Mol-Kelvin    Cal/Mol-Kelvin
 Total                  181.229             51.775            118.575
 Electronic               0.000              0.000              0.000
 Translational            0.889              2.981             41.756
 Rotational               0.889              2.981             31.903
 Vibrational            179.452             45.814             44.915
 Vibration     1          0.593              1.985              6.270
 Vibration     2          0.595              1.980              5.075
 Vibration     3          0.596              1.976              4.667
 Vibration     4          0.601              1.959              3.747
 Vibration     5          0.608              1.934              3.131
 Vibration     6          0.623              1.887              2.504
 Vibration     7          0.650              1.801              1.910
 Vibration     8          0.658              1.777              1.794
 Vibration     9          0.659              1.774              1.779
 Vibration    10          0.665              1.757              1.706
 Vibration    11          0.680              1.712              1.538
 Vibration    12          0.717              1.604              1.232
 Vibration    13          0.742              1.535              1.081
 Vibration    14          0.756              1.498              1.011
 Vibration    15          0.778              1.439              0.911
 Vibration    16          0.826              1.319              0.741
 Vibration    17          0.834              1.301              0.718
 Vibration    18          0.871              1.215              0.620
 Vibration    19          0.969              1.010              0.432
 Vibration    20          0.979              0.991              0.417

 Optimization completed.
    -- Stationary point found.
 Normal termination of Gaussian 16 at Wed Dec  9 23:26:48 2020.

 ----------------------------------------------------------------------
 # B3LYP/6-311++G(d,p) empiricaldispersion=gd3bj scf=xqc pop=npa geom=c
 heck
 ----------------------------------------------------------------------

 ---------------------------------------
 CID_114548453_JID_3431_Energie_neutraal
 ---------------------------------------
 Structure from the checkpoint file:  "JID_3431.chk"
 Charge =  0 Multiplicity = 1

 SCF Done:  E(RB3LYP) =  -899.826580820     A.U. after   14 cycles
 Normal termination of Gaussian 16 at Wed Dec  9 23:31:01 2020.

 ----------------------------------------------------------------------
 # B3LYP/6-311++G(d,p) empiricaldispersion=gd3bj scf=xqc pop=npa geom=c
 heck
 ----------------------------------------------------------------------

 -------------------------------------
 CID_114548453_JID_3431_Energie_kation
 -------------------------------------
 Structure from the checkpoint file:  "JID_3431.chk"
 Charge =  1 Multiplicity = 2

 SCF Done:  E(UB3LYP) =  -899.534794499     A.U. after   24 cycles
 Normal termination of Gaussian 16 at Wed Dec  9 23:41:08 2020.
 Gaussian 16:  ES64L-G16RevA.03 25-Dec-2016

 ----------------------------------------------------------------------
 # B3LYP/6-311++G(d,p) empiricaldispersion=gd3bj scf=xqc pop=npa geom=c
 heck
 ----------------------------------------------------------------------

 ------------------------------------
 CID_114548453_JID_3431_Energie_anion
 ------------------------------------
 Structure from the checkpoint file:  "JID_3431.chk"
 Charge = -1 Multiplicity = 2

                         Standard orientation:
 ---------------------------------------------------------------------
 Center     Atomic      Atomic             Coordinates (Angstroms)
 Number     Number       Type             X           Y           Z
 ---------------------------------------------------------------------
      1          6           0       -4.369627    0.836022   -0.913966
      2          6           0       -3.877354   -0.316504   -0.029915
      3          6           0       -3.332464    0.179358    1.327656
      4          6           0       -1.877413    0.619983    1.042206
      5          6           0       -1.461188   -0.109796   -0.274321
      6          6           0       -2.649107   -1.025175   -0.627288
      7          7           0       -0.217412   -0.868738   -0.202607
      8          6           0        0.974110   -0.205648   -0.136958
      9          7           0        1.120419    1.059477   -0.260478
     10          6           0        2.527253    1.420955   -0.330362
     11          6           0        3.394992    0.355184    0.380723
     12         16           0        2.466295   -1.214300    0.067158
     13          6           0        4.836673    0.300984   -0.106767
     14          1           0       -5.224571    1.343604   -0.452935
     15          1           0       -3.587323    1.587514   -1.073173
     16          1           0       -4.684182    0.471710   -1.898807
     17          1           0       -4.703787   -1.023449    0.112197
     18          1           0       -3.943616    0.980214    1.757886
     19          1           0       -3.340411   -0.650977    2.044729
     20          1           0       -1.198957    0.357044    1.859405
     21          1           0       -1.797646    1.702022    0.908428
     22          1           0       -1.305057    0.631583   -1.060514
     23          1           0       -2.517141   -1.999326   -0.133928
     24          1           0       -2.727323   -1.213797   -1.702811
     25          1           0       -0.259874   -1.745270    0.302120
     26          1           0        2.690348    2.402394    0.130267
     27          1           0        2.836761    1.499689   -1.384894
     28          1           0        3.369797    0.526665    1.462674
     29          1           0        5.321016    1.269558    0.067847
     30          1           0        5.417843   -0.461285    0.421513
     31          1           0        4.877118    0.083552   -1.178982
 ---------------------------------------------------------------------

 SCF Done:  E(UB3LYP) =  -899.812338040     A.U. after   31 cycles

 The electronic state is 2-A.
 Alpha  occ. eigenvalues --  -88.75538 -14.23962 -14.19144 -10.16598 -10.11780
 Alpha  occ. eigenvalues --  -10.10929 -10.10645 -10.07962 -10.07571 -10.07028
 Alpha  occ. eigenvalues --  -10.06464 -10.06385 -10.06320  -7.84205  -5.80542
 Alpha  occ. eigenvalues --   -5.80240  -5.79617  -0.87865  -0.81080  -0.74023
 Alpha  occ. eigenvalues --   -0.70738  -0.65262  -0.62963  -0.61203  -0.59242
 Alpha  occ. eigenvalues --   -0.56892  -0.49840  -0.48770  -0.47323  -0.45137
 Alpha  occ. eigenvalues --   -0.40968  -0.39553  -0.38034  -0.37355  -0.34364
 Alpha  occ. eigenvalues --   -0.33561  -0.33422  -0.32768  -0.31497  -0.30568
 Alpha  occ. eigenvalues --   -0.29897  -0.29352  -0.28211  -0.27192  -0.25212
 Alpha  occ. eigenvalues --   -0.24427  -0.23477  -0.23157  -0.22857  -0.22669
 Alpha  occ. eigenvalues --   -0.22178  -0.16799  -0.14996  -0.13174   0.04195
 Alpha virt. eigenvalues --    0.05360   0.07057   0.07828   0.07867   0.08351
 Alpha virt. eigenvalues --    0.08504   0.08973   0.10024   0.10162   0.10444
 Alpha virt. eigenvalues --    0.10768   0.11174   0.11281   0.11786   0.12494

  Beta  occ. eigenvalues --  -88.75535 -14.23949 -14.19141 -10.16595 -10.11767
  Beta  occ. eigenvalues --  -10.10927 -10.10632 -10.07924 -10.07557 -10.07006
  Beta  occ. eigenvalues --  -10.06441 -10.06375 -10.06293  -7.84201  -5.80539
  Beta  occ. eigenvalues --   -5.80236  -5.79614  -0.87848  -0.81064  -0.73994
  Beta  occ. eigenvalues --   -0.70711  -0.65236  -0.62929  -0.61161  -0.59192
  Beta  occ. eigenvalues --   -0.56842  -0.49789  -0.48741  -0.47279  -0.45081
  Beta  occ. eigenvalues --   -0.40918  -0.39524  -0.38001  -0.37324  -0.34330
  Beta  occ. eigenvalues --   -0.33530  -0.33388  -0.32728  -0.31459  -0.30538
  Beta  occ. eigenvalues --   -0.29872  -0.29327  -0.28168  -0.27156  -0.25186
  Beta  occ. eigenvalues --   -0.24404  -0.23444  -0.23125  -0.22817  -0.22638
  Beta  occ. eigenvalues --   -0.22145  -0.16791  -0.14981  -0.13163
  Beta virt. eigenvalues --    0.06251   0.06446   0.07580   0.08176   0.08303
  Beta virt. eigenvalues --    0.08855   0.09066   0.09272   0.10293   0.10477
  Beta virt. eigenvalues --    0.10850   0.10979   0.11381   0.11495   0.11982

 Mulliken charges and spin densities:
               1          2
     1  C    0.974525  -1.660463
     2  C   -1.202725   1.640716
     3  C    0.836356  -1.437833
     4  C   -0.144900   0.036384
     5  C   -0.833169   0.152920
     6  C    0.715701  -1.173037
     7  N    0.264027   0.048565
     8  C   -0.171389   0.148932
     9  N    0.025236   0.045884
    10  C    0.217056  -0.952492
    11  C   -0.750627   1.101801
    12  S   -0.006262  -0.268719
    13  C    1.049745  -1.741491
    14  H   -0.183854   0.322280
    15  H   -0.071301   0.212604
    16  H   -0.065788   0.200023
    17  H   -0.649508   0.883003
    18  H   -0.120492   0.283896
    19  H   -0.217547   0.361550
    20  H    0.037789   0.147311
    21  H    0.103418   0.067954
    22  H    0.247043   0.010340
    23  H   -0.260344   0.372373
    24  H   -0.075013   0.258629
    25  H    0.190237   0.043467
    26  H    0.033266   0.120833
    27  H    0.003558   0.178488
    28  H   -0.208142   0.441299
    29  H   -0.361750   0.507080
    30  H   -0.331487   0.484744
    31  H   -0.043661   0.162958
 Sum of Mulliken charges =  -1.00000   1.00000

 Dipole moment (field-independent basis, Debye):
    X=              1.5498    Y=              0.2126    Z=             -1.5744  Tot=              2.2194
 Quadrupole moment (field-independent basis, Debye-Ang):
   XX=           -205.4589   YY=           -124.5924   ZZ=           -121.2342
   XY=             -9.0311   XZ=             -2.9175   YZ=              0.5147

 Summary of Natural Population Analysis:

                                       Natural Population
                Natural  -----------------------------------------------
    Atom  No    Charge         Core      Valence    Rydberg      Total
 -----------------------------------------------------------------------
      C    1   -0.28611      0.99965     2.27968    0.00678     3.28611
      C    2   -0.11352      0.99961     2.10261    0.01130     3.11352
      C    3   -0.19126      0.99962     2.18272    0.00891     3.19126
      C    4   -0.19836      0.99962     2.19029    0.00844     3.19836
      C    5   -0.01222      0.99958     1.99921    0.01343     3.01222
      C    6   -0.18949      0.99960     2.17985    0.01004     3.18949
      N    7   -0.31724      0.99963     2.80538    0.01223     3.81724
      C    8    0.16990      0.99957     1.81042    0.02011     2.83010
      N    9   -0.28640      0.99963     2.77546    0.01132     3.78640
      C   10   -0.09493      0.99959     2.08179    0.01355     3.09493
      C   11   -0.16349      0.99959     2.15068    0.01322     3.16349
      S   12    0.07969      4.99955     2.90453    0.01622     7.92031
      C   13   -0.29041      0.99963     2.28353    0.00724     3.29041
      H   14    0.10004      0.00000     0.39901    0.00095     0.39996
      H   15    0.09551      0.00000     0.40347    0.00103     0.40449
      H   16    0.09912      0.00000     0.39999    0.00089     0.40088
      H   17    0.10034      0.00000     0.39733    0.00233     0.39966
      H   18    0.09920      0.00000     0.39977    0.00103     0.40080
      H   19    0.09918      0.00000     0.39917    0.00165     0.40082
      H   20    0.10335      0.00000     0.39561    0.00104     0.39665
      H   21    0.10215      0.00000     0.39667    0.00118     0.39785
      H   22    0.10468      0.00000     0.39348    0.00184     0.39532
      H   23    0.09828      0.00000     0.40016    0.00156     0.40172
      H   24    0.10278      0.00000     0.39625    0.00097     0.39722
      H   25    0.19109      0.00000     0.30657    0.00234     0.30891
      H   26    0.09862      0.00000     0.39989    0.00149     0.40138
      H   27    0.08955      0.00000     0.40918    0.00126     0.41045
      H   28    0.10031      0.00000     0.39799    0.00170     0.39969
      H   29    0.10516      0.00000     0.39301    0.00183     0.39484
      H   30    0.10386      0.00000     0.39488    0.00126     0.39614
      H   31    0.10064      0.00000     0.39807    0.00129     0.39936
 =======================================================================
   * Total *    0.00000     16.99488    36.82667    0.17845    54.00000

 Normal termination of Gaussian 16 at Wed Dec  9 23:54:07 2020.
