 Gaussian 16, Revision A.03,

 -----------------------------------------------------------
 # opt freq B3LYP/6-31G(d) empiricaldispersion=gd3bj scf=xqc
 -----------------------------------------------------------

 -------------------------------
 CID_124795852_JID_4925_neutraal
 -------------------------------
 Symbolic Z-matrix:
 Charge =  0 Multiplicity = 1

 SCF Done:  E(RB3LYP) =  -771.809543114     A.U. after   16 cycles
 SCF Done:  E(RB3LYP) =  -771.820018730     A.U. after   15 cycles
 SCF Done:  E(RB3LYP) =  -771.807174512     A.U. after   17 cycles
 SCF Done:  E(RB3LYP) =  -771.821536054     A.U. after   15 cycles
 SCF Done:  E(RB3LYP) =  -771.810514610     A.U. after   17 cycles
 SCF Done:  E(RB3LYP) =  -771.822377690     A.U. after   15 cycles
 SCF Done:  E(RB3LYP) =  -771.823061007     A.U. after   15 cycles
 SCF Done:  E(RB3LYP) =  -771.824223651     A.U. after   17 cycles
 SCF Done:  E(RB3LYP) =  -771.824997791     A.U. after   14 cycles
 SCF Done:  E(RB3LYP) =  -771.825621499     A.U. after   14 cycles
 SCF Done:  E(RB3LYP) =  -771.826173616     A.U. after   13 cycles
 SCF Done:  E(RB3LYP) =  -771.826232874     A.U. after   14 cycles
 SCF Done:  E(RB3LYP) =  -771.826243910     A.U. after   12 cycles
 SCF Done:  E(RB3LYP) =  -771.826245288     A.U. after   10 cycles
 SCF Done:  E(RB3LYP) =  -771.826245595     A.U. after    9 cycles
 Optimization completed.
    -- Stationary point found.
 Normal termination of Gaussian 16 at Thu Dec 10 10:58:10 2020.

 --------------------------------------------------------------------
 #N Geom=AllCheck Guess=TCheck SCRF=Check GenChk RB3LYP/6-31G(d) Freq
 --------------------------------------------------------------------

 Structure from the checkpoint file:  "JID_4925.chk"
 -------------------------------
 CID_124795852_JID_4925_neutraal
 -------------------------------
 Charge =  0 Multiplicity = 1

 SCF Done:  E(RB3LYP) =  -771.826245595     A.U. after    3 cycles

  Exact polarizability: 143.161   2.877 112.665  -3.462  -2.409  51.298
 Approx polarizability: 228.280  -0.693 211.107 -17.182 -10.876  94.470

                      1                      2                      3
                      A                      A                      A
 Frequencies --     41.6571                47.2743                74.7277
 Red. masses --     14.2679                13.9704                 3.9669
 Frc consts  --      0.0146                 0.0184                 0.0131
 IR Inten    --      0.3447                 0.9730                 0.1737

                      4                      5                      6
                      A                      A                      A
 Frequencies --    112.3149               149.9645               155.2337
 Red. masses --      4.6297                 7.9181                12.5975
 Frc consts  --      0.0344                 0.1049                 0.1789
 IR Inten    --      3.4562                 2.5954                 2.3768

                      7                      8                      9
                      A                      A                      A
 Frequencies --    182.2959               235.3478               297.6658
 Red. masses --      4.7702                 1.1531                 5.9659
 Frc consts  --      0.0934                 0.0376                 0.3114
 IR Inten    --      1.0070                 0.2750                 1.3708

                     10                     11                     12
                      A                      A                      A
 Frequencies --    317.9168               339.8158               375.0126
 Red. masses --      5.7177                11.7765                 7.8076
 Frc consts  --      0.3405                 0.8012                 0.6469
 IR Inten    --      1.2003                 0.7534                 0.6280

                     13                     14                     15
                      A                      A                      A
 Frequencies --    399.9321               483.3084               522.4502
 Red. masses --      5.2690                 6.2159                 6.3543
 Frc consts  --      0.4965                 0.8555                 1.0219
 IR Inten    --      2.4923                 1.6156                 1.5426

                     16                     17                     18
                      A                      A                      A
 Frequencies --    552.8088               620.8567               643.1137
 Red. masses --      6.7755                 7.1343                 7.0759
 Frc consts  --      1.2199                 1.6202                 1.7243
 IR Inten    --      0.2623                 3.1669                23.3541

                     19                     20                     21
                      A                      A                      A
 Frequencies --    694.6850               733.9693               767.1509
 Red. masses --      7.2626                 7.7175                 7.6173
 Frc consts  --      2.0650                 2.4495                 2.6413
 IR Inten    --     41.2786                21.5292                 8.0060

                     22                     23                     24
                      A                      A                      A
 Frequencies --    795.7931               819.7996               845.0941
 Red. masses --      9.4933                 8.8941                13.4422
 Frc consts  --      3.5421                 3.5218                 5.6563
 IR Inten    --      2.0370                17.7443                35.8510

                     25                     26                     27
                      A                      A                      A
 Frequencies --    860.2970               935.0237               985.0518
 Red. masses --      1.5462                 9.1556                 1.3188
 Frc consts  --      0.6742                 4.7161                 0.7540
 IR Inten    --     29.7866                35.1831                 0.0433

                     28                     29                     30
                      A                      A                      A
 Frequencies --   1053.8389              1138.9899              1177.2786
 Red. masses --      7.7273                 2.1202                 1.8329
 Frc consts  --      5.0562                 1.6206                 1.4967
 IR Inten    --     35.1667                85.2240                 5.2248

                     31                     32                     33
                      A                      A                      A
 Frequencies --   1182.5349              1204.0967              1219.7220
 Red. masses --      1.2659                 3.9688                 1.3399
 Frc consts  --      1.0430                 3.3902                 1.1745
 IR Inten    --      0.9666                 8.5426                 2.5801

                     34                     35                     36
                      A                      A                      A
 Frequencies --   1336.0492              1369.7751              1394.8796
 Red. masses --      3.3523                 8.0472                13.7330
 Frc consts  --      3.5257                 8.8960                15.7430
 IR Inten    --    303.3093                73.0544               194.1953

                     37                     38                     39
                      A                      A                      A
 Frequencies --   1426.7899              1461.5832              1481.7351
 Red. masses --     10.7057                 4.9591                 1.6916
 Frc consts  --     12.8406                 6.2416                 2.1882
 IR Inten    --     74.8034                55.0890               106.4228

                     40                     41                     42
                      A                      A                      A
 Frequencies --   1523.3669              1524.3912              1527.4751
 Red. masses --      2.0131                 1.0557                 1.0621
 Frc consts  --      2.7525                 1.4454                 1.4601
 IR Inten    --     76.4814                11.0732                12.8706

                     43                     44                     45
                      A                      A                      A
 Frequencies --   1621.1787              1642.4523              1675.5750
 Red. masses --      8.1962                 7.6521                11.9049
 Frc consts  --     12.6918                12.1622                19.6926
 IR Inten    --     62.5229                53.4350               199.9379

                     46                     47                     48
                      A                      A                      A
 Frequencies --   1676.5156              3048.8092              3119.0222
 Red. masses --     13.3439                 1.0339                 1.1081
 Frc consts  --     22.0978                 5.6624                 6.3513
 IR Inten    --    239.5759                37.0344                25.0208

                     49                     50                     51
                      A                      A                      A
 Frequencies --   3190.4685              3243.7113              3268.1172
 Red. masses --      1.1015                 1.0901                 1.0940
 Frc consts  --      6.6063                 6.7575                 6.8844
 IR Inten    --      8.7909                 2.7500                 3.5034

 - Thermochemistry -
 -------------------
 Temperature   298.150 Kelvin.  Pressure   1.00000 Atm.
 Atom     1 has atomic number  6 and mass  12.00000

 Molecular mass:   199.02292 amu.
 Principal axes and moments of inertia in atomic units:
                           1         2         3
     Eigenvalues --  1610.153143603.536375034.55403
           X            0.99929   0.03772   0.00136
           Y           -0.03772   0.99929   0.00255
           Z           -0.00126  -0.00260   1.00000
 This molecule is an asymmetric top.
 Rotational symmetry number  1.
 Warning -- assumption of classical behavior for rotation
           may cause significant error
 Rotational temperatures (Kelvin)      0.05379     0.02404     0.01720
 Rotational constants (GHZ):           1.12085     0.50083     0.35847
 Zero-point vibrational energy     331945.3 (Joules/Mol)
                                   79.33683 (Kcal/Mol)
 Warning -- explicit consideration of  16 degrees of freedom as
           vibrations may cause significant error
 Vibrational temperatures:     59.94    68.02   107.52   161.60   215.77
          (Kelvin)            223.35   262.28   338.61   428.27   457.41
                              488.92   539.56   575.41   695.37   751.69
                              795.37   893.27   925.30   999.50  1056.02
                             1103.76  1144.97  1179.51  1215.90  1237.78
                             1345.29  1417.27  1516.24  1638.75  1693.84
                             1701.40  1732.43  1754.91  1922.28  1970.80
                             2006.92  2052.83  2102.89  2131.89  2191.79
                             2193.26  2197.70  2332.51  2363.12  2410.78
                             2412.13  4386.56  4487.58  4590.37  4666.98
                             4702.09

 Zero-point correction=                           0.126431 (Hartree/Particle)
 Thermal correction to Energy=                    0.138441
 Thermal correction to Enthalpy=                  0.139385
 Thermal correction to Gibbs Free Energy=         0.086570
 Sum of electronic and zero-point Energies=           -771.699814
 Sum of electronic and thermal Energies=              -771.687805
 Sum of electronic and thermal Enthalpies=            -771.686860
 Sum of electronic and thermal Free Energies=         -771.739676

                     E (Thermal)             CV                S
                      KCal/Mol        Cal/Mol-Kelvin    Cal/Mol-Kelvin
 Total                   86.873             42.705            111.160
 Electronic               0.000              0.000              0.000
 Translational            0.889              2.981             41.770
 Rotational               0.889              2.981             31.747
 Vibrational             85.096             36.743             37.644
 Vibration     1          0.594              1.981              5.179
 Vibration     2          0.595              1.979              4.928
 Vibration     3          0.599              1.966              4.025
 Vibration     4          0.607              1.939              3.229
 Vibration     5          0.618              1.903              2.673
 Vibration     6          0.620              1.897              2.607
 Vibration     7          0.630              1.864              2.305
 Vibration     8          0.655              1.787              1.838
 Vibration     9          0.691              1.678              1.430
 Vibration    10          0.704              1.639              1.321
 Vibration    11          0.720              1.596              1.213
 Vibration    12          0.746              1.523              1.059
 Vibration    13          0.766              1.470              0.963
 Vibration    14          0.839              1.287              0.701
 Vibration    15          0.877              1.200              0.604
 Vibration    16          0.908              1.134              0.538

                           ! Non-Optimized Parameters !
 Normal termination of Gaussian 16 at Thu Dec 10 11:03:47 2020.

 ----------------------------------------------------------------------
 # B3LYP/6-311++G(d,p) empiricaldispersion=gd3bj scf=xqc pop=npa geom=c
 heck
 ----------------------------------------------------------------------

 ---------------------------------------
 CID_124795852_JID_4925_Energie_neutraal
 ---------------------------------------
 Structure from the checkpoint file:  "JID_4925.chk"
 Charge =  0 Multiplicity = 1

 SCF Done:  E(RB3LYP) =  -772.051737269     A.U. after   16 cycles
 Normal termination of Gaussian 16 at Thu Dec 10 11:06:24 2020.

 ----------------------------------------------------------------------
 # B3LYP/6-311++G(d,p) empiricaldispersion=gd3bj scf=xqc pop=npa geom=c
 heck
 ----------------------------------------------------------------------

 -------------------------------------
 CID_124795852_JID_4925_Energie_kation
 -------------------------------------
 Structure from the checkpoint file:  "JID_4925.chk"
 Charge =  1 Multiplicity = 2

 SCF Done:  E(UB3LYP) =  -771.689231448     A.U. after   33 cycles
 SCF Done:  E(UB3LYP) =  -771.689231448     a.u. after    1 cycles
 Normal termination of Gaussian 16 at Thu Dec 10 11:11:04 2020.
 Gaussian 16:  ES64L-G16RevA.03 25-Dec-2016

 ----------------------------------------------------------------------
 # B3LYP/6-311++G(d,p) empiricaldispersion=gd3bj scf=xqc pop=npa geom=c
 heck
 ----------------------------------------------------------------------

 ------------------------------------
 CID_124795852_JID_4925_Energie_anion
 ------------------------------------
 Structure from the checkpoint file:  "JID_4925.chk"
 Charge = -1 Multiplicity = 2

                         Standard orientation:
 ---------------------------------------------------------------------
 Center     Atomic      Atomic             Coordinates (Angstroms)
 Number     Number       Type             X           Y           Z
 ---------------------------------------------------------------------
      1          6           0       -3.120859   -2.093463   -0.114253
      2          8           0       -2.507463   -0.803882   -0.076150
      3          6           0       -1.172862   -0.730985   -0.023859
      4          6           0       -0.575613    0.550541   -0.001158
      5          7           0        0.715965    0.775208    0.003112
      6          6           0        1.516835   -0.277278    0.015348
      7          6           0        1.079616   -1.597098    0.001284
      8          6           0       -0.293089   -1.823274   -0.025169
      9          7           0        2.973019    0.006060    0.040579
     10          8           0        3.330478    1.172022    0.086910
     11          8           0        3.715115   -0.978618    0.014058
     12          7           0       -1.432009    1.762394    0.021873
     13          8           0       -1.191572    2.628285   -0.806648
     14          8           0       -2.301894    1.793139    0.887063
     15          1           0       -4.192661   -1.901804   -0.145225
     16          1           0       -2.873972   -2.669635    0.784431
     17          1           0       -2.816296   -2.646288   -1.010270
     18          1           0        1.794578   -2.408801    0.004915
     19          1           0       -0.671963   -2.837341   -0.047821
 ---------------------------------------------------------------------

 SCF Done:  E(UB3LYP) =  -772.106074647     A.U. after   27 cycles

 The electronic state is 2-A.
 Alpha  occ. eigenvalues --  -19.06711 -19.00964 -19.00932 -18.97893 -18.97542
 Alpha  occ. eigenvalues --  -14.38990 -14.35896 -14.18011 -10.14923 -10.14291
 Alpha  occ. eigenvalues --  -10.12664 -10.11125 -10.08023 -10.07948  -1.08573
 Alpha  occ. eigenvalues --   -1.05753  -0.98963  -0.91587  -0.88730  -0.84609
 Alpha  occ. eigenvalues --   -0.70353  -0.69595  -0.63764  -0.60069  -0.55472
 Alpha  occ. eigenvalues --   -0.50658  -0.46418  -0.44591  -0.42332  -0.40844
 Alpha  occ. eigenvalues --   -0.39470  -0.38731  -0.38299  -0.37621  -0.37109
 Alpha  occ. eigenvalues --   -0.35090  -0.33657  -0.32274  -0.31559  -0.30295
 Alpha  occ. eigenvalues --   -0.25564  -0.25118  -0.19127  -0.18654  -0.17723
 Alpha  occ. eigenvalues --   -0.16143  -0.15757  -0.15271  -0.14467  -0.13121
 Alpha  occ. eigenvalues --   -0.12717   0.01047
 Alpha virt. eigenvalues --    0.03978   0.06095   0.08581   0.08837   0.10174
 Alpha virt. eigenvalues --    0.10902   0.11709   0.13159   0.13449   0.15820
 Alpha virt. eigenvalues --    0.16320   0.17109   0.17418   0.17521   0.18232

  Beta  occ. eigenvalues --  -19.06681 -19.00763 -19.00759 -18.97599 -18.97153
  Beta  occ. eigenvalues --  -14.38712 -14.35494 -14.17445 -10.14924 -10.14230
  Beta  occ. eigenvalues --  -10.12674 -10.11051 -10.08027 -10.07902  -1.08136
  Beta  occ. eigenvalues --   -1.05047  -0.98897  -0.91239  -0.88090  -0.83910
  Beta  occ. eigenvalues --   -0.70053  -0.69294  -0.63577  -0.59420  -0.55171
  Beta  occ. eigenvalues --   -0.50340  -0.45956  -0.44443  -0.41989  -0.40452
  Beta  occ. eigenvalues --   -0.39302  -0.38412  -0.37423  -0.36765  -0.35584
  Beta  occ. eigenvalues --   -0.34801  -0.33311  -0.32133  -0.31364  -0.29578
  Beta  occ. eigenvalues --   -0.25508  -0.24179  -0.18398  -0.18080  -0.16684
  Beta  occ. eigenvalues --   -0.15357  -0.14852  -0.14047  -0.13590  -0.12480
  Beta  occ. eigenvalues --   -0.12249
  Beta virt. eigenvalues --    0.05834   0.06118   0.07395   0.08827   0.09710
  Beta virt. eigenvalues --    0.10399   0.10910   0.11703   0.13435   0.14860
  Beta virt. eigenvalues --    0.15838   0.16359   0.17121   0.17433   0.17544

 Mulliken charges and spin densities:
               1          2
     1  C   -0.260348   0.002626
     2  O   -0.110095   0.004879
     3  C    0.001736   0.016155
     4  C   -0.254789   0.015262
     5  N    0.025867   0.261974
     6  C   -0.236929   0.033315
     7  C    0.252932  -0.038731
     8  C   -0.260652   0.091718
     9  N   -0.274500   0.132174
    10  O   -0.108730   0.115624
    11  O   -0.154990   0.138522
    12  N   -0.425163   0.095818
    13  O   -0.010909   0.071366
    14  O   -0.054050   0.062298
    15  H    0.177892   0.001256
    16  H    0.141149  -0.000116
    17  H    0.139516  -0.000108
    18  H    0.244142   0.002447
    19  H    0.167924  -0.006476
 Sum of Mulliken charges =  -1.00000   1.00000

 Dipole moment (field-independent basis, Debye):
    X=             -7.0430    Y=             -8.2076    Z=             -0.3240  Tot=             10.8200
 Quadrupole moment (field-independent basis, Debye-Ang):
   XX=           -127.5669   YY=            -96.9621   ZZ=            -84.6723
   XY=             12.2074   XZ=              2.0559   YZ=              1.1028

 Summary of Natural Population Analysis:

                                       Natural Population
                Natural  -----------------------------------------------
    Atom  No    Charge         Core      Valence    Rydberg      Total
 -----------------------------------------------------------------------
      C    1   -0.10237      0.99961     2.09472    0.00804     3.10237
      O    2   -0.25888      0.99985     3.24866    0.01038     4.25888
      C    3    0.15631      0.99937     1.83306    0.01127     2.84369
      C    4    0.14125      0.99942     1.84287    0.01646     2.85875
      N    5   -0.11749      0.99959     2.60785    0.01005     3.61749
      C    6    0.15434      0.99943     1.83075    0.01548     2.84566
      C    7   -0.11720      0.99954     2.10785    0.00981     3.11720
      C    8   -0.12329      0.99955     2.11589    0.00784     3.12329
      N    9    0.27568      0.99974     2.19563    0.02895     3.22432
      O   10   -0.17614      0.99989     3.16784    0.00841     4.17614
      O   11   -0.20162      0.99990     3.19352    0.00820     4.20162
      N   12    0.26815      0.99973     2.20227    0.02986     3.23185
      O   13   -0.17740      0.99989     3.16922    0.00829     4.17740
      O   14   -0.19507      0.99990     3.18707    0.00811     4.19507
      H   15    0.09272      0.00000     0.40651    0.00077     0.40728
      H   16    0.08317      0.00000     0.41544    0.00139     0.41683
      H   17    0.08228      0.00000     0.41632    0.00140     0.41772
      H   18    0.11698      0.00000     0.38165    0.00137     0.38302
      H   19    0.09859      0.00000     0.40040    0.00101     0.40141
 =======================================================================
   * Total *    0.00000     13.99540    36.81752    0.18708    51.00000

 Normal termination of Gaussian 16 at Thu Dec 10 11:14:37 2020.
