 Gaussian 16, Revision A.03,

 -----------------------------------------------------------
 # opt freq B3LYP/6-31G(d) empiricaldispersion=gd3bj scf=xqc
 -----------------------------------------------------------

 --------------------------------
 CID_104399974_JID_10945_neutraal
 --------------------------------
 Symbolic Z-matrix:
 Charge =  0 Multiplicity = 1

 SCF Done:  E(RB3LYP) =  -989.271564096     A.U. after   15 cycles
 SCF Done:  E(RB3LYP) =  -989.282983461     A.U. after   13 cycles
 SCF Done:  E(RB3LYP) =  -989.287562679     A.U. after   13 cycles
 SCF Done:  E(RB3LYP) =  -989.290479179     A.U. after   14 cycles
 SCF Done:  E(RB3LYP) =  -989.291549735     A.U. after   14 cycles
 SCF Done:  E(RB3LYP) =  -989.293012958     A.U. after   12 cycles
 SCF Done:  E(RB3LYP) =  -989.293622039     A.U. after   12 cycles
 SCF Done:  E(RB3LYP) =  -989.293988570     A.U. after   12 cycles
 SCF Done:  E(RB3LYP) =  -989.294047615     A.U. after   11 cycles
 SCF Done:  E(RB3LYP) =  -989.294152960     A.U. after   11 cycles
 SCF Done:  E(RB3LYP) =  -989.297396181     A.U. after   11 cycles
 SCF Done:  E(RB3LYP) =  -989.297391573     A.U. after   10 cycles
 SCF Done:  E(RB3LYP) =  -989.297397274     A.U. after   10 cycles
 SCF Done:  E(RB3LYP) =  -989.297397212     A.U. after    8 cycles
 SCF Done:  E(RB3LYP) =  -989.297397316     A.U. after    8 cycles
 SCF Done:  E(RB3LYP) =  -989.297397323     A.U. after    7 cycles
 Optimization completed.
    -- Stationary point found.
 Normal termination of Gaussian 16 at Mon Dec 14 14:43:46 2020.

 --------------------------------------------------------------------
 #N Geom=AllCheck Guess=TCheck SCRF=Check GenChk RB3LYP/6-31G(d) Freq
 --------------------------------------------------------------------

 Structure from the checkpoint file:  "JID_10945.chk"
 --------------------------------
 CID_104399974_JID_10945_neutraal
 --------------------------------
 Charge =  0 Multiplicity = 1

 SCF Done:  E(RB3LYP) =  -989.297397323     A.U. after    1 cycles

  Exact polarizability: 238.935  -9.869 171.465   8.406   0.916 107.061
 Approx polarizability: 283.012  -8.280 275.230  13.061   3.440 157.457

                      1                      2                      3
                      A                      A                      A
 Frequencies --     12.7129                31.5423                34.6734
 Red. masses --      4.4683                 4.5767                 4.0374
 Frc consts  --      0.0004                 0.0027                 0.0029
 IR Inten    --      0.4749                 0.3896                 2.0965

                      4                      5                      6
                      A                      A                      A
 Frequencies --     50.6062                73.2541                88.6476
 Red. masses --      4.0753                 3.6434                 3.1907
 Frc consts  --      0.0061                 0.0115                 0.0148
 IR Inten    --      1.1967                 1.1582                 4.4392

                      7                      8                      9
                      A                      A                      A
 Frequencies --     93.1750               102.5642               109.7396
 Red. masses --      4.0272                 2.6678                 3.1827
 Frc consts  --      0.0206                 0.0165                 0.0226
 IR Inten    --      0.0735                 0.4611                 0.4129

                     10                     11                     12
                      A                      A                      A
 Frequencies --    126.7787               149.2297               167.4465
 Red. masses --      3.8424                 4.8711                 1.2366
 Frc consts  --      0.0364                 0.0639                 0.0204
 IR Inten    --      3.7997                 0.3346                 0.1574

                     13                     14                     15
                      A                      A                      A
 Frequencies --    179.6923               186.7435               214.9790
 Red. masses --      3.5772                 3.1227                 2.7534
 Frc consts  --      0.0681                 0.0642                 0.0750
 IR Inten    --      4.6721                 3.6711                 2.4011

                     16                     17                     18
                      A                      A                      A
 Frequencies --    222.1625               229.0225               241.2308
 Red. masses --      3.0835                 1.3503                 1.0572
 Frc consts  --      0.0897                 0.0417                 0.0362
 IR Inten    --      1.4995                 3.0247                 0.2919

                     19                     20                     21
                      A                      A                      A
 Frequencies --    251.3557               255.8277               268.6438
 Red. masses --      3.9257                 3.6654                 1.9443
 Frc consts  --      0.1461                 0.1413                 0.0827
 IR Inten    --      0.5394                12.2610                 2.5256

                     22                     23                     24
                      A                      A                      A
 Frequencies --    284.6784               307.8491               334.9091
 Red. masses --      1.9546                 3.9182                 2.7704
 Frc consts  --      0.0933                 0.2188                 0.1831
 IR Inten    --      2.7078                 1.6368                 8.2247

                     25                     26                     27
                      A                      A                      A
 Frequencies --    359.8901               429.1501               456.8016
 Red. masses --      4.4328                 4.0538                 5.3316
 Frc consts  --      0.3383                 0.4399                 0.6555
 IR Inten    --      1.7770                 9.7434                 5.9660

                     28                     29                     30
                      A                      A                      A
 Frequencies --    508.8369               543.4655               561.5995
 Red. masses --      4.5642                 3.9161                 5.7796
 Frc consts  --      0.6963                 0.6815                 1.0740
 IR Inten    --      1.1404                 5.3917                 7.5528

                     31                     32                     33
                      A                      A                      A
 Frequencies --    577.5637               586.1430               611.0014
 Red. masses --      1.2091                 3.0466                 3.7179
 Frc consts  --      0.2376                 0.6167                 0.8178
 IR Inten    --     81.4181                39.9819                13.3364

                     34                     35                     36
                      A                      A                      A
 Frequencies --    667.8775               697.0493               699.6771
 Red. masses --      1.4754                 2.3998                 7.4732
 Frc consts  --      0.3878                 0.6870                 2.1555
 IR Inten    --     60.1776                 5.1135                 3.2641

                     37                     38                     39
                      A                      A                      A
 Frequencies --    701.3675               714.8287               757.6588
 Red. masses --      4.3874                 4.2359                 3.1073
 Frc consts  --      1.2716                 1.2753                 1.0509
 IR Inten    --      6.3402                11.2193                46.9355

                     40                     41                     42
                      A                      A                      A
 Frequencies --    770.8671               798.5408               826.0148
 Red. masses --      1.9367                10.5712                 2.5048
 Frc consts  --      0.6781                 3.9716                 1.0069
 IR Inten    --     14.5109                46.5952                 2.7156

                     43                     44                     45
                      A                      A                      A
 Frequencies --    863.7391               923.9130               962.0472
 Red. masses --      1.9904                 2.2976                 2.0470
 Frc consts  --      0.8749                 1.1555                 1.1162
 IR Inten    --     13.7969                 7.0527                19.3233

                     46                     47                     48
                      A                      A                      A
 Frequencies --    968.5544               993.7238              1047.7318
 Red. masses --      4.6411                 9.2271                 3.0356
 Frc consts  --      2.5652                 5.3684                 1.9633
 IR Inten    --     29.5046                 1.7561                15.4649

                     49                     50                     51
                      A                      A                      A
 Frequencies --   1056.7309              1081.3946              1108.2597
 Red. masses --      4.8714                 1.6757                 2.8217
 Frc consts  --      3.2050                 1.1546                 2.0419
 IR Inten    --      6.3843                34.8758                10.5741

                     52                     53                     54
                      A                      A                      A
 Frequencies --   1119.0251              1124.1574              1144.5551
 Red. masses --      2.5152                 1.8475                 3.0083
 Frc consts  --      1.8557                 1.3756                 2.3219
 IR Inten    --     63.5783                25.0662                16.3543

                     55                     56                     57
                      A                      A                      A
 Frequencies --   1161.5231              1175.2981              1185.0511
 Red. masses --      2.3480                 5.5351                 1.2653
 Frc consts  --      1.8664                 4.5048                 1.0469
 IR Inten    --      3.0079               246.8469                 0.2542

                     58                     59                     60
                      A                      A                      A
 Frequencies --   1186.0808              1196.1307              1198.9059
 Red. masses --      1.2715                 1.3405                 1.5197
 Frc consts  --      1.0539                 1.1300                 1.2870
 IR Inten    --      0.8988                 2.3394                75.2744

                     61                     62                     63
                      A                      A                      A
 Frequencies --   1214.0072              1229.0464              1233.5540
 Red. masses --      2.1640                 1.7391                 1.6857
 Frc consts  --      1.8791                 1.5478                 1.5113
 IR Inten    --     96.5066                32.2329                19.1584

                     64                     65                     66
                      A                      A                      A
 Frequencies --   1252.9472              1274.2042              1280.4782
 Red. masses --      2.1718                 1.2171                 1.5373
 Frc consts  --      2.0088                 1.1642                 1.4851
 IR Inten    --    335.0546                 4.2731                 7.0049

                     67                     68                     69
                      A                      A                      A
 Frequencies --   1308.2417              1347.7886              1363.6351
 Red. masses --      1.2845                 4.0299                 2.0195
 Frc consts  --      1.2952                 4.3130                 2.2126
 IR Inten    --     23.1467                34.0592                78.9913

                     70                     71                     72
                      A                      A                      A
 Frequencies --   1375.8408              1410.9986              1419.2795
 Red. masses --      1.3849                 1.4805                 2.1458
 Frc consts  --      1.5446                 1.7367                 2.5467
 IR Inten    --    158.6777               125.1372               287.3959

                     73                     74                     75
                      A                      A                      A
 Frequencies --   1423.0699              1440.2536              1454.3150
 Red. masses --      1.6462                 1.3587                 1.7895
 Frc consts  --      1.9642                 1.6606                 2.2300
 IR Inten    --     45.0665                34.9344                21.0109

                     76                     77                     78
                      A                      A                      A
 Frequencies --   1470.3805              1499.7642              1506.4072
 Red. masses --      1.5536                 1.5459                 1.3452
 Frc consts  --      1.9790                 2.0487                 1.7986
 IR Inten    --    108.5728                82.4147                18.5472

                     79                     80                     81
                      A                      A                      A
 Frequencies --   1509.4567              1510.8631              1516.2491
 Red. masses --      1.0714                 1.4771                 1.0523
 Frc consts  --      1.4383                 1.9866                 1.4254
 IR Inten    --     14.3496               152.9115                 3.3419

                     82                     83                     84
                      A                      A                      A
 Frequencies --   1518.2801              1522.4481              1524.6775
 Red. masses --      1.1939                 1.0475                 1.1087
 Frc consts  --      1.6215                 1.4305                 1.5185
 IR Inten    --     15.3775                 5.8463                 6.8881

                     85                     86                     87
                      A                      A                      A
 Frequencies --   1525.7932              1527.8644              1530.2634
 Red. masses --      1.5139                 1.0863                 1.0667
 Frc consts  --      2.0765                 1.4941                 1.4718
 IR Inten    --     53.5359                23.6593                 9.5823

                     88                     89                     90
                      A                      A                      A
 Frequencies --   1536.3156              1536.7570              1551.8332
 Red. masses --      1.1321                 1.1330                 1.0915
 Frc consts  --      1.5743                 1.5765                 1.5487
 IR Inten    --     22.3042                 8.1443                 0.8464

                     91                     92                     93
                      A                      A                      A
 Frequencies --   1601.3047              1622.5024              1657.0444
 Red. masses --      5.5502                 5.4425                 9.6273
 Frc consts  --      8.3851                 8.4414                15.5749
 IR Inten    --    255.6624               465.0622              1122.6374

                     94                     95                     96
                      A                      A                      A
 Frequencies --   1782.6441              2987.8429              3002.9852
 Red. masses --      8.1443                 1.0514                 1.0399
 Frc consts  --     15.2488                 5.5300                 5.5252
 IR Inten    --    326.8425                28.7478                85.5275

                     97                     98                     99
                      A                      A                      A
 Frequencies --   3018.6713              3036.6489              3037.4761
 Red. masses --      1.0940                 1.0342                 1.0850
 Frc consts  --      5.8735                 5.6189                 5.8979
 IR Inten    --      9.4472                46.8462                96.2807

                    100                    101                    102
                      A                      A                      A
 Frequencies --   3048.5412              3061.1180              3063.9327
 Red. masses --      1.1057                 1.0355                 1.0298
 Frc consts  --      6.0545                 5.7167                 5.6961
 IR Inten    --     48.5702                21.9908                43.2571

                    103                    104                    105
                      A                      A                      A
 Frequencies --   3076.4494              3099.1179              3130.2686
 Red. masses --      1.0835                 1.1069                 1.0993
 Frc consts  --      6.0417                 6.2640                 6.3464
 IR Inten    --     23.1894                37.3097                39.6679

                    106                    107                    108
                      A                      A                      A
 Frequencies --   3133.3303              3136.2114              3147.8841
 Red. masses --      1.1069                 1.0936                 1.0976
 Frc consts  --      6.4026                 6.3376                 6.4080
 IR Inten    --     28.6843                16.5443                25.9962

                    109                    110                    111
                      A                      A                      A
 Frequencies --   3155.5888              3165.7202              3167.3325
 Red. masses --      1.1036                 1.1008                 1.1062
 Frc consts  --      6.4745                 6.4996                 6.5381
 IR Inten    --     13.1760                25.9602                30.9472

                    112                    113                    114
                      A                      A                      A
 Frequencies --   3272.7531              3584.2220              3607.0862
 Red. masses --      1.0919                 1.0752                 1.0766
 Frc consts  --      6.8909                 8.1381                 8.2533
 IR Inten    --      0.8550                55.9207               147.4087

 - Thermochemistry -
 -------------------
 Temperature   298.150 Kelvin.  Pressure   1.00000 Atm.
 Atom     1 has atomic number  6 and mass  12.00000

 Molecular mass:   284.14846 amu.
 Principal axes and moments of inertia in atomic units:
                           1         2         3
     Eigenvalues --  2602.28914********************
           X            0.99998  -0.00541   0.00172
           Y            0.00542   0.99997  -0.00619
           Z           -0.00169   0.00620   0.99998
 This molecule is an asymmetric top.
 Rotational symmetry number  1.
 Warning -- assumption of classical behavior for rotation
           may cause significant error
 Rotational temperatures (Kelvin)      0.03328     0.00603     0.00534
 Rotational constants (GHZ):           0.69352     0.12557     0.11121
 Zero-point vibrational energy     880417.5 (Joules/Mol)
                                  210.42483 (Kcal/Mol)
 Warning -- explicit consideration of  33 degrees of freedom as
           vibrations may cause significant error
 Vibrational temperatures:     18.29    45.38    49.89    72.81   105.40
          (Kelvin)            127.54   134.06   147.57   157.89   182.41
                              214.71   240.92   258.54   268.68   309.31
                              319.64   329.51   347.08   361.64   368.08
                              386.52   409.59   442.93   481.86   517.80
                              617.45   657.24   732.10   781.93   808.02
                              830.99   843.33   879.09   960.93  1002.90
                             1006.68  1009.11  1028.48  1090.10  1109.11
                             1148.92  1188.45  1242.73  1329.30  1384.17
                             1393.53  1429.75  1507.45  1520.40  1555.89
                             1594.54  1610.03  1617.41  1646.76  1671.17
                             1690.99  1705.02  1706.51  1720.97  1724.96
                             1746.69  1768.32  1774.81  1802.71  1833.30
                             1842.32  1882.27  1939.17  1961.97  1979.53
                             2030.11  2042.03  2047.48  2072.20  2092.43
                             2115.55  2157.83  2167.38  2171.77  2173.79
                             2181.54  2184.47  2190.46  2193.67  2195.28
                             2198.26  2201.71  2210.42  2211.05  2232.74
                             2303.92  2334.42  2384.12  2564.83  4298.84
                             4320.63  4343.19  4369.06  4370.25  4386.17
                             4404.27  4408.32  4426.32  4458.94  4503.76
                             4508.16  4512.31  4529.10  4540.19  4554.77
                             4557.09  4708.76  5156.90  5189.79

 Zero-point correction=                           0.335333 (Hartree/Particle)
 Thermal correction to Energy=                    0.356874
 Thermal correction to Enthalpy=                  0.357818
 Thermal correction to Gibbs Free Energy=         0.282333
 Sum of electronic and zero-point Energies=           -988.962064
 Sum of electronic and thermal Energies=              -988.940524
 Sum of electronic and thermal Enthalpies=            -988.939579
 Sum of electronic and thermal Free Energies=         -989.015065

                     E (Thermal)             CV                S
                      KCal/Mol        Cal/Mol-Kelvin    Cal/Mol-Kelvin
 Total                  223.942             77.116            158.872
 Electronic               0.000              0.000              0.000
 Translational            0.889              2.981             42.831
 Rotational               0.889              2.981             34.761
 Vibrational            222.164             71.154             81.280
 Vibration     1          0.593              1.987              7.534
 Vibration     2          0.594              1.983              5.730
 Vibration     3          0.594              1.983              5.542
 Vibration     4          0.595              1.977              4.794
 Vibration     5          0.599              1.967              4.064
 Vibration     6          0.601              1.957              3.690
 Vibration     7          0.602              1.954              3.592
 Vibration     8          0.605              1.947              3.405
 Vibration     9          0.606              1.941              3.274
 Vibration    10          0.611              1.926              2.994
 Vibration    11          0.618              1.904              2.682
 Vibration    12          0.624              1.883              2.464
 Vibration    13          0.629              1.867              2.332
 Vibration    14          0.632              1.858              2.260
 Vibration    15          0.645              1.818              2.001
 Vibration    16          0.648              1.807              1.941
 Vibration    17          0.652              1.797              1.887
 Vibration    18          0.658              1.777              1.794
 Vibration    19          0.663              1.760              1.721
 Vibration    20          0.666              1.753              1.690
 Vibration    21          0.673              1.731              1.605
 Vibration    22          0.683              1.702              1.505
 Vibration    23          0.698              1.659              1.374
 Vibration    24          0.716              1.606              1.236
 Vibration    25          0.734              1.555              1.123
 Vibration    26          0.790              1.407              0.861
 Vibration    27          0.815              1.346              0.775
 Vibration    28          0.864              1.230              0.636
 Vibration    29          0.899              1.154              0.558
 Vibration    30          0.917              1.114              0.521
 Vibration    31          0.934              1.080              0.490
 Vibration    32          0.943              1.061              0.474
 Vibration    33          0.970              1.009              0.431

 Optimization completed.
    -- Stationary point found.
 Normal termination of Gaussian 16 at Mon Dec 14 15:03:41 2020.

 ----------------------------------------------------------------------
 # B3LYP/6-311++G(d,p) empiricaldispersion=gd3bj scf=xqc pop=npa geom=c
 heck
 ----------------------------------------------------------------------

 ----------------------------------------
 CID_104399974_JID_10945_Energie_neutraal
 ----------------------------------------
 Structure from the checkpoint file:  "JID_10945.chk"
 Charge =  0 Multiplicity = 1

 SCF Done:  E(RB3LYP) =  -989.586583368     A.U. after   15 cycles
 Normal termination of Gaussian 16 at Mon Dec 14 15:10:49 2020.

 ----------------------------------------------------------------------
 # B3LYP/6-311++G(d,p) empiricaldispersion=gd3bj scf=xqc pop=npa geom=c
 heck
 ----------------------------------------------------------------------

 --------------------------------------
 CID_104399974_JID_10945_Energie_kation
 --------------------------------------
 Structure from the checkpoint file:  "JID_10945.chk"
 Charge =  1 Multiplicity = 2

 SCF Done:  E(UB3LYP) =  -989.307695863     A.U. after   24 cycles
 Normal termination of Gaussian 16 at Mon Dec 14 15:26:34 2020.
 Gaussian 16:  ES64L-G16RevA.03 25-Dec-2016

 ----------------------------------------------------------------------
 # B3LYP/6-311++G(d,p) empiricaldispersion=gd3bj scf=xqc pop=npa geom=c
 heck
 ----------------------------------------------------------------------

 -------------------------------------
 CID_104399974_JID_10945_Energie_anion
 -------------------------------------
 Structure from the checkpoint file:  "JID_10945.chk"
 Charge = -1 Multiplicity = 2

                         Standard orientation:
 ---------------------------------------------------------------------
 Center     Atomic      Atomic             Coordinates (Angstroms)
 Number     Number       Type             X           Y           Z
 ---------------------------------------------------------------------
      1          6           0       -0.969788    0.223210   -1.940567
      2          6           0       -0.835026   -0.338633   -0.510934
      3          6           0       -1.987959   -1.306884   -0.216506
      4          8           0       -1.827331   -2.521188   -0.294037
      5          7           0       -3.206062   -0.761172    0.057116
      6          6           0       -3.516245    0.608257    0.434835
      7          6           0       -4.976796    0.894040    0.122750
      8          8           0       -5.754007   -0.047302    0.837061
      9          6           0       -7.134490    0.043579    0.546735
     10          7           0        0.387724   -1.085220   -0.338668
     11          6           0        1.604674   -0.524996   -0.138246
     12          7           0        2.634455   -1.369732    0.018980
     13          6           0        3.825263   -0.807066    0.221327
     14          6           0        4.023681    0.576332    0.273654
     15          6           0        2.866006    1.342287    0.094472
     16          7           0        1.659527    0.829132   -0.113166
     17          8           0        3.010051    2.682369    0.137229
     18          6           0        1.831628    3.468051   -0.050496
     19          8           0        4.818831   -1.710218    0.370475
     20          6           0        6.134986   -1.222700    0.592711
     21          1           0       -0.971761   -0.600615   -2.660757
     22          1           0       -0.117720    0.875517   -2.146200
     23          1           0       -1.894610    0.796394   -2.068335
     24          1           0       -0.836176    0.493733    0.200430
     25          1           0       -3.923469   -1.440291    0.286747
     26          1           0       -3.336015    0.778300    1.506033
     27          1           0       -2.892889    1.306831   -0.127291
     28          1           0       -5.232505    1.923380    0.422568
     29          1           0       -5.154599    0.797527   -0.960772
     30          1           0       -7.539049    1.030385    0.819866
     31          1           0       -7.334341   -0.132557   -0.521523
     32          1           0       -7.638141   -0.724883    1.137421
     33          1           0        0.310001   -2.094608   -0.341287
     34          1           0        4.977271    1.055876    0.434488
     35          1           0        1.388966    3.284016   -1.034005
     36          1           0        1.084553    3.245612    0.717055
     37          1           0        2.162612    4.504799    0.029124
     38          1           0        6.482397   -0.610248   -0.248410
     39          1           0        6.193406   -0.634973    1.517075
     40          1           0        6.766621   -2.107407    0.683700
 ---------------------------------------------------------------------

 SCF Done:  E(UB3LYP) =  -989.579958661     A.U. after   31 cycles

 The electronic state is 2-A.
 Alpha  occ. eigenvalues --  -19.08504 -19.08327 -19.05382 -19.01374 -14.25767
 Alpha  occ. eigenvalues --  -14.24528 -14.21993 -14.21376 -10.19707 -10.19493
 Alpha  occ. eigenvalues --  -10.19442 -10.19427 -10.15310 -10.14055 -10.14030
 Alpha  occ. eigenvalues --  -10.13840 -10.13413 -10.13222 -10.08804 -10.08414
 Alpha  occ. eigenvalues --   -1.01027  -1.00591  -0.96919  -0.96463  -0.91640
 Alpha  occ. eigenvalues --   -0.84799  -0.83792  -0.80240  -0.71339  -0.68985
 Alpha  occ. eigenvalues --   -0.67708  -0.65337  -0.63046  -0.60607  -0.58847
 Alpha  occ. eigenvalues --   -0.55714  -0.54374  -0.53694  -0.50244  -0.48409
 Alpha  occ. eigenvalues --   -0.46200  -0.44402  -0.42955  -0.41852  -0.41610
 Alpha  occ. eigenvalues --   -0.40837  -0.40231  -0.39532  -0.38955  -0.38583
 Alpha  occ. eigenvalues --   -0.38468  -0.37529  -0.36514  -0.35871  -0.35252
 Alpha  occ. eigenvalues --   -0.34754  -0.34395  -0.32708  -0.31136  -0.30375
 Alpha  occ. eigenvalues --   -0.29803  -0.29070  -0.28780  -0.28596  -0.27857
 Alpha  occ. eigenvalues --   -0.27399  -0.26540  -0.25511  -0.23376  -0.19717
 Alpha  occ. eigenvalues --   -0.19105  -0.18911  -0.18777  -0.18220  -0.17861
 Alpha  occ. eigenvalues --   -0.13788   0.03386
 Alpha virt. eigenvalues --    0.04430   0.05439   0.06857   0.06925   0.07039
 Alpha virt. eigenvalues --    0.07741   0.07991   0.08078   0.08328   0.08890
 Alpha virt. eigenvalues --    0.09097   0.09390   0.09633   0.10339   0.10675

  Beta  occ. eigenvalues --  -19.08499 -19.08321 -19.05371 -19.01373 -14.25764
  Beta  occ. eigenvalues --  -14.24528 -14.21987 -14.21375 -10.19706 -10.19494
  Beta  occ. eigenvalues --  -10.19439 -10.19427 -10.15283 -10.14025 -10.14014
  Beta  occ. eigenvalues --  -10.13812 -10.13377 -10.13199 -10.08798 -10.08396
  Beta  occ. eigenvalues --   -1.01018  -1.00580  -0.96905  -0.96455  -0.91635
  Beta  occ. eigenvalues --   -0.84787  -0.83788  -0.80234  -0.71327  -0.68953
  Beta  occ. eigenvalues --   -0.67685  -0.65306  -0.63013  -0.60543  -0.58822
  Beta  occ. eigenvalues --   -0.55694  -0.54311  -0.53638  -0.50222  -0.48385
  Beta  occ. eigenvalues --   -0.46187  -0.44383  -0.42927  -0.41804  -0.41592
  Beta  occ. eigenvalues --   -0.40821  -0.40203  -0.39514  -0.38931  -0.38566
  Beta  occ. eigenvalues --   -0.38441  -0.37502  -0.36486  -0.35845  -0.35224
  Beta  occ. eigenvalues --   -0.34737  -0.34368  -0.32689  -0.31104  -0.30348
  Beta  occ. eigenvalues --   -0.29762  -0.29054  -0.28750  -0.28578  -0.27833
  Beta  occ. eigenvalues --   -0.27374  -0.26522  -0.25433  -0.23368  -0.19707
  Beta  occ. eigenvalues --   -0.19078  -0.18904  -0.18769  -0.18213  -0.17850
  Beta  occ. eigenvalues --   -0.13781
  Beta virt. eigenvalues --    0.05011   0.05698   0.06121   0.06970   0.07268
  Beta virt. eigenvalues --    0.07501   0.08038   0.08152   0.08333   0.08585
  Beta virt. eigenvalues --    0.09088   0.09295   0.09646   0.09859   0.10537

 Mulliken charges and spin densities:
               1          2
     1  C    0.143574  -0.509508
     2  C   -0.682859   0.516460
     3  C    0.224502  -0.152755
     4  O   -0.329703   0.001651
     5  N   -0.248771   0.048545
     6  C   -0.314020   0.045560
     7  C    0.930727  -1.350791
     8  O   -0.266454   0.087902
     9  C    0.516726  -0.773742
    10  N   -0.086306   0.018783
    11  C   -0.972657   0.210366
    12  N   -0.361652   0.011717
    13  C    0.164063  -0.171023
    14  C    0.340049  -0.316559
    15  C    0.112967   0.084865
    16  N   -0.167309   0.056710
    17  O   -0.195665   0.037028
    18  C    0.403810  -0.651944
    19  O   -0.065301   0.020008
    20  C    0.460373  -0.673904
    21  H    0.147996   0.023536
    22  H    0.165048   0.004993
    23  H   -0.317388   0.450240
    24  H    0.375979  -0.054290
    25  H    0.351786  -0.010426
    26  H   -0.002163   0.201719
    27  H   -0.102097   0.286136
    28  H   -0.503231   0.688691
    29  H    0.084132   0.076838
    30  H   -0.282958   0.421852
    31  H   -0.220210   0.355261
    32  H   -0.068146   0.205917
    33  H    0.353293   0.007543
    34  H    0.006409   0.212936
    35  H   -0.130898   0.295542
    36  H   -0.164462   0.332449
    37  H   -0.104765   0.271501
    38  H   -0.065457   0.220392
    39  H   -0.062647   0.219631
    40  H   -0.066313   0.250171
 Sum of Mulliken charges =  -1.00000   1.00000

 Dipole moment (field-independent basis, Debye):
    X=              5.0722    Y=             -2.0403    Z=             -0.3659  Tot=              5.4795
 Quadrupole moment (field-independent basis, Debye-Ang):
   XX=           -253.2062   YY=           -179.9113   ZZ=           -147.5087
   XY=             18.1988   XZ=             -0.3070   YZ=             -1.1644

 Summary of Natural Population Analysis:

                                       Natural Population
                Natural  -----------------------------------------------
    Atom  No    Charge         Core      Valence    Rydberg      Total
 -----------------------------------------------------------------------
      C    1   -0.28650      0.99964     2.28088    0.00598     3.28650
      C    2   -0.05347      0.99958     2.04150    0.01239     3.05347
      C    3    0.34773      0.99965     1.62959    0.02302     2.65227
      O    4   -0.32873      0.99988     3.32346    0.00539     4.32873
      N    5   -0.31555      0.99966     2.80651    0.00938     3.81555
      C    6   -0.09792      0.99961     2.08639    0.01192     3.09792
      C    7   -0.01026      0.99959     1.99782    0.01285     3.01026
      O    8   -0.30467      0.99988     3.29513    0.00965     4.30467
      C    9   -0.09615      0.99962     2.08772    0.00881     3.09615
      N   10   -0.30270      0.99964     2.79346    0.00961     3.80270
      C   11    0.31359      0.99961     1.66975    0.01704     2.68641
      N   12   -0.28601      0.99962     2.77683    0.00956     3.78601
      C   13    0.28871      0.99946     1.69513    0.01670     2.71129
      C   14   -0.22892      0.99947     2.22162    0.00783     3.22892
      C   15    0.29766      0.99948     1.68696    0.01591     2.70234
      N   16   -0.31438      0.99963     2.80656    0.00819     3.81438
      O   17   -0.26987      0.99985     3.26078    0.00924     4.26987
      C   18   -0.10245      0.99959     2.09390    0.00896     3.10245
      O   19   -0.26368      0.99985     3.25399    0.00984     4.26368
      C   20   -0.10456      0.99960     2.09580    0.00916     3.10456
      H   21    0.10107      0.00000     0.39791    0.00102     0.39893
      H   22    0.10902      0.00000     0.38983    0.00114     0.39098
      H   23    0.10152      0.00000     0.39736    0.00113     0.39848
      H   24    0.11044      0.00000     0.38692    0.00264     0.38956
      H   25    0.20019      0.00000     0.29675    0.00306     0.29981
      H   26    0.09475      0.00000     0.40373    0.00152     0.40525
      H   27    0.10580      0.00000     0.39237    0.00183     0.39420
      H   28    0.08984      0.00000     0.40657    0.00359     0.41016
      H   29    0.08216      0.00000     0.41578    0.00206     0.41784
      H   30    0.08282      0.00000     0.41544    0.00174     0.41718
      H   31    0.08013      0.00000     0.41844    0.00143     0.41987
      H   32    0.08980      0.00000     0.40927    0.00094     0.41020
      H   33    0.21192      0.00000     0.28541    0.00267     0.28808
      H   34    0.11469      0.00000     0.38381    0.00150     0.38531
      H   35    0.09176      0.00000     0.40689    0.00135     0.40824
      H   36    0.09317      0.00000     0.40544    0.00139     0.40683
      H   37    0.09044      0.00000     0.40855    0.00102     0.40956
      H   38    0.08676      0.00000     0.41198    0.00127     0.41324
      H   39    0.08703      0.00000     0.41171    0.00127     0.41297
      H   40    0.09484      0.00000     0.40420    0.00096     0.40516
 =======================================================================
   * Total *   -0.00000     19.99292    55.75212    0.25497    76.00000

 Normal termination of Gaussian 16 at Mon Dec 14 15:45:43 2020.
