 Gaussian 16, Revision A.03,

 -----------------------------------------------------------
 # opt freq B3LYP/6-31G(d) empiricaldispersion=gd3bj scf=xqc
 -----------------------------------------------------------

 -------------------------------
 CID_134190296_JID_5189_neutraal
 -------------------------------
 Symbolic Z-matrix:
 Charge =  0 Multiplicity = 1

 SCF Done:  E(RB3LYP) =  -691.223711521     A.U. after   14 cycles
 SCF Done:  E(RB3LYP) =  -691.231169656     A.U. after   12 cycles
 SCF Done:  E(RB3LYP) =  -691.231695348     A.U. after   12 cycles
 SCF Done:  E(RB3LYP) =  -691.232190130     A.U. after   11 cycles
 SCF Done:  E(RB3LYP) =  -691.232699516     A.U. after   11 cycles
 SCF Done:  E(RB3LYP) =  -691.233066323     A.U. after   13 cycles
 SCF Done:  E(RB3LYP) =  -691.233744632     A.U. after   11 cycles
 SCF Done:  E(RB3LYP) =  -691.234008379     A.U. after   11 cycles
 SCF Done:  E(RB3LYP) =  -691.234137792     A.U. after   11 cycles
 SCF Done:  E(RB3LYP) =  -691.234100091     A.U. after   11 cycles
 SCF Done:  E(RB3LYP) =  -691.234277291     A.U. after   10 cycles
 SCF Done:  E(RB3LYP) =  -691.234293343     A.U. after   10 cycles
 SCF Done:  E(RB3LYP) =  -691.234299983     A.U. after    9 cycles
 SCF Done:  E(RB3LYP) =  -691.234300475     A.U. after    7 cycles
 SCF Done:  E(RB3LYP) =  -691.234300550     A.U. after    7 cycles
 SCF Done:  E(RB3LYP) =  -691.234300552     A.U. after    6 cycles
 Optimization completed.
    -- Stationary point found.
 Normal termination of Gaussian 16 at Thu Dec 10 14:58:06 2020.

 --------------------------------------------------------------------
 #N Geom=AllCheck Guess=TCheck SCRF=Check GenChk RB3LYP/6-31G(d) Freq
 --------------------------------------------------------------------

 Structure from the checkpoint file:  "JID_5189.chk"
 -------------------------------
 CID_134190296_JID_5189_neutraal
 -------------------------------
 Charge =  0 Multiplicity = 1

 SCF Done:  E(RB3LYP) =  -691.234300552     A.U. after    1 cycles

  Exact polarizability: 141.028   3.367 121.378   0.976  -1.652 119.956
 Approx polarizability: 174.725   4.004 174.160  -0.786  -8.270 194.130

                      1                      2                      3
                      A                      A                      A
 Frequencies --     27.9759                45.1834                65.5122
 Red. masses --      3.6477                 3.4227                 2.6915
 Frc consts  --      0.0017                 0.0041                 0.0068
 IR Inten    --      0.7879                 0.5302                 0.3274

                      4                      5                      6
                      A                      A                      A
 Frequencies --     69.0183                83.9164               118.9541
 Red. masses --      3.0668                 5.3332                 2.8760
 Frc consts  --      0.0086                 0.0221                 0.0240
 IR Inten    --      1.3940                 4.6467                 1.0480

                      7                      8                      9
                      A                      A                      A
 Frequencies --    155.2076               176.9986               240.6676
 Red. masses --      4.0917                 2.6001                 3.9172
 Frc consts  --      0.0581                 0.0480                 0.1337
 IR Inten    --      0.2465                 0.4990                 1.5842

                     10                     11                     12
                      A                      A                      A
 Frequencies --    263.2635               271.8466               312.5900
 Red. masses --      2.3468                 2.2820                 1.1893
 Frc consts  --      0.0958                 0.0994                 0.0685
 IR Inten    --      2.2906                 3.9548               101.0142

                     13                     14                     15
                      A                      A                      A
 Frequencies --    351.2919               397.2514               409.6063
 Red. masses --      2.0658                 3.1332                 2.9767
 Frc consts  --      0.1502                 0.2913                 0.2942
 IR Inten    --      7.1648                12.9926                 2.2473

                     16                     17                     18
                      A                      A                      A
 Frequencies --    438.1077               450.5078               490.3028
 Red. masses --      2.2695                 3.9647                 2.7178
 Frc consts  --      0.2566                 0.4741                 0.3849
 IR Inten    --      2.5041                16.5131                 1.6823

                     19                     20                     21
                      A                      A                      A
 Frequencies --    548.7267               571.3913               601.3323
 Red. masses --      3.1166                 3.5433                 3.2348
 Frc consts  --      0.5529                 0.6816                 0.6892
 IR Inten    --     12.6653                10.8110                 5.4772

                     22                     23                     24
                      A                      A                      A
 Frequencies --    614.2237               638.8769               684.0996
 Red. masses --      1.9573                 2.9589                 2.7364
 Frc consts  --      0.4351                 0.7116                 0.7545
 IR Inten    --      0.2464                 1.3917                 8.8771

                     25                     26                     27
                      A                      A                      A
 Frequencies --    742.0489               810.1978               835.0555
 Red. masses --      2.8041                 1.9863                 1.5589
 Frc consts  --      0.9097                 0.7682                 0.6405
 IR Inten    --     14.3945                 1.5155                41.6238

                     28                     29                     30
                      A                      A                      A
 Frequencies --    849.3829               865.0920               872.0646
 Red. masses --      2.2345                 1.9076                 1.8322
 Frc consts  --      0.9498                 0.8411                 0.8209
 IR Inten    --     10.9797                22.7189                22.6448

                     31                     32                     33
                      A                      A                      A
 Frequencies --    894.0256               912.5494               920.6973
 Red. masses --      2.4684                 1.9283                 2.5384
 Frc consts  --      1.1624                 0.9461                 1.2678
 IR Inten    --     20.1116                 8.9561                 5.2241

                     34                     35                     36
                      A                      A                      A
 Frequencies --    936.1140               956.1698               990.9697
 Red. masses --      2.1016                 2.0749                 2.6877
 Frc consts  --      1.0850                 1.1177                 1.5551
 IR Inten    --      6.6319                52.8439                 8.0194

                     37                     38                     39
                      A                      A                      A
 Frequencies --   1009.6465              1011.9539              1026.5638
 Red. masses --      1.9584                 1.8588                 2.3251
 Frc consts  --      1.1762                 1.1215                 1.4436
 IR Inten    --     20.8709                 2.1801                20.5053

                     40                     41                     42
                      A                      A                      A
 Frequencies --   1051.5108              1078.1628              1102.3920
 Red. masses --      1.6402                 1.8245                 1.8840
 Frc consts  --      1.0685                 1.2495                 1.3489
 IR Inten    --      3.1421                13.6372                72.7273

                     43                     44                     45
                      A                      A                      A
 Frequencies --   1113.2248              1116.2693              1130.2243
 Red. masses --      2.5826                 3.1619                 2.1670
 Frc consts  --      1.8857                 2.3213                 1.6310
 IR Inten    --     10.7975                22.5801                15.2797

                     46                     47                     48
                      A                      A                      A
 Frequencies --   1143.9719              1172.1327              1188.5534
 Red. masses --      2.2239                 1.7738                 1.4290
 Frc consts  --      1.7147                 1.4359                 1.1894
 IR Inten    --      2.2607                22.1850                47.3280

                     49                     50                     51
                      A                      A                      A
 Frequencies --   1206.1678              1231.1860              1256.4874
 Red. masses --      1.5392                 1.3331                 1.8009
 Frc consts  --      1.3193                 1.1906                 1.6751
 IR Inten    --     32.7673                 2.9665                17.7292

                     52                     53                     54
                      A                      A                      A
 Frequencies --   1259.7633              1286.1591              1289.2764
 Red. masses --      1.3240                 1.2646                 1.2917
 Frc consts  --      1.2380                 1.2325                 1.2650
 IR Inten    --      3.1665                 8.7058                11.5216

                     55                     56                     57
                      A                      A                      A
 Frequencies --   1309.0894              1313.0821              1321.6052
 Red. masses --      1.3090                 1.4184                 1.3607
 Frc consts  --      1.3217                 1.4409                 1.4003
 IR Inten    --      2.1859                29.8203                10.3302

                     58                     59                     60
                      A                      A                      A
 Frequencies --   1337.9806              1349.2710              1365.2118
 Red. masses --      1.3911                 1.3861                 1.4284
 Frc consts  --      1.4673                 1.4868                 1.5686
 IR Inten    --     13.6920                 8.7047                12.6784

                     61                     62                     63
                      A                      A                      A
 Frequencies --   1375.0834              1385.4398              1388.0788
 Red. masses --      1.5017                 1.3853                 1.2782
 Frc consts  --      1.6730                 1.5666                 1.4510
 IR Inten    --     19.9468                15.0663                 6.0782

                     64                     65                     66
                      A                      A                      A
 Frequencies --   1389.4035              1410.4261              1415.3908
 Red. masses --      1.5140                 1.5723                 1.3814
 Frc consts  --      1.7220                 1.8429                 1.6306
 IR Inten    --      4.5093                14.1479                41.1942

                     67                     68                     69
                      A                      A                      A
 Frequencies --   1424.7797              1450.5920              1473.4697
 Red. masses --      1.4767                 1.2779                 1.6106
 Frc consts  --      1.7662                 1.5842                 2.0603
 IR Inten    --      3.2375                87.9523                58.5310

                     70                     71                     72
                      A                      A                      A
 Frequencies --   1490.0385              1494.4453              1512.2819
 Red. masses --      1.1636                 1.1245                 1.0933
 Frc consts  --      1.5221                 1.4797                 1.4731
 IR Inten    --     12.1447                 3.3607                 7.8118

                     73                     74                     75
                      A                      A                      A
 Frequencies --   1516.7078              1520.3284              1525.5807
 Red. masses --      1.0929                 1.0995                 1.1446
 Frc consts  --      1.4812                 1.4974                 1.5695
 IR Inten    --     10.0662                 2.2878                15.1638

                     76                     77                     78
                      A                      A                      A
 Frequencies --   1528.4521              1535.5844              1541.3329
 Red. masses --      1.1262                 1.1150                 1.1005
 Frc consts  --      1.5502                 1.5491                 1.5404
 IR Inten    --      8.7213                13.7755                 0.4400

                     79                     80                     81
                      A                      A                      A
 Frequencies --   1759.6609              3001.9090              3031.0871
 Red. masses --     10.3167                 1.0840                 1.0716
 Frc consts  --     18.8213                 5.7555                 5.8007
 IR Inten    --    238.5480                31.6050                18.9044

                     82                     83                     84
                      A                      A                      A
 Frequencies --   3042.4276              3045.2128              3051.1363
 Red. masses --      1.0694                 1.0685                 1.0620
 Frc consts  --      5.8324                 5.8380                 5.8252
 IR Inten    --     51.4793                16.4914                22.6876

                     85                     86                     87
                      A                      A                      A
 Frequencies --   3055.8850              3056.8980              3072.7553
 Red. masses --      1.0635                 1.0632                 1.0616
 Frc consts  --      5.8512                 5.8538                 5.9057
 IR Inten    --     55.4208                 7.5902                41.9720

                     88                     89                     90
                      A                      A                      A
 Frequencies --   3083.4467              3092.9013              3094.8688
 Red. masses --      1.0647                 1.0879                 1.1000
 Frc consts  --      5.9642                 6.1316                 6.2077
 IR Inten    --     20.6724                39.3336                23.7909

                     91                     92                     93
                      A                      A                      A
 Frequencies --   3095.9941              3101.9226              3112.8225
 Red. masses --      1.0930                 1.0981                 1.0999
 Frc consts  --      6.1727                 6.2250                 6.2793
 IR Inten    --     12.0941                30.0521                16.7259

                     94                     95                     96
                      A                      A                      A
 Frequencies --   3118.5844              3120.1797              3122.1958
 Red. masses --      1.0989                 1.1049                 1.0940
 Frc consts  --      6.2966                 6.3379                 6.2832
 IR Inten    --     56.3355                37.8674                13.2071

                     97                     98                     99
                      A                      A                      A
 Frequencies --   3134.5309              3438.4283              3728.1942
 Red. masses --      1.1059                 1.0736                 1.0655
 Frc consts  --      6.4020                 7.4787                 8.7255
 IR Inten    --     18.1490                 2.4237                10.0234

 - Thermochemistry -
 -------------------
 Temperature   298.150 Kelvin.  Pressure   1.00000 Atm.
 Atom     1 has atomic number  6 and mass  12.00000

 Molecular mass:   212.15248 amu.
 Principal axes and moments of inertia in atomic units:
                           1         2         3
     Eigenvalues --  1872.083024943.785305021.25655
           X            0.99999   0.00445  -0.00063
           Y           -0.00427   0.98484   0.17344
           Z            0.00139  -0.17343   0.98484
 This molecule is an asymmetric top.
 Rotational symmetry number  1.
 Warning -- assumption of classical behavior for rotation
           may cause significant error
 Rotational temperatures (Kelvin)      0.04627     0.01752     0.01725
 Rotational constants (GHZ):           0.96403     0.36505     0.35942
 Zero-point vibrational energy     825540.3 (Joules/Mol)
                                  197.30887 (Kcal/Mol)
 Warning -- explicit consideration of  22 degrees of freedom as
           vibrations may cause significant error
 Vibrational temperatures:     40.25    65.01    94.26    99.30   120.74
          (Kelvin)            171.15   223.31   254.66   346.27   378.78
                              391.13   449.75   505.43   571.56   589.33
                              630.34   648.18   705.44   789.50   822.10
                              865.18   883.73   919.20   984.27  1067.64
                             1165.69  1201.46  1222.07  1244.67  1254.71
                             1286.30  1312.96  1324.68  1346.86  1375.72
                             1425.78  1452.66  1455.98  1477.00  1512.89
                             1551.24  1586.10  1601.68  1606.06  1626.14
                             1645.92  1686.44  1710.06  1735.41  1771.40
                             1807.81  1812.52  1850.50  1854.98  1883.49
                             1889.23  1901.50  1925.06  1941.30  1964.24
                             1978.44  1993.34  1997.14  1999.04  2029.29
                             2036.43  2049.94  2087.08  2119.99  2143.83
                             2150.17  2175.84  2182.20  2187.41  2194.97
                             2199.10  2209.36  2217.63  2531.76  4319.08
                             4361.06  4377.37  4381.38  4389.90  4396.74
                             4398.19  4421.01  4436.39  4450.00  4452.83
                             4454.45  4462.97  4478.66  4486.95  4489.24
                             4492.14  4509.89  4947.13  5364.04

 Zero-point correction=                           0.314432 (Hartree/Particle)
 Thermal correction to Energy=                    0.329067
 Thermal correction to Enthalpy=                  0.330011
 Thermal correction to Gibbs Free Energy=         0.271513
 Sum of electronic and zero-point Energies=           -690.919869
 Sum of electronic and thermal Energies=              -690.905234
 Sum of electronic and thermal Enthalpies=            -690.904290
 Sum of electronic and thermal Free Energies=         -690.962788

                     E (Thermal)             CV                S
                      KCal/Mol        Cal/Mol-Kelvin    Cal/Mol-Kelvin
 Total                  206.492             56.253            123.120
 Electronic               0.000              0.000              0.000
 Translational            0.889              2.981             41.960
 Rotational               0.889              2.981             32.208
 Vibrational            204.715             50.291             48.952
 Vibration     1          0.593              1.984              5.968
 Vibration     2          0.595              1.979              5.018
 Vibration     3          0.597              1.971              4.284
 Vibration     4          0.598              1.969              4.181
 Vibration     5          0.601              1.960              3.797
 Vibration     6          0.609              1.934              3.117
 Vibration     7          0.620              1.897              2.607
 Vibration     8          0.628              1.871              2.360
 Vibration     9          0.658              1.778              1.798
 Vibration    10          0.670              1.740              1.640
 Vibration    11          0.675              1.725              1.584
 Vibration    12          0.701              1.650              1.349
 Vibration    13          0.728              1.573              1.160
 Vibration    14          0.764              1.476              0.973
 Vibration    15          0.774              1.449              0.928
 Vibration    16          0.798              1.387              0.833
 Vibration    17          0.809              1.360              0.794
 Vibration    18          0.846              1.272              0.683
 Vibration    19          0.904              1.142              0.547
 Vibration    20          0.928              1.093              0.502
 Vibration    21          0.960              1.029              0.447
 Vibration    22          0.974              1.002              0.426

 Optimization completed.
    -- Stationary point found.
 Normal termination of Gaussian 16 at Thu Dec 10 15:10:39 2020.

 ----------------------------------------------------------------------
 # B3LYP/6-311++G(d,p) empiricaldispersion=gd3bj scf=xqc pop=npa geom=c
 heck
 ----------------------------------------------------------------------

 ---------------------------------------
 CID_134190296_JID_5189_Energie_neutraal
 ---------------------------------------
 Structure from the checkpoint file:  "JID_5189.chk"
 Charge =  0 Multiplicity = 1

 SCF Done:  E(RB3LYP) =  -691.440444993     A.U. after   14 cycles
 Normal termination of Gaussian 16 at Thu Dec 10 15:17:04 2020.

 ----------------------------------------------------------------------
 # B3LYP/6-311++G(d,p) empiricaldispersion=gd3bj scf=xqc pop=npa geom=c
 heck
 ----------------------------------------------------------------------

 -------------------------------------
 CID_134190296_JID_5189_Energie_kation
 -------------------------------------
 Structure from the checkpoint file:  "JID_5189.chk"
 Charge =  1 Multiplicity = 2

 SCF Done:  E(UB3LYP) =  -691.132285194     A.U. after   32 cycles
 Normal termination of Gaussian 16 at Thu Dec 10 15:40:14 2020.
 Gaussian 16:  ES64L-G16RevA.03 25-Dec-2016

 ----------------------------------------------------------------------
 # B3LYP/6-311++G(d,p) empiricaldispersion=gd3bj scf=xqc pop=npa geom=c
 heck
 ----------------------------------------------------------------------

 ------------------------------------
 CID_134190296_JID_5189_Energie_anion
 ------------------------------------
 Structure from the checkpoint file:  "JID_5189.chk"
 Charge = -1 Multiplicity = 2

                         Standard orientation:
 ---------------------------------------------------------------------
 Center     Atomic      Atomic             Coordinates (Angstroms)
 Number     Number       Type             X           Y           Z
 ---------------------------------------------------------------------
      1          6           0        3.139657    1.290162    0.266910
      2          6           0        2.125566    1.480229   -0.858051
      3          6           0        1.491506    0.147195   -1.252478
      4          7           0        1.058398   -0.623264   -0.092805
      5          6           0        1.499034   -0.447646    1.198846
      6          8           0        1.142785   -1.199214    2.101162
      7          6           0        2.408160    0.739922    1.489599
      8          6           0        0.197117   -1.784855   -0.361494
      9          6           0       -1.244382   -1.633637    0.131821
     10          6           0       -2.005355   -0.428747   -0.419349
     11          6           0       -1.636012    0.950961    0.216699
     12          6           0       -2.992884    1.672347    0.422565
     13          6           0       -4.005719    0.755953   -0.300283
     14          7           0       -3.458714   -0.604237   -0.229575
     15          8           0        2.345886   -0.628711   -2.086935
     16          1           0        3.641297    2.233385    0.507349
     17          1           0        3.928872    0.593999   -0.050674
     18          1           0        1.337860    2.168045   -0.524841
     19          1           0        2.580483    1.905278   -1.757355
     20          1           0        0.615997    0.329815   -1.882172
     21          1           0        3.088535    0.425228    2.285553
     22          1           0        1.767664    1.522936    1.919270
     23          1           0        0.221227   -1.948390   -1.442004
     24          1           0        0.643902   -2.659946    0.118349
     25          1           0       -1.784657   -2.542056   -0.164262
     26          1           0       -1.239523   -1.597629    1.226902
     27          1           0       -1.841147   -0.368257   -1.506057
     28          1           0       -1.115537    0.807697    1.168862
     29          1           0       -0.967615    1.524084   -0.433279
     30          1           0       -3.236838    1.730243    1.489641
     31          1           0       -2.995715    2.696432    0.034377
     32          1           0       -5.013309    0.789727    0.124735
     33          1           0       -4.083523    1.037758   -1.358778
     34          1           0       -3.606271   -0.956633    0.718671
     35          1           0        3.091010   -0.927108   -1.540154
 ---------------------------------------------------------------------

 SCF Done:  E(UB3LYP) =  -691.429686690     A.U. after   31 cycles

 The electronic state is 2-A.
 Alpha  occ. eigenvalues --  -19.03349 -18.99011 -14.24753 -14.20641 -10.17529
 Alpha  occ. eigenvalues --  -10.16781 -10.11003 -10.10409 -10.09829 -10.07924
 Alpha  occ. eigenvalues --  -10.07625 -10.07558 -10.07478 -10.07125 -10.06922
 Alpha  occ. eigenvalues --   -0.95337  -0.93603  -0.83613  -0.82883  -0.72036
 Alpha  occ. eigenvalues --   -0.68032  -0.66318  -0.64631  -0.61721  -0.56565
 Alpha  occ. eigenvalues --   -0.54983  -0.51236  -0.50405  -0.47677  -0.45757
 Alpha  occ. eigenvalues --   -0.43054  -0.39899  -0.39249  -0.37733  -0.37584
 Alpha  occ. eigenvalues --   -0.37301  -0.35475  -0.34608  -0.33783  -0.33362
 Alpha  occ. eigenvalues --   -0.32755  -0.31962  -0.30583  -0.28396  -0.27656
 Alpha  occ. eigenvalues --   -0.27359  -0.26641  -0.25743  -0.25376  -0.24854
 Alpha  occ. eigenvalues --   -0.24571  -0.23913  -0.23328  -0.22597  -0.19939
 Alpha  occ. eigenvalues --   -0.16013  -0.15683  -0.14659   0.04192
 Alpha virt. eigenvalues --    0.05847   0.07052   0.07289   0.08085   0.08583
 Alpha virt. eigenvalues --    0.08933   0.09684   0.10282   0.10351   0.10770
 Alpha virt. eigenvalues --    0.11167   0.11639   0.11991   0.12728   0.13346

  Beta  occ. eigenvalues --  -19.03310 -18.99006 -14.24740 -14.20634 -10.17529
  Beta  occ. eigenvalues --  -10.16774 -10.10998 -10.10405 -10.09813 -10.07904
  Beta  occ. eigenvalues --  -10.07599 -10.07507 -10.07474 -10.07103 -10.06910
  Beta  occ. eigenvalues --   -0.95291  -0.93566  -0.83585  -0.82863  -0.71992
  Beta  occ. eigenvalues --   -0.68007  -0.66286  -0.64581  -0.61691  -0.56509
  Beta  occ. eigenvalues --   -0.54949  -0.51174  -0.50348  -0.47637  -0.45699
  Beta  occ. eigenvalues --   -0.43007  -0.39869  -0.39220  -0.37677  -0.37551
  Beta  occ. eigenvalues --   -0.37261  -0.35433  -0.34578  -0.33756  -0.33318
  Beta  occ. eigenvalues --   -0.32731  -0.31929  -0.30555  -0.28368  -0.27622
  Beta  occ. eigenvalues --   -0.27319  -0.26603  -0.25707  -0.25343  -0.24822
  Beta  occ. eigenvalues --   -0.24532  -0.23870  -0.23300  -0.22574  -0.19891
  Beta  occ. eigenvalues --   -0.15977  -0.15661  -0.14638
  Beta virt. eigenvalues --    0.06274   0.07012   0.07564   0.07829   0.08474
  Beta virt. eigenvalues --    0.09112   0.09374   0.09961   0.10526   0.10561
  Beta virt. eigenvalues --    0.11042   0.11494   0.12034   0.12256   0.12912

 Mulliken charges and spin densities:
               1          2
     1  C    0.838532  -1.063877
     2  C   -0.432390   0.010452
     3  C    0.847334  -1.168009
     4  N    0.052951   0.116978
     5  C   -0.311991   0.288122
     6  O   -0.305296   0.011591
     7  C    0.411955  -0.802004
     8  C    0.057695  -0.446664
     9  C   -0.500779   0.236174
    10  C   -0.441481  -0.110283
    11  C   -0.605745   0.639670
    12  C    0.694403  -1.263453
    13  C   -0.033834  -0.267260
    14  N    0.008258   0.048312
    15  O   -0.186822   0.048532
    16  H   -0.817499   1.023138
    17  H   -0.124209   0.246135
    18  H   -0.436427   0.576536
    19  H   -0.250370   0.466575
    20  H   -0.003232   0.249444
    21  H   -0.059391   0.262099
    22  H   -0.086765   0.266356
    23  H    0.138799   0.048511
    24  H    0.084913   0.115666
    25  H    0.065445   0.089447
    26  H    0.222412  -0.018177
    27  H    0.085227   0.124723
    28  H    0.068999   0.131692
    29  H    0.552489  -0.479479
    30  H    0.017616   0.112519
    31  H   -0.379284   0.537891
    32  H   -0.203824   0.384558
    33  H    0.042397   0.084126
    34  H    0.129980   0.095229
    35  H   -0.140067   0.404731
 Sum of Mulliken charges =  -1.00000   1.00000

 Dipole moment (field-independent basis, Debye):
    X=             -3.6557    Y=             -3.8323    Z=             -0.3502  Tot=              5.3079
 Quadrupole moment (field-independent basis, Debye-Ang):
   XX=           -172.4816   YY=           -139.9315   ZZ=           -132.3617
   XY=             -4.3601   XZ=             -0.2905   YZ=             -0.4008

 Summary of Natural Population Analysis:

                                       Natural Population
                Natural  -----------------------------------------------
    Atom  No    Charge         Core      Valence    Rydberg      Total
 -----------------------------------------------------------------------
      C    1   -0.19299      0.99963     2.18362    0.00974     3.19299
      C    2   -0.20422      0.99960     2.19487    0.00975     3.20422
      C    3    0.16062      0.99957     1.82389    0.01593     2.83938
      N    4   -0.26968      0.99962     2.75803    0.01202     3.76968
      C    5    0.35218      0.99963     1.62497    0.02322     2.64782
      O    6   -0.32860      0.99988     3.32344    0.00527     4.32860
      C    7   -0.22977      0.99959     2.22037    0.00981     3.22977
      C    8   -0.08377      0.99960     2.07280    0.01136     3.08377
      C    9   -0.19865      0.99959     2.19117    0.00789     3.19865
      C   10   -0.01206      0.99960     2.00043    0.01203     3.01206
      C   11   -0.20298      0.99962     2.19455    0.00880     3.20298
      C   12   -0.20119      0.99964     2.19399    0.00755     3.20119
      C   13   -0.09119      0.99965     2.08051    0.01103     3.09119
      N   14   -0.33390      0.99976     2.82287    0.01127     3.83390
      O   15   -0.37102      0.99990     3.36518    0.00594     4.37102
      H   16    0.10887      0.00000     0.38766    0.00346     0.39113
      H   17    0.09457      0.00000     0.40294    0.00249     0.40543
      H   18    0.10273      0.00000     0.39527    0.00200     0.39727
      H   19    0.11023      0.00000     0.38837    0.00139     0.38977
      H   20    0.08796      0.00000     0.41017    0.00187     0.41204
      H   21    0.11317      0.00000     0.38582    0.00101     0.38683
      H   22    0.11122      0.00000     0.38731    0.00148     0.38878
      H   23    0.10090      0.00000     0.39786    0.00124     0.39910
      H   24    0.10544      0.00000     0.39351    0.00105     0.39456
      H   25    0.10204      0.00000     0.39687    0.00109     0.39796
      H   26    0.10664      0.00000     0.39207    0.00129     0.39336
      H   27    0.08686      0.00000     0.41155    0.00160     0.41314
      H   28    0.10108      0.00000     0.39722    0.00170     0.39892
      H   29    0.09955      0.00000     0.39865    0.00179     0.40045
      H   30    0.09479      0.00000     0.40395    0.00127     0.40521
      H   31    0.10153      0.00000     0.39716    0.00131     0.39847
      H   32    0.09495      0.00000     0.40408    0.00097     0.40505
      H   33    0.08795      0.00000     0.41082    0.00122     0.41205
      H   34    0.16587      0.00000     0.33143    0.00270     0.33413
      H   35    0.23087      0.00000     0.26498    0.00415     0.26913
 =======================================================================
   * Total *    0.00000     14.99488    42.80840    0.19671    58.00000

 Normal termination of Gaussian 16 at Thu Dec 10 15:58:56 2020.
