 Gaussian 16, Revision A.03,

 -----------------------------------------------------------
 # opt freq B3LYP/6-31G(d) empiricaldispersion=gd3bj scf=xqc
 -----------------------------------------------------------

 -------------------------------
 CID_103986452_JID_3712_neutraal
 -------------------------------
 Symbolic Z-matrix:
 Charge =  0 Multiplicity = 1

 SCF Done:  E(RB3LYP) =  -581.689677323     A.U. after   13 cycles
 SCF Done:  E(RB3LYP) =  -581.693101088     A.U. after   11 cycles
 SCF Done:  E(RB3LYP) =  -581.692808886     A.U. after   10 cycles
 SCF Done:  E(RB3LYP) =  -581.693396544     A.U. after   10 cycles
 SCF Done:  E(RB3LYP) =  -581.693404757     A.U. after   10 cycles
 SCF Done:  E(RB3LYP) =  -581.693442299     A.U. after    9 cycles
 SCF Done:  E(RB3LYP) =  -581.693471487     A.U. after    9 cycles
 SCF Done:  E(RB3LYP) =  -581.693495625     A.U. after   10 cycles
 SCF Done:  E(RB3LYP) =  -581.693513161     A.U. after    9 cycles
 SCF Done:  E(RB3LYP) =  -581.693524554     A.U. after    9 cycles
 SCF Done:  E(RB3LYP) =  -581.693709069     A.U. after    8 cycles
 SCF Done:  E(RB3LYP) =  -581.693709106     A.U. after    9 cycles
 SCF Done:  E(RB3LYP) =  -581.693709670     A.U. after    9 cycles
 SCF Done:  E(RB3LYP) =  -581.693707356     A.U. after    9 cycles
 SCF Done:  E(RB3LYP) =  -581.693710629     A.U. after    9 cycles
 SCF Done:  E(RB3LYP) =  -581.693710877     A.U. after    8 cycles
 Optimization completed on the basis of negligible forces.
    -- Stationary point found.
 Normal termination of Gaussian 16 at Thu Dec 10 00:44:27 2020.

 --------------------------------------------------------------------
 #N Geom=AllCheck Guess=TCheck SCRF=Check GenChk RB3LYP/6-31G(d) Freq
 --------------------------------------------------------------------

 Structure from the checkpoint file:  "JID_3712.chk"
 -------------------------------
 CID_103986452_JID_3712_neutraal
 -------------------------------
 Charge =  0 Multiplicity = 1

 SCF Done:  E(RB3LYP) =  -581.693710877     A.U. after    1 cycles

  Exact polarizability: 130.959  -2.739 114.137  -1.960  -0.466 102.745
 Approx polarizability: 156.945  -0.919 162.423  -2.807   0.265 160.715

                      1                      2                      3
                      A                      A                      A
 Frequencies --     26.0322                35.3290                65.0682
 Red. masses --      2.7690                 2.5148                 2.3117
 Frc consts  --      0.0011                 0.0018                 0.0058
 IR Inten    --      0.2918                 0.7839                 1.6415

                      4                      5                      6
                      A                      A                      A
 Frequencies --     87.6835                90.5973               146.3928
 Red. masses --      3.3523                 3.0566                 3.3901
 Frc consts  --      0.0152                 0.0148                 0.0428
 IR Inten    --      3.2107                 2.6658                 3.4361

                      7                      8                      9
                      A                      A                      A
 Frequencies --    178.0948               183.6629               204.3658
 Red. masses --      2.8064                 3.5098                 2.5293
 Frc consts  --      0.0524                 0.0698                 0.0622
 IR Inten    --      2.9733                 4.0724                 0.3631

                     10                     11                     12
                      A                      A                      A
 Frequencies --    277.1870               295.6340               355.0425
 Red. masses --      1.6492                 1.5770                 2.1562
 Frc consts  --      0.0747                 0.0812                 0.1601
 IR Inten    --     41.1750                90.9207                11.6552

                     13                     14                     15
                      A                      A                      A
 Frequencies --    359.1693               410.6260               437.8246
 Red. masses --      2.4471                 1.8594                 3.1843
 Frc consts  --      0.1860                 0.1847                 0.3596
 IR Inten    --      2.1665                 2.5922                 4.1306

                     16                     17                     18
                      A                      A                      A
 Frequencies --    561.4086               606.8558               650.3246
 Red. masses --      2.2437                 3.0650                 3.0805
 Frc consts  --      0.4167                 0.6651                 0.7676
 IR Inten    --      5.7377                 5.2573                 1.2282

                     19                     20                     21
                      A                      A                      A
 Frequencies --    684.4341               733.2993               783.4518
 Red. masses --      2.9440                 3.4510                 1.2359
 Frc consts  --      0.8125                 1.0933                 0.4469
 IR Inten    --      3.3046                 1.1551                 0.7141

                     22                     23                     24
                      A                      A                      A
 Frequencies --    810.7907               844.8581               864.4728
 Red. masses --      2.3505                 1.6983                 2.0215
 Frc consts  --      0.9104                 0.7142                 0.8901
 IR Inten    --      0.7436                 0.9548                 1.0705

                     25                     26                     27
                      A                      A                      A
 Frequencies --    887.3048               898.4794               908.4062
 Red. masses --      2.4806                 2.8420                 2.4432
 Frc consts  --      1.1507                 1.3517                 1.1879
 IR Inten    --      2.2104                 0.7041                 0.7061

                     28                     29                     30
                      A                      A                      A
 Frequencies --    925.4426               933.6482               957.4379
 Red. masses --      2.1732                 3.1931                 2.1231
 Frc consts  --      1.0966                 1.6399                 1.1467
 IR Inten    --      6.5034                29.4499                10.4936

                     31                     32                     33
                      A                      A                      A
 Frequencies --    970.3217               976.2762               993.4005
 Red. masses --      2.0932                 1.8520                 1.9924
 Frc consts  --      1.1612                 1.0400                 1.1584
 IR Inten    --      8.2998                 8.7090                 8.4890

                     34                     35                     36
                      A                      A                      A
 Frequencies --   1018.0269              1021.0408              1049.3488
 Red. masses --      1.7877                 1.3637                 2.0955
 Frc consts  --      1.0916                 0.8376                 1.3595
 IR Inten    --     14.8497                 3.2945                12.6727

                     37                     38                     39
                      A                      A                      A
 Frequencies --   1070.4109              1085.6591              1109.3599
 Red. masses --      1.8655                 3.1267                 1.8650
 Frc consts  --      1.2593                 2.1714                 1.3523
 IR Inten    --     17.1742                43.8297                17.5295

                     40                     41                     42
                      A                      A                      A
 Frequencies --   1120.8803              1126.8786              1170.7371
 Red. masses --      2.9181                 2.8693                 1.3081
 Frc consts  --      2.1601                 2.1468                 1.0564
 IR Inten    --     11.1996                64.6642                 6.1443

                     43                     44                     45
                      A                      A                      A
 Frequencies --   1180.5662              1213.5462              1219.2849
 Red. masses --      1.9221                 1.4207                 1.4356
 Frc consts  --      1.5784                 1.2327                 1.2575
 IR Inten    --     21.6679                 1.2580                 5.0525

                     46                     47                     48
                      A                      A                      A
 Frequencies --   1224.7995              1236.2759              1251.6880
 Red. masses --      1.2297                 1.4259                 1.2297
 Frc consts  --      1.0869                 1.2840                 1.1351
 IR Inten    --      1.4422                 1.1291                10.9622

                     49                     50                     51
                      A                      A                      A
 Frequencies --   1266.3341              1270.8916              1297.4665
 Red. masses --      1.2629                 1.3372                 1.3445
 Frc consts  --      1.1932                 1.2725                 1.3336
 IR Inten    --      5.1983                 8.2825                11.5471

                     52                     53                     54
                      A                      A                      A
 Frequencies --   1304.2487              1310.9764              1330.9069
 Red. masses --      1.2793                 1.3633                 1.3399
 Frc consts  --      1.2821                 1.3805                 1.3983
 IR Inten    --      1.3141                 0.9432                 1.8623

                     55                     56                     57
                      A                      A                      A
 Frequencies --   1339.6748              1342.1034              1360.4574
 Red. masses --      1.3567                 1.3066                 1.3225
 Frc consts  --      1.4346                 1.3867                 1.4422
 IR Inten    --      0.7837                 1.5520                 2.3314

                     58                     59                     60
                      A                      A                      A
 Frequencies --   1364.8835              1370.4408              1376.5554
 Red. masses --      1.3120                 1.3383                 1.3450
 Frc consts  --      1.4400                 1.4809                 1.5016
 IR Inten    --      0.3347                 1.8735                 0.9595

                     61                     62                     63
                      A                      A                      A
 Frequencies --   1382.6710              1417.6618              1419.6063
 Red. masses --      1.3193                 1.5075                 1.4185
 Frc consts  --      1.4861                 1.7851                 1.6843
 IR Inten    --      7.7919                 6.8033                18.5594

                     64                     65                     66
                      A                      A                      A
 Frequencies --   1432.0818              1441.3390              1507.5856
 Red. masses --      1.3285                 1.3491                 1.0874
 Frc consts  --      1.6052                 1.6514                 1.4562
 IR Inten    --      1.9911                45.2532                 7.9747

                     67                     68                     69
                      A                      A                      A
 Frequencies --   1516.6457              1520.0828              1523.3193
 Red. masses --      1.0806                 1.0912                 1.0920
 Frc consts  --      1.4645                 1.4856                 1.4930
 IR Inten    --      0.9290                 2.9670                 4.0814

                     70                     71                     72
                      A                      A                      A
 Frequencies --   1527.7992              1547.1371              1548.2487
 Red. masses --      1.0912                 1.0935                 1.0980
 Frc consts  --      1.5007                 1.5421                 1.5507
 IR Inten    --      0.4041                 0.9013                 0.6962

                     73                     74                     75
                      A                      A                      A
 Frequencies --   1564.7516              2983.3294              3002.5084
 Red. masses --      1.0960                 1.0725                 1.0811
 Frc consts  --      1.5811                 5.6240                 5.7424
 IR Inten    --      1.3850                95.8675                14.9925

                     76                     77                     78
                      A                      A                      A
 Frequencies --   3032.4893              3035.2926              3040.6574
 Red. masses --      1.0571                 1.0738                 1.0761
 Frc consts  --      5.7274                 5.8289                 5.8620
 IR Inten    --     70.1220                 7.2104                34.6985

                     79                     80                     81
                      A                      A                      A
 Frequencies --   3046.3403              3048.9086              3054.1426
 Red. masses --      1.0650                 1.0646                 1.0877
 Frc consts  --      5.8232                 5.8308                 5.9780
 IR Inten    --     36.3580                10.5083                18.0357

                     82                     83                     84
                      A                      A                      A
 Frequencies --   3057.5000              3062.5700              3067.0079
 Red. masses --      1.0742                 1.0936                 1.0642
 Frc consts  --      5.9165                 6.0431                 5.8979
 IR Inten    --     49.0223                18.9157                46.8320

                     85                     86                     87
                      A                      A                      A
 Frequencies --   3078.2750              3088.6268              3090.6864
 Red. masses --      1.0801                 1.0998                 1.1003
 Frc consts  --      6.0299                 6.1814                 6.1924
 IR Inten    --     67.9730                35.9818                27.4928

                     88                     89                     90
                      A                      A                      A
 Frequencies --   3100.9918              3105.6526              3112.8951
 Red. masses --      1.0970                 1.0927                 1.1012
 Frc consts  --      6.2153                 6.2095                 6.2868
 IR Inten    --     17.1275                41.5583                61.3077

                     91                     92                     93
                      A                      A                      A
 Frequencies --   3117.7594              3155.8914              3737.0289
 Red. masses --      1.0993                 1.0936                 1.0658
 Frc consts  --      6.2960                 6.4175                 8.7696
 IR Inten    --     57.2461                23.5300                 5.5569

 - Thermochemistry -
 -------------------
 Temperature   298.150 Kelvin.  Pressure   1.00000 Atm.
 Atom     1 has atomic number  6 and mass  12.00000

 Molecular mass:   184.14633 amu.
 Principal axes and moments of inertia in atomic units:
                           1         2         3
     Eigenvalues --  1279.339314080.010714841.48463
           X            0.99992  -0.01205  -0.00415
           Y            0.01204   0.99992  -0.00242
           Z            0.00418   0.00237   0.99999
 This molecule is an asymmetric top.
 Rotational symmetry number  1.
 Warning -- assumption of classical behavior for rotation
           may cause significant error
 Rotational temperatures (Kelvin)      0.06770     0.02123     0.01789
 Rotational constants (GHZ):           1.41068     0.44234     0.37277
 Zero-point vibrational energy     792790.7 (Joules/Mol)
                                  189.48152 (Kcal/Mol)
 Warning -- explicit consideration of  17 degrees of freedom as
           vibrations may cause significant error
 Vibrational temperatures:     37.45    50.83    93.62   126.16   130.35
          (Kelvin)            210.63   256.24   264.25   294.04   398.81
                              425.35   510.83   516.76   590.80   629.93
                              807.74   873.13   935.67   984.75  1055.05
                             1127.21  1166.55  1215.56  1243.78  1276.63
                             1292.71  1306.99  1331.51  1343.31  1377.54
                             1396.08  1404.64  1429.28  1464.71  1469.05
                             1509.78  1540.08  1562.02  1596.12  1612.70
                             1621.33  1684.43  1698.57  1746.02  1754.28
                             1762.21  1778.73  1800.90  1821.97  1828.53
                             1866.76  1876.52  1886.20  1914.88  1927.49
                             1930.99  1957.39  1963.76  1971.76  1980.56
                             1989.36  2039.70  2042.50  2060.45  2073.77
                             2169.08  2182.11  2187.06  2191.72  2198.16
                             2225.99  2227.58  2251.33  4292.35  4319.94
                             4363.08  4367.11  4374.83  4383.00  4386.70
                             4394.23  4399.06  4406.36  4412.74  4428.95
                             4443.85  4446.81  4461.64  4468.34  4478.76
                             4485.76  4540.62  5376.75

 Zero-point correction=                           0.301958 (Hartree/Particle)
 Thermal correction to Energy=                    0.315325
 Thermal correction to Enthalpy=                  0.316270
 Thermal correction to Gibbs Free Energy=         0.260231
 Sum of electronic and zero-point Energies=           -581.391753
 Sum of electronic and thermal Energies=              -581.378386
 Sum of electronic and thermal Enthalpies=            -581.377441
 Sum of electronic and thermal Free Energies=         -581.433480

                     E (Thermal)             CV                S
                      KCal/Mol        Cal/Mol-Kelvin    Cal/Mol-Kelvin
 Total                  197.870             50.295            117.942
 Electronic               0.000              0.000              0.000
 Translational            0.889              2.981             41.538
 Rotational               0.889              2.981             31.603
 Vibrational            196.092             44.334             44.802
 Vibration     1          0.593              1.985              6.111
 Vibration     2          0.594              1.982              5.505
 Vibration     3          0.597              1.971              4.297
 Vibration     4          0.601              1.958              3.711
 Vibration     5          0.602              1.956              3.647
 Vibration     6          0.617              1.907              2.719
 Vibration     7          0.629              1.869              2.348
 Vibration     8          0.631              1.862              2.291
 Vibration     9          0.640              1.834              2.093
 Vibration    10          0.678              1.716              1.551
 Vibration    11          0.690              1.682              1.441
 Vibration    12          0.731              1.565              1.144
 Vibration    13          0.734              1.556              1.126
 Vibration    14          0.775              1.447              0.924
 Vibration    15          0.798              1.388              0.833
 Vibration    16          0.917              1.115              0.521
 Vibration    17          0.966              1.017              0.438

 Optimization completed on the basis of negligible forces.
    -- Stationary point found.
 Normal termination of Gaussian 16 at Thu Dec 10 00:53:01 2020.

 ----------------------------------------------------------------------
 # B3LYP/6-311++G(d,p) empiricaldispersion=gd3bj scf=xqc pop=npa geom=c
 heck
 ----------------------------------------------------------------------

 ---------------------------------------
 CID_103986452_JID_3712_Energie_neutraal
 ---------------------------------------
 Structure from the checkpoint file:  "JID_3712.chk"
 Charge =  0 Multiplicity = 1

 SCF Done:  E(RB3LYP) =  -581.866072277     A.U. after   13 cycles
 Normal termination of Gaussian 16 at Thu Dec 10 00:56:14 2020.

 ----------------------------------------------------------------------
 # B3LYP/6-311++G(d,p) empiricaldispersion=gd3bj scf=xqc pop=npa geom=c
 heck
 ----------------------------------------------------------------------

 -------------------------------------
 CID_103986452_JID_3712_Energie_kation
 -------------------------------------
 Structure from the checkpoint file:  "JID_3712.chk"
 Charge =  1 Multiplicity = 2

 SCF Done:  E(UB3LYP) =  -581.537429831     A.U. after   22 cycles
 Normal termination of Gaussian 16 at Thu Dec 10 01:03:22 2020.
 Gaussian 16:  ES64L-G16RevA.03 25-Dec-2016

 ----------------------------------------------------------------------
 # B3LYP/6-311++G(d,p) empiricaldispersion=gd3bj scf=xqc pop=npa geom=c
 heck
 ----------------------------------------------------------------------

 ------------------------------------
 CID_103986452_JID_3712_Energie_anion
 ------------------------------------
 Structure from the checkpoint file:  "JID_3712.chk"
 Charge = -1 Multiplicity = 2

                         Standard orientation:
 ---------------------------------------------------------------------
 Center     Atomic      Atomic             Coordinates (Angstroms)
 Number     Number       Type             X           Y           Z
 ---------------------------------------------------------------------
      1          6           0        3.043340   -1.624325   -0.405173
      2          6           0        3.667005   -0.609958    0.579932
      3          6           0        2.902481    0.690932    0.306526
      4          6           0        1.452212    0.212049    0.115593
      5          6           0        1.602299   -1.106693   -0.684449
      6          6           0        0.544649    1.249455   -0.548146
      7          6           0       -0.903433    0.806822   -0.832772
      8          6           0       -1.809695    0.598010    0.393414
      9          6           0       -1.697376   -0.792680    1.054945
     10          6           0       -2.640449   -1.659411    0.196381
     11          8           0       -3.523440   -0.762259   -0.485449
     12          6           0       -3.292424    0.558687   -0.002745
     13          8           0        0.563920    2.485876    0.175811
     14          1           0        3.047904   -2.642880   -0.004252
     15          1           0        3.620336   -1.649937   -1.336096
     16          1           0        3.485905   -0.929361    1.614693
     17          1           0        4.750540   -0.510077    0.457987
     18          1           0        3.258332    1.153853   -0.624766
     19          1           0        3.004893    1.438560    1.098085
     20          1           0        1.048684   -0.021380    1.113055
     21          1           0        1.469744   -0.905937   -1.754694
     22          1           0        0.837042   -1.840501   -0.412314
     23          1           0        0.996959    1.501651   -1.516353
     24          1           0       -1.346354    1.599118   -1.448046
     25          1           0       -0.897158   -0.098279   -1.452383
     26          1           0       -1.636740    1.405525    1.114836
     27          1           0       -2.060779   -0.740722    2.087436
     28          1           0       -0.683210   -1.193274    1.080907
     29          1           0       -2.093378   -2.237623   -0.559362
     30          1           0       -3.219751   -2.364704    0.806807
     31          1           0       -3.932554    0.772201    0.869840
     32          1           0       -3.553792    1.258570   -0.802250
     33          1           0        0.367883    2.278930    1.102928
 ---------------------------------------------------------------------

 SCF Done:  E(UB3LYP) =  -581.853209480     A.U. after   28 cycles

 The electronic state is 2-A.
 Alpha  occ. eigenvalues --  -19.01984 -19.01764 -10.11992 -10.11301 -10.11231
 Alpha  occ. eigenvalues --  -10.07695 -10.06966 -10.06734 -10.06689 -10.06609
 Alpha  occ. eigenvalues --  -10.06445 -10.06181 -10.06022  -0.93688  -0.92038
 Alpha  occ. eigenvalues --   -0.73981  -0.70591  -0.65064  -0.63852  -0.60940
 Alpha  occ. eigenvalues --   -0.59608  -0.52637  -0.49436  -0.47605  -0.47288
 Alpha  occ. eigenvalues --   -0.45725  -0.40455  -0.40226  -0.39404  -0.38212
 Alpha  occ. eigenvalues --   -0.35254  -0.34458  -0.33904  -0.32655  -0.31771
 Alpha  occ. eigenvalues --   -0.31178  -0.29459  -0.28854  -0.27532  -0.25001
 Alpha  occ. eigenvalues --   -0.24423  -0.24344  -0.23732  -0.23121  -0.22794
 Alpha  occ. eigenvalues --   -0.22428  -0.21990  -0.21601  -0.20510  -0.17310
 Alpha  occ. eigenvalues --   -0.15363   0.04507
 Alpha virt. eigenvalues --    0.06587   0.07449   0.07771   0.08701   0.09095
 Alpha virt. eigenvalues --    0.09309   0.09888   0.10763   0.11076   0.11324
 Alpha virt. eigenvalues --    0.11678   0.12221   0.12613   0.13995   0.14036

  Beta  occ. eigenvalues --  -19.01984 -19.01735 -10.11985 -10.11285 -10.11213
  Beta  occ. eigenvalues --  -10.07677 -10.06950 -10.06731 -10.06678 -10.06577
  Beta  occ. eigenvalues --  -10.06424 -10.06159 -10.06008  -0.93679  -0.91975
  Beta  occ. eigenvalues --   -0.73949  -0.70558  -0.65024  -0.63814  -0.60900
  Beta  occ. eigenvalues --   -0.59572  -0.52591  -0.49383  -0.47556  -0.47225
  Beta  occ. eigenvalues --   -0.45675  -0.40393  -0.40189  -0.39372  -0.38162
  Beta  occ. eigenvalues --   -0.35219  -0.34423  -0.33868  -0.32630  -0.31746
  Beta  occ. eigenvalues --   -0.31143  -0.29433  -0.28827  -0.27497  -0.24967
  Beta  occ. eigenvalues --   -0.24377  -0.24306  -0.23690  -0.23088  -0.22761
  Beta  occ. eigenvalues --   -0.22399  -0.21956  -0.21577  -0.20473  -0.17284
  Beta  occ. eigenvalues --   -0.15343
  Beta virt. eigenvalues --    0.06697   0.07477   0.07942   0.08346   0.09200
  Beta virt. eigenvalues --    0.09441   0.09661   0.10420   0.10988   0.11317
  Beta virt. eigenvalues --    0.11647   0.12084   0.12647   0.12698   0.14257

 Mulliken charges and spin densities:
               1          2
     1  C    0.772977  -1.289324
     2  C   -0.366794  -0.005735
     3  C    0.550560  -0.986349
     4  C   -0.956272   1.615811
     5  C   -0.439923  -0.043732
     6  C    1.415300  -2.035032
     7  C   -0.302429   0.098444
     8  C   -0.476229   0.733869
     9  C    1.098233  -1.296426
    10  C    0.113644  -0.562061
    11  O   -0.127500   0.010784
    12  C   -0.332447  -0.248655
    13  O   -0.135384  -0.003121
    14  H   -0.373444   0.538366
    15  H   -0.041310   0.160791
    16  H   -0.127915   0.271147
    17  H   -0.161594   0.321322
    18  H    0.081482   0.051846
    19  H   -0.194538   0.344193
    20  H   -0.039519   0.240633
    21  H    0.003399   0.154416
    22  H    0.525963  -0.441932
    23  H    0.121116   0.059014
    24  H    0.214483  -0.051361
    25  H    0.064375   0.114015
    26  H   -0.427559   0.596436
    27  H   -0.604739   0.801857
    28  H   -0.442511   0.547354
    29  H   -0.118025   0.291874
    30  H   -0.089102   0.229868
    31  H   -0.231528   0.386109
    32  H    0.009849   0.147514
    33  H    0.017379   0.248064
 Sum of Mulliken charges =  -1.00000   1.00000

 Dipole moment (field-independent basis, Debye):
    X=              0.1012    Y=              0.8927    Z=             -5.4701  Tot=              5.5434
 Quadrupole moment (field-independent basis, Debye-Ang):
   XX=           -150.2082   YY=           -126.6860   ZZ=           -120.5106
   XY=              1.0221   XZ=              1.0342   YZ=             -0.5428

 Summary of Natural Population Analysis:

                                       Natural Population
                Natural  -----------------------------------------------
    Atom  No    Charge         Core      Valence    Rydberg      Total
 -----------------------------------------------------------------------
      C    1   -0.19147      0.99965     2.18380    0.00802     3.19147
      C    2   -0.19117      0.99964     2.18382    0.00771     3.19117
      C    3   -0.18606      0.99962     2.17691    0.00953     3.18606
      C    4   -0.12567      0.99957     2.11428    0.01182     3.12567
      C    5   -0.19142      0.99962     2.18351    0.00829     3.19142
      C    6    0.07313      0.99952     1.91326    0.01409     2.92687
      C    7   -0.19826      0.99959     2.18980    0.00888     3.19826
      C    8   -0.12878      0.99959     2.11663    0.01256     3.12878
      C    9   -0.20797      0.99962     2.19862    0.00973     3.20797
      C   10   -0.01015      0.99960     1.99835    0.01221     3.01015
      O   11   -0.30658      0.99989     3.29819    0.00849     4.30658
      C   12   -0.00386      0.99957     1.99094    0.01335     3.00386
      O   13   -0.37352      0.99990     3.36739    0.00623     4.37352
      H   14    0.10085      0.00000     0.39786    0.00129     0.39915
      H   15    0.09299      0.00000     0.40596    0.00105     0.40701
      H   16    0.09724      0.00000     0.40103    0.00173     0.40276
      H   17    0.09720      0.00000     0.40186    0.00094     0.40280
      H   18    0.09156      0.00000     0.40725    0.00119     0.40844
      H   19    0.10573      0.00000     0.39328    0.00099     0.39427
      H   20    0.09839      0.00000     0.39862    0.00299     0.40161
      H   21    0.09388      0.00000     0.40489    0.00122     0.40612
      H   22    0.10176      0.00000     0.39715    0.00109     0.39824
      H   23    0.08244      0.00000     0.41581    0.00174     0.41756
      H   24    0.09953      0.00000     0.39937    0.00110     0.40047
      H   25    0.10137      0.00000     0.39724    0.00139     0.39863
      H   26    0.10513      0.00000     0.39267    0.00220     0.39487
      H   27    0.10427      0.00000     0.39276    0.00296     0.39573
      H   28    0.10726      0.00000     0.39083    0.00191     0.39274
      H   29    0.08154      0.00000     0.41690    0.00156     0.41846
      H   30    0.08432      0.00000     0.41424    0.00144     0.41568
      H   31    0.08015      0.00000     0.41841    0.00144     0.41985
      H   32    0.08743      0.00000     0.41129    0.00128     0.41257
      H   33    0.22873      0.00000     0.26747    0.00380     0.27127
 =======================================================================
   * Total *   -0.00000     12.99538    37.84040    0.16422    51.00000

 Normal termination of Gaussian 16 at Thu Dec 10 01:12:20 2020.
