 Gaussian 16, Revision A.03,

 -----------------------------------------------------------
 # opt freq B3LYP/6-31G(d) empiricaldispersion=gd3bj scf=xqc
 -----------------------------------------------------------

 -------------------------------
 CID_114954015_JID_7618_neutraal
 -------------------------------
 Symbolic Z-matrix:
 Charge =  0 Multiplicity = 1

 SCF Done:  E(RB3LYP) =  -763.627982595     A.U. after   14 cycles
 SCF Done:  E(RB3LYP) =  -763.634948692     A.U. after   12 cycles
 SCF Done:  E(RB3LYP) =  -763.636121529     A.U. after   12 cycles
 SCF Done:  E(RB3LYP) =  -763.637566977     A.U. after   12 cycles
 SCF Done:  E(RB3LYP) =  -763.638021781     A.U. after   12 cycles
 SCF Done:  E(RB3LYP) =  -763.638136120     A.U. after   11 cycles
 SCF Done:  E(RB3LYP) =  -763.638220107     A.U. after   11 cycles
 SCF Done:  E(RB3LYP) =  -763.638257626     A.U. after   10 cycles
 SCF Done:  E(RB3LYP) =  -763.638302992     A.U. after   10 cycles
 SCF Done:  E(RB3LYP) =  -763.638320901     A.U. after   10 cycles
 SCF Done:  E(RB3LYP) =  -763.638523134     A.U. after    9 cycles
 SCF Done:  E(RB3LYP) =  -763.638527966     A.U. after    9 cycles
 SCF Done:  E(RB3LYP) =  -763.638528939     A.U. after    8 cycles
 SCF Done:  E(RB3LYP) =  -763.638529644     A.U. after    8 cycles
 SCF Done:  E(RB3LYP) =  -763.638529731     A.U. after    7 cycles
 Optimization completed.
    -- Stationary point found.
 Normal termination of Gaussian 16 at Fri Dec 11 13:18:15 2020.

 --------------------------------------------------------------------
 #N Geom=AllCheck Guess=TCheck SCRF=Check GenChk RB3LYP/6-31G(d) Freq
 --------------------------------------------------------------------

 Structure from the checkpoint file:  "JID_7618.chk"
 -------------------------------
 CID_114954015_JID_7618_neutraal
 -------------------------------
 Charge =  0 Multiplicity = 1

 SCF Done:  E(RB3LYP) =  -763.638529731     A.U. after    1 cycles

  Exact polarizability: 195.289   5.546 166.617  12.863  -3.196 105.058
 Approx polarizability: 251.269  18.782 260.615  20.745 -14.933 161.872

                      1                      2                      3
                      A                      A                      A
 Frequencies --      8.0267                29.4691                42.5434
 Red. masses --      1.0167                 3.8961                 3.4285
 Frc consts  --      0.0000                 0.0020                 0.0037
 IR Inten    --      0.0911                 0.5710                 0.4677

                      4                      5                      6
                      A                      A                      A
 Frequencies --     49.4277                72.0307               106.6169
 Red. masses --      2.3719                 3.1363                 2.0015
 Frc consts  --      0.0034                 0.0096                 0.0134
 IR Inten    --      0.1742                 1.0920                 3.5787

                      7                      8                      9
                      A                      A                      A
 Frequencies --    143.3752               171.1981               176.9708
 Red. masses --      1.7381                 2.8489                 3.1793
 Frc consts  --      0.0211                 0.0492                 0.0587
 IR Inten    --      8.5606                 1.4378                 2.0861

                     10                     11                     12
                      A                      A                      A
 Frequencies --    199.3741               218.5856               228.0317
 Red. masses --      3.5266                 5.0500                 2.9077
 Frc consts  --      0.0826                 0.1422                 0.0891
 IR Inten    --      6.9965                 2.7582                 7.9577

                     13                     14                     15
                      A                      A                      A
 Frequencies --    241.4179               283.5411               309.3011
 Red. masses --      2.8786                 4.2854                 3.1344
 Frc consts  --      0.0988                 0.2030                 0.1767
 IR Inten    --      2.9393                 9.9633                 8.6949

                     16                     17                     18
                      A                      A                      A
 Frequencies --    322.9756               393.8326               409.1311
 Red. masses --      2.8206                 2.3637                 1.4971
 Frc consts  --      0.1734                 0.2160                 0.1476
 IR Inten    --      5.4921                10.6802                71.8138

                     19                     20                     21
                      A                      A                      A
 Frequencies --    419.7875               423.2716               473.0061
 Red. masses --      2.0603                 2.2728                 2.2426
 Frc consts  --      0.2139                 0.2399                 0.2956
 IR Inten    --     23.8378                 8.6970                 3.9500

                     22                     23                     24
                      A                      A                      A
 Frequencies --    485.2310               505.9755               544.2905
 Red. masses --      1.1989                 1.3328                 3.1541
 Frc consts  --      0.1663                 0.2010                 0.5505
 IR Inten    --    135.6741               254.6284                 3.3463

                     25                     26                     27
                      A                      A                      A
 Frequencies --    572.1074               602.7612               606.2629
 Red. masses --      4.5161                 2.7225                 2.4881
 Frc consts  --      0.8709                 0.5828                 0.5388
 IR Inten    --     28.8658                11.8704                 7.1162

                     28                     29                     30
                      A                      A                      A
 Frequencies --    621.7660               638.4158               693.6214
 Red. masses --      3.2859                 3.4472                 4.5662
 Frc consts  --      0.7484                 0.8278                 1.2943
 IR Inten    --      7.8894                 7.5040                11.1071

                     31                     32                     33
                      A                      A                      A
 Frequencies --    706.6344               768.1692               774.4006
 Red. masses --      8.9711                 1.6069                 2.3779
 Frc consts  --      2.6393                 0.5587                 0.8402
 IR Inten    --      5.9298                 1.3653                 2.1420

                     34                     35                     36
                      A                      A                      A
 Frequencies --    786.2070               812.9216               858.5629
 Red. masses --      1.5056                 3.6281                 2.1110
 Frc consts  --      0.5483                 1.4126                 0.9168
 IR Inten    --      1.3317                63.2456                 3.1907

                     37                     38                     39
                      A                      A                      A
 Frequencies --    896.5252               904.4903               919.7717
 Red. masses --      4.3717                 2.6034                 2.2040
 Frc consts  --      2.0703                 1.2549                 1.0986
 IR Inten    --      1.6559                 1.4696                 5.5744

                     40                     41                     42
                      A                      A                      A
 Frequencies --    937.5855               973.6147               998.7430
 Red. masses --      1.8555                 2.0660                 8.6337
 Frc consts  --      0.9610                 1.1538                 5.0741
 IR Inten    --      6.9826                 7.3472                18.4643

                     43                     44                     45
                      A                      A                      A
 Frequencies --   1008.3037              1027.1447              1035.3582
 Red. masses --      1.7311                 2.2541                 3.1471
 Frc consts  --      1.0370                 1.4011                 1.9876
 IR Inten    --     21.9052                16.2889                12.9515

                     46                     47                     48
                      A                      A                      A
 Frequencies --   1053.4321              1061.9102              1076.0817
 Red. masses --      1.7125                 1.5495                 1.6388
 Frc consts  --      1.1196                 1.0295                 1.1181
 IR Inten    --     12.7174                25.1276                10.0889

                     49                     50                     51
                      A                      A                      A
 Frequencies --   1089.9055              1098.7074              1116.4813
 Red. masses --      1.9574                 1.8543                 1.9582
 Frc consts  --      1.3699                 1.3188                 1.4381
 IR Inten    --     10.9395                38.8520                19.4376

                     52                     53                     54
                      A                      A                      A
 Frequencies --   1130.9472              1160.9182              1193.2478
 Red. masses --      1.6892                 1.3197                 1.7486
 Frc consts  --      1.2730                 1.0479                 1.4669
 IR Inten    --      2.9539                23.5513                32.3313

                     55                     56                     57
                      A                      A                      A
 Frequencies --   1217.1752              1239.0347              1251.0366
 Red. masses --      1.4850                 1.4255                 1.8345
 Frc consts  --      1.2963                 1.2894                 1.6916
 IR Inten    --     34.9406                10.3617                55.4779

                     58                     59                     60
                      A                      A                      A
 Frequencies --   1257.6386              1278.1589              1311.6464
 Red. masses --      3.2802                 1.3754                 1.3688
 Frc consts  --      3.0568                 1.3239                 1.3875
 IR Inten    --     22.8704                29.4466                 6.5643

                     61                     62                     63
                      A                      A                      A
 Frequencies --   1317.0120              1332.3589              1339.5617
 Red. masses --      1.5578                 5.6554                 1.3574
 Frc consts  --      1.5920                 5.9150                 1.4351
 IR Inten    --      7.1391                28.3510                48.9225

                     64                     65                     66
                      A                      A                      A
 Frequencies --   1356.5466              1365.1977              1372.7497
 Red. masses --      1.5517                 1.4458                 1.4049
 Frc consts  --      1.6824                 1.5876                 1.5598
 IR Inten    --     26.2611                13.3230                27.1402

                     67                     68                     69
                      A                      A                      A
 Frequencies --   1391.4397              1411.6910              1428.3985
 Red. masses --      1.5401                 1.5577                 1.6433
 Frc consts  --      1.7568                 1.8290                 1.9755
 IR Inten    --     32.3085                11.1729                23.4156

                     70                     71                     72
                      A                      A                      A
 Frequencies --   1454.6080              1458.0333              1483.3279
 Red. masses --      1.4500                 2.7536                 1.8772
 Frc consts  --      1.8076                 3.4489                 2.4336
 IR Inten    --     23.4690               130.6024                 2.4542

                     73                     74                     75
                      A                      A                      A
 Frequencies --   1503.6195              1505.7744              1507.6863
 Red. masses --      1.3792                 1.0888                 1.1073
 Frc consts  --      1.8371                 1.4545                 1.4830
 IR Inten    --     35.4303                 0.4024                 5.8282

                     76                     77                     78
                      A                      A                      A
 Frequencies --   1515.4419              1518.6360              1525.6212
 Red. masses --      1.0999                 1.0897                 1.3518
 Frc consts  --      1.4883                 1.4807                 1.8538
 IR Inten    --      4.5980                 2.5820                59.9151

                     79                     80                     81
                      A                      A                      A
 Frequencies --   1530.3722              1533.6563              1543.1157
 Red. masses --      1.1142                 1.1438                 1.1041
 Frc consts  --      1.5374                 1.5850                 1.5490
 IR Inten    --     16.6655                 4.8559                 0.6438

                     82                     83                     84
                      A                      A                      A
 Frequencies --   1560.3597              1607.7811              1644.2241
 Red. masses --      1.6286                 7.2996                 3.5529
 Frc consts  --      2.3363                11.1175                 5.6592
 IR Inten    --    118.3099               202.0483               555.1964

                     85                     86                     87
                      A                      A                      A
 Frequencies --   1672.6421              3026.6050              3034.5312
 Red. masses --      1.5007                 1.0546                 1.0665
 Frc consts  --      2.4738                 5.6915                 5.7864
 IR Inten    --    405.4377                63.5902                36.8751

                     88                     89                     90
                      A                      A                      A
 Frequencies --   3054.0833              3056.4278              3060.8864
 Red. masses --      1.0657                 1.0438                 1.0619
 Frc consts  --      5.8566                 5.7449                 5.8620
 IR Inten    --     16.7044                13.1639                25.7277

                     91                     92                     93
                      A                      A                      A
 Frequencies --   3068.9832              3077.2526              3101.1350
 Red. masses --      1.0638                 1.0632                 1.0958
 Frc consts  --      5.9032                 5.9319                 6.2092
 IR Inten    --     65.1591                31.2818                22.7194

                     94                     95                     96
                      A                      A                      A
 Frequencies --   3103.6530              3106.2984              3120.3763
 Red. masses --      1.1007                 1.1034                 1.1030
 Frc consts  --      6.2471                 6.2730                 6.3279
 IR Inten    --     12.1540                14.3385                 7.2723

                     97                     98                     99
                      A                      A                      A
 Frequencies --   3124.9068              3129.8003              3133.6431
 Red. masses --      1.0904                 1.1036                 1.0832
 Frc consts  --      6.2736                 6.3691                 6.2671
 IR Inten    --     14.5842                55.0841                21.8710

                    100                    101                    102
                      A                      A                      A
 Frequencies --   3165.4198              3196.5561              3251.9984
 Red. masses --      1.1051                 1.1016                 1.0898
 Frc consts  --      6.5240                 6.6320                 6.7902
 IR Inten    --     11.6447                 2.9995                 9.1928

                    103                    104                    105
                      A                      A                      A
 Frequencies --   3576.1886              3691.0180              3702.4846
 Red. masses --      1.0464                 1.1011                 1.0649
 Frc consts  --      7.8848                 8.8380                 8.6013
 IR Inten    --     36.6914                21.4980                17.3052

 - Thermochemistry -
 -------------------
 Temperature   298.150 Kelvin.  Pressure   1.00000 Atm.
 Atom     1 has atomic number  6 and mass  12.00000

 Molecular mass:   236.16371 amu.
 Principal axes and moments of inertia in atomic units:
                           1         2         3
     Eigenvalues --  2076.703456770.005818126.35869
           X            0.99987  -0.01504   0.00520
           Y            0.01499   0.99986   0.00801
           Z           -0.00532  -0.00793   0.99995
 This molecule is an asymmetric top.
 Rotational symmetry number  1.
 Warning -- assumption of classical behavior for rotation
           may cause significant error
 Rotational temperatures (Kelvin)      0.04171     0.01279     0.01066
 Rotational constants (GHZ):           0.86904     0.26658     0.22208
 Zero-point vibrational energy     846951.3 (Joules/Mol)
                                  202.42623 (Kcal/Mol)
 Warning -- explicit consideration of  27 degrees of freedom as
           vibrations may cause significant error
 Vibrational temperatures:     11.55    42.40    61.21    71.12   103.64
          (Kelvin)            153.40   206.28   246.32   254.62   286.85
                              314.50   328.09   347.35   407.95   445.02
                              464.69   566.64   588.65   603.98   608.99
                              680.55   698.14   727.99   783.11   823.13
                              867.24   872.28   894.58   918.54   997.97
                             1016.69  1105.22  1114.19  1131.18  1169.61
                             1235.28  1289.90  1301.36  1323.35  1348.98
                             1400.81  1436.97  1450.72  1477.83  1489.65
                             1515.65  1527.85  1548.24  1568.13  1580.79
                             1606.37  1627.18  1670.30  1716.82  1751.24
                             1782.69  1799.96  1809.46  1838.99  1887.17
                             1894.89  1916.97  1927.33  1951.77  1964.21
                             1975.08  2001.97  2031.11  2055.15  2092.86
                             2097.78  2134.18  2163.37  2166.47  2169.22
                             2180.38  2184.98  2195.03  2201.86  2206.59
                             2220.20  2245.01  2313.24  2365.67  2406.56
                             4354.61  4366.01  4394.14  4397.52  4403.93
                             4415.58  4427.48  4461.84  4465.46  4469.27
                             4489.53  4496.04  4503.08  4508.61  4554.33
                             4599.13  4678.90  5145.34  5310.55  5327.05

 Zero-point correction=                           0.322587 (Hartree/Particle)
 Thermal correction to Energy=                    0.339951
 Thermal correction to Enthalpy=                  0.340895
 Thermal correction to Gibbs Free Energy=         0.274926
 Sum of electronic and zero-point Energies=           -763.315943
 Sum of electronic and thermal Energies=              -763.298579
 Sum of electronic and thermal Enthalpies=            -763.297635
 Sum of electronic and thermal Free Energies=         -763.363604

                     E (Thermal)             CV                S
                      KCal/Mol        Cal/Mol-Kelvin    Cal/Mol-Kelvin
 Total                  213.322             65.836            138.844
 Electronic               0.000              0.000              0.000
 Translational            0.889              2.981             42.280
 Rotational               0.889              2.981             33.102
 Vibrational            211.545             59.875             63.462
 Vibration     1          0.593              1.987              8.448
 Vibration     2          0.593              1.984              5.865
 Vibration     3          0.595              1.980              5.137
 Vibration     4          0.595              1.978              4.840
 Vibration     5          0.598              1.967              4.097
 Vibration     6          0.605              1.944              3.330
 Vibration     7          0.616              1.910              2.758
 Vibration     8          0.626              1.878              2.422
 Vibration     9          0.628              1.871              2.360
 Vibration    10          0.637              1.841              2.139
 Vibration    11          0.646              1.813              1.971
 Vibration    12          0.651              1.798              1.894
 Vibration    13          0.658              1.777              1.792
 Vibration    14          0.682              1.704              1.512
 Vibration    15          0.699              1.656              1.366
 Vibration    16          0.708              1.629              1.295
 Vibration    17          0.761              1.483              0.986
 Vibration    18          0.773              1.450              0.930
 Vibration    19          0.782              1.427              0.893
 Vibration    20          0.785              1.420              0.881
 Vibration    21          0.830              1.310              0.729
 Vibration    22          0.841              1.283              0.696
 Vibration    23          0.861              1.237              0.643
 Vibration    24          0.899              1.152              0.556
 Vibration    25          0.928              1.092              0.500
 Vibration    26          0.961              1.026              0.445
 Vibration    27          0.965              1.019              0.439

                           ! Non-Optimized Parameters !
 Normal termination of Gaussian 16 at Fri Dec 11 13:34:00 2020.

 ----------------------------------------------------------------------
 # B3LYP/6-311++G(d,p) empiricaldispersion=gd3bj scf=xqc pop=npa geom=c
 heck
 ----------------------------------------------------------------------

 ---------------------------------------
 CID_114954015_JID_7618_Energie_neutraal
 ---------------------------------------
 Structure from the checkpoint file:  "JID_7618.chk"
 Charge =  0 Multiplicity = 1

 SCF Done:  E(RB3LYP) =  -763.859799604     A.U. after   14 cycles
 Normal termination of Gaussian 16 at Fri Dec 11 13:41:35 2020.

 ----------------------------------------------------------------------
 # B3LYP/6-311++G(d,p) empiricaldispersion=gd3bj scf=xqc pop=npa geom=c
 heck
 ----------------------------------------------------------------------

 -------------------------------------
 CID_114954015_JID_7618_Energie_kation
 -------------------------------------
 Structure from the checkpoint file:  "JID_7618.chk"
 Charge =  1 Multiplicity = 2

 SCF Done:  E(UB3LYP) =  -763.576954928     A.U. after   24 cycles
 Normal termination of Gaussian 16 at Fri Dec 11 13:59:16 2020.
 Gaussian 16:  ES64L-G16RevA.03 25-Dec-2016

 ----------------------------------------------------------------------
 # B3LYP/6-311++G(d,p) empiricaldispersion=gd3bj scf=xqc pop=npa geom=c
 heck
 ----------------------------------------------------------------------

 ------------------------------------
 CID_114954015_JID_7618_Energie_anion
 ------------------------------------
 Structure from the checkpoint file:  "JID_7618.chk"
 Charge = -1 Multiplicity = 2

                         Standard orientation:
 ---------------------------------------------------------------------
 Center     Atomic      Atomic             Coordinates (Angstroms)
 Number     Number       Type             X           Y           Z
 ---------------------------------------------------------------------
      1          6           0        4.612086   -1.063115    0.745582
      2          6           0        3.361893   -0.338546    0.321657
      3          7           0        3.468870    0.980497    0.131692
      4          6           0        2.346433    1.604489   -0.276229
      5          6           0        1.138688    0.930942   -0.481656
      6          6           0        1.143781   -0.454047   -0.252384
      7          7           0        2.268573   -1.086005    0.151364
      8          7           0        0.023173   -1.243697   -0.399906
      9          6           0        0.161833   -2.698417   -0.313450
     10          6           0       -1.178025   -0.757732   -1.075961
     11          6           0       -2.286562   -0.324197   -0.099082
     12          6           0       -3.660960   -0.198152   -0.780618
     13          6           0       -4.455649    0.862177    0.031770
     14          6           0       -3.490370    1.346127    1.140925
     15          6           0       -2.098616    1.052806    0.566071
     16          8           0       -2.432577   -1.327545    0.915546
     17          7           0        2.468044    2.954026   -0.515416
     18          1           0        4.361203   -1.934189    1.355551
     19          1           0        5.153205   -1.420200   -0.139977
     20          1           0        5.275423   -0.390652    1.294237
     21          1           0        0.256357    1.472615   -0.790883
     22          1           0        0.880718   -2.950236    0.463828
     23          1           0       -0.815248   -3.121261   -0.073349
     24          1           0        0.519089   -3.127543   -1.260838
     25          1           0       -0.929185    0.057391   -1.763114
     26          1           0       -1.563240   -1.580565   -1.687933
     27          1           0       -3.529566    0.122396   -1.821027
     28          1           0       -4.143932   -1.178956   -0.797928
     29          1           0       -5.379476    0.451865    0.449188
     30          1           0       -4.742692    1.697973   -0.616043
     31          1           0       -3.633980    0.752142    2.048269
     32          1           0       -3.634049    2.399611    1.401145
     33          1           0       -1.292966    1.055830    1.308146
     34          1           0       -1.846678    1.798114   -0.201146
     35          1           0       -1.566162   -1.382460    1.354367
     36          1           0        3.293697    3.374159   -0.109572
     37          1           0        1.630293    3.516581   -0.471181
 ---------------------------------------------------------------------

 SCF Done:  E(UB3LYP) =  -763.850589858     A.U. after   33 cycles
 SCF Done:  E(UB3LYP) =  -763.850589858     a.u. after    1 cycles

 The electronic state is 2-A.
 Alpha  occ. eigenvalues --  -19.02669 -14.24710 -14.22183 -14.19620 -14.19594
 Alpha  occ. eigenvalues --  -10.15349 -10.15109 -10.14373 -10.13114 -10.11189
 Alpha  occ. eigenvalues --  -10.10289 -10.07444 -10.06934 -10.06819 -10.06608
 Alpha  occ. eigenvalues --  -10.06425 -10.06376  -0.93466  -0.89623  -0.85975
 Alpha  occ. eigenvalues --   -0.81838  -0.75618  -0.73383  -0.68772  -0.65478
 Alpha  occ. eigenvalues --   -0.62878  -0.61614  -0.60061  -0.57806  -0.52586
 Alpha  occ. eigenvalues --   -0.50090  -0.48323  -0.46576  -0.45153  -0.43657
 Alpha  occ. eigenvalues --   -0.40697  -0.39573  -0.38924  -0.38238  -0.37063
 Alpha  occ. eigenvalues --   -0.35912  -0.35300  -0.34300  -0.33809  -0.32579
 Alpha  occ. eigenvalues --   -0.31759  -0.30652  -0.30478  -0.30324  -0.29933
 Alpha  occ. eigenvalues --   -0.28406  -0.26512  -0.25973  -0.25562  -0.24512
 Alpha  occ. eigenvalues --   -0.24177  -0.22980  -0.21881  -0.20677  -0.19805
 Alpha  occ. eigenvalues --   -0.18285  -0.15680  -0.14135  -0.12271   0.04172
 Alpha virt. eigenvalues --    0.06477   0.06852   0.07765   0.07903   0.08027
 Alpha virt. eigenvalues --    0.08602   0.09232   0.09418   0.09791   0.10250
 Alpha virt. eigenvalues --    0.10337   0.11021   0.11433   0.11543   0.12334

  Beta  occ. eigenvalues --  -19.02655 -14.24713 -14.22124 -14.19620 -14.19577
  Beta  occ. eigenvalues --  -10.15339 -10.15110 -10.14369 -10.13113 -10.11174
  Beta  occ. eigenvalues --  -10.10275 -10.07439 -10.06916 -10.06804 -10.06583
  Beta  occ. eigenvalues --  -10.06395 -10.06361  -0.93436  -0.89606  -0.85954
  Beta  occ. eigenvalues --   -0.81790  -0.75579  -0.73355  -0.68737  -0.65454
  Beta  occ. eigenvalues --   -0.62857  -0.61570  -0.60028  -0.57772  -0.52528
  Beta  occ. eigenvalues --   -0.50058  -0.48274  -0.46530  -0.45126  -0.43622
  Beta  occ. eigenvalues --   -0.40664  -0.39518  -0.38874  -0.38200  -0.37029
  Beta  occ. eigenvalues --   -0.35875  -0.35267  -0.34275  -0.33784  -0.32548
  Beta  occ. eigenvalues --   -0.31735  -0.30634  -0.30457  -0.30303  -0.29918
  Beta  occ. eigenvalues --   -0.28386  -0.26487  -0.25937  -0.25524  -0.24475
  Beta  occ. eigenvalues --   -0.24146  -0.22954  -0.21851  -0.20639  -0.19787
  Beta  occ. eigenvalues --   -0.18257  -0.15663  -0.14098  -0.12233
  Beta virt. eigenvalues --    0.06257   0.07123   0.07443   0.07935   0.08163
  Beta virt. eigenvalues --    0.08405   0.08907   0.09423   0.09603   0.09922
  Beta virt. eigenvalues --    0.10460   0.10835   0.11083   0.11630   0.11765

 Mulliken charges and spin densities:
               1          2
     1  C   -0.197507  -0.234111
     2  C   -0.277456   0.080517
     3  N   -0.029797  -0.096017
     4  C   -0.421680   0.522394
     5  C    0.261414  -0.179002
     6  C    0.308149  -0.607606
     7  N   -0.177302   0.079412
     8  N    0.127367   0.045361
     9  C    0.239956  -0.589565
    10  C    0.578375  -1.671871
    11  C   -0.982897   1.793409
    12  C    0.470160  -1.026371
    13  C    0.318383  -0.663867
    14  C   -0.027621  -0.540775
    15  C    0.225581  -0.461243
    16  O   -0.144498   0.003169
    17  N   -0.335408   0.041909
    18  H    0.081273   0.060512
    19  H    0.084507   0.076196
    20  H    0.117976   0.030813
    21  H   -0.225316   0.317758
    22  H    0.165000   0.025367
    23  H    0.038575   0.119293
    24  H   -0.031872   0.177509
    25  H   -0.215975   0.467580
    26  H    0.108767   0.078014
    27  H   -0.347935   0.506205
    28  H    0.083893   0.077903
    29  H    0.063154   0.069041
    30  H   -0.110143   0.254760
    31  H    0.160800  -0.017968
    32  H   -0.381502   0.562702
    33  H    0.013063   0.163479
    34  H   -0.091434   0.270952
    35  H    0.089596   0.184086
    36  H   -0.033067   0.310291
    37  H   -0.504578   0.769766
 Sum of Mulliken charges =  -1.00000   1.00000

 Dipole moment (field-independent basis, Debye):
    X=              1.3439    Y=             -7.0038    Z=              1.7581  Tot=              7.3451
 Quadrupole moment (field-independent basis, Debye-Ang):
   XX=           -169.9901   YY=           -163.9530   ZZ=           -133.7869
   XY=              0.1433   XZ=             -1.2072   YZ=              4.4114

 Summary of Natural Population Analysis:

                                       Natural Population
                Natural  -----------------------------------------------
    Atom  No    Charge         Core      Valence    Rydberg      Total
 -----------------------------------------------------------------------
      C    1   -0.30090      0.99963     2.29581    0.00545     3.30090
      C    2    0.23547      0.99960     1.74917    0.01576     2.76453
      N    3   -0.29534      0.99965     2.78461    0.01108     3.79534
      C    4    0.21478      0.99956     1.76998    0.01569     2.78522
      C    5   -0.18796      0.99947     2.18185    0.00664     3.18796
      C    6    0.22773      0.99951     1.75836    0.01440     2.77227
      N    7   -0.30203      0.99964     2.79156    0.01083     3.80203
      N    8   -0.25722      0.99965     2.74501    0.01256     3.75722
      C    9   -0.17838      0.99963     2.17192    0.00683     3.17838
      C   10   -0.10174      0.99955     2.08613    0.01605     3.10174
      C   11    0.16471      0.99951     1.82354    0.01224     2.83529
      C   12   -0.20676      0.99959     2.19455    0.01263     3.20676
      C   13   -0.19188      0.99965     2.18448    0.00775     3.19188
      C   14   -0.19226      0.99964     2.18300    0.00962     3.19226
      C   15   -0.21363      0.99958     2.19989    0.01417     3.21363
      O   16   -0.38496      0.99989     3.37601    0.00905     4.38496
      N   17   -0.38733      0.99970     2.87727    0.01036     3.88733
      H   18    0.10428      0.00000     0.39468    0.00104     0.39572
      H   19    0.10484      0.00000     0.39397    0.00120     0.39516
      H   20    0.10511      0.00000     0.39382    0.00107     0.39489
      H   21    0.11169      0.00000     0.38579    0.00252     0.38831
      H   22    0.11137      0.00000     0.38725    0.00138     0.38863
      H   23    0.09931      0.00000     0.39965    0.00104     0.40069
      H   24    0.08891      0.00000     0.40953    0.00156     0.41109
      H   25    0.10653      0.00000     0.39162    0.00184     0.39347
      H   26    0.09940      0.00000     0.39928    0.00132     0.40060
      H   27    0.10276      0.00000     0.39580    0.00144     0.39724
      H   28    0.10494      0.00000     0.39392    0.00113     0.39506
      H   29    0.09631      0.00000     0.40284    0.00085     0.40369
      H   30    0.09846      0.00000     0.40026    0.00127     0.40154
      H   31    0.09749      0.00000     0.40104    0.00147     0.40251
      H   32    0.10123      0.00000     0.39775    0.00103     0.39877
      H   33    0.10452      0.00000     0.39399    0.00149     0.39548
      H   34    0.10263      0.00000     0.39361    0.00376     0.39737
      H   35    0.22970      0.00000     0.26730    0.00300     0.27030
      H   36    0.19190      0.00000     0.30563    0.00246     0.30810
      H   37    0.19650      0.00000     0.29504    0.00846     0.30350
 =======================================================================
   * Total *    0.00019     16.99344    46.77590    0.23046    63.99981

 Normal termination of Gaussian 16 at Fri Dec 11 14:23:45 2020.
