 Gaussian 16, Revision A.03,

 -----------------------------------------------------------
 # opt freq B3LYP/6-31G(d) empiricaldispersion=gd3bj scf=xqc
 -----------------------------------------------------------

 ------------------------------
 CID_63994223_JID_8575_neutraal
 ------------------------------
 Symbolic Z-matrix:
 Charge =  0 Multiplicity = 1

 SCF Done:  E(RB3LYP) =  -785.664387210     A.U. after   15 cycles
 SCF Done:  E(RB3LYP) =  -785.670100933     A.U. after   13 cycles
 SCF Done:  E(RB3LYP) =  -785.671408589     A.U. after   12 cycles
 SCF Done:  E(RB3LYP) =  -785.672542541     A.U. after   12 cycles
 SCF Done:  E(RB3LYP) =  -785.672836720     A.U. after   12 cycles
 SCF Done:  E(RB3LYP) =  -785.672995075     A.U. after   12 cycles
 SCF Done:  E(RB3LYP) =  -785.673107028     A.U. after   10 cycles
 SCF Done:  E(RB3LYP) =  -785.673177965     A.U. after   11 cycles
 SCF Done:  E(RB3LYP) =  -785.673213812     A.U. after   11 cycles
 SCF Done:  E(RB3LYP) =  -785.673239603     A.U. after   10 cycles
 SCF Done:  E(RB3LYP) =  -785.673319091     A.U. after   10 cycles
 SCF Done:  E(RB3LYP) =  -785.673319928     A.U. after    8 cycles
 SCF Done:  E(RB3LYP) =  -785.673320354     A.U. after    8 cycles
 SCF Done:  E(RB3LYP) =  -785.673320459     A.U. after    8 cycles
 SCF Done:  E(RB3LYP) =  -785.673320494     A.U. after    7 cycles
 Optimization completed.
    -- Stationary point found.
 Normal termination of Gaussian 16 at Fri Dec 11 21:15:31 2020.

 --------------------------------------------------------------------
 #N Geom=AllCheck Guess=TCheck SCRF=Check GenChk RB3LYP/6-31G(d) Freq
 --------------------------------------------------------------------

 Structure from the checkpoint file:  "JID_8575.chk"
 ------------------------------
 CID_63994223_JID_8575_neutraal
 ------------------------------
 Charge =  0 Multiplicity = 1

 SCF Done:  E(RB3LYP) =  -785.673320494     A.U. after    1 cycles

  Exact polarizability: 198.580  -4.055 181.316  13.490   2.454 123.027
 Approx polarizability: 257.879  -3.646 294.547  28.062  -1.860 183.838

                      1                      2                      3
                      A                      A                      A
 Frequencies --     22.7589                33.5670                43.8885
 Red. masses --      4.1161                 3.9913                 3.2919
 Frc consts  --      0.0013                 0.0026                 0.0037
 IR Inten    --      0.1745                 0.6533                 0.1088

                      4                      5                      6
                      A                      A                      A
 Frequencies --     59.0261                67.2010                95.8526
 Red. masses --      3.8238                 4.7684                 2.9837
 Frc consts  --      0.0078                 0.0127                 0.0162
 IR Inten    --      0.6444                 1.6723                 0.3802

                      7                      8                      9
                      A                      A                      A
 Frequencies --    103.2381               130.1280               138.5754
 Red. masses --      2.9245                 1.6058                 1.8496
 Frc consts  --      0.0184                 0.0160                 0.0209
 IR Inten    --      1.8763                 0.9236                 3.3319

                     10                     11                     12
                      A                      A                      A
 Frequencies --    153.2624               157.3724               200.9574
 Red. masses --      2.0527                 2.9584                 3.5978
 Frc consts  --      0.0284                 0.0432                 0.0856
 IR Inten    --      0.3530                 2.3369                 2.1770

                     13                     14                     15
                      A                      A                      A
 Frequencies --    229.7707               243.8056               253.2978
 Red. masses --      2.6267                 2.2395                 2.7196
 Frc consts  --      0.0817                 0.0784                 0.1028
 IR Inten    --      0.2618                 1.4956                 3.7849

                     16                     17                     18
                      A                      A                      A
 Frequencies --    258.4787               301.4750               339.0372
 Red. masses --      2.0993                 3.4356                 4.2895
 Frc consts  --      0.0826                 0.1840                 0.2905
 IR Inten    --      1.0893                 1.8596                 6.3603

                     19                     20                     21
                      A                      A                      A
 Frequencies --    361.4103               400.1945               411.1129
 Red. masses --      2.8181                 1.8570                 2.3178
 Frc consts  --      0.2169                 0.1752                 0.2308
 IR Inten    --     12.4460                58.3426                33.9337

                     22                     23                     24
                      A                      A                      A
 Frequencies --    426.9790               439.2864               467.2291
 Red. masses --      2.5877                 3.9417                 2.8896
 Frc consts  --      0.2780                 0.4482                 0.3717
 IR Inten    --      1.6478                 3.8412                28.3611

                     25                     26                     27
                      A                      A                      A
 Frequencies --    514.3048               589.8002               602.1845
 Red. masses --      3.8600                 3.0120                 3.1622
 Frc consts  --      0.6016                 0.6173                 0.6756
 IR Inten    --      3.9263                36.0330                17.9733

                     28                     29                     30
                      A                      A                      A
 Frequencies --    648.8513               664.1299               714.1876
 Red. masses --      3.7207                 2.6019                 2.4556
 Frc consts  --      0.9229                 0.6762                 0.7380
 IR Inten    --     28.7607                15.2364                29.9340

                     31                     32                     33
                      A                      A                      A
 Frequencies --    759.7319               760.9634               777.5577
 Red. masses --      3.5066                 2.7614                 1.8063
 Frc consts  --      1.1925                 0.9421                 0.6434
 IR Inten    --      2.0050                12.5623                 0.2675

                     34                     35                     36
                      A                      A                      A
 Frequencies --    780.9165               799.5933               805.3332
 Red. masses --      2.7501                 1.3054                 1.3928
 Frc consts  --      0.9881                 0.4917                 0.5322
 IR Inten    --     48.2862                 6.3150                11.6782

                     37                     38                     39
                      A                      A                      A
 Frequencies --    845.3021               848.2965               874.3269
 Red. masses --      1.4154                 1.5116                 1.6894
 Frc consts  --      0.5959                 0.6409                 0.7609
 IR Inten    --     11.8141                 8.6775                10.2012

                     40                     41                     42
                      A                      A                      A
 Frequencies --    883.8239               897.0091               919.3518
 Red. masses --      1.9093                 2.0035                 2.9797
 Frc consts  --      0.8787                 0.9498                 1.4839
 IR Inten    --      7.0955                22.6010                 0.4666

                     43                     44                     45
                      A                      A                      A
 Frequencies --    946.1870               977.0829               988.3625
 Red. masses --      2.7959                 1.3545                 1.7054
 Frc consts  --      1.4748                 0.7619                 0.9815
 IR Inten    --     12.5925                 0.1166                 8.0252

                     46                     47                     48
                      A                      A                      A
 Frequencies --   1003.5921              1008.1883              1057.3144
 Red. masses --      2.3136                 3.7701                 1.5313
 Frc consts  --      1.3729                 2.2578                 1.0086
 IR Inten    --      5.5782                 2.1048                 7.4089

                     49                     50                     51
                      A                      A                      A
 Frequencies --   1064.2985              1072.1879              1086.6647
 Red. masses --      2.5215                 1.6331                 1.3792
 Frc consts  --      1.6828                 1.1062                 0.9595
 IR Inten    --      9.3488                 3.1839                 2.2221

                     52                     53                     54
                      A                      A                      A
 Frequencies --   1102.8742              1133.5385              1135.8679
 Red. masses --      1.9911                 1.7383                 1.4313
 Frc consts  --      1.4269                 1.3160                 1.0880
 IR Inten    --     13.9361                 1.5615                 2.2689

                     55                     56                     57
                      A                      A                      A
 Frequencies --   1154.4332              1160.0617              1161.9765
 Red. masses --      1.6470                 1.3194                 1.4457
 Frc consts  --      1.2932                 1.0461                 1.1500
 IR Inten    --      2.2338                24.3942                10.9200

                     58                     59                     60
                      A                      A                      A
 Frequencies --   1181.7962              1186.0222              1196.0509
 Red. masses --      3.1469                 1.6363                 1.9641
 Frc consts  --      2.5895                 1.3561                 1.6555
 IR Inten    --     43.2295                 3.6702                 5.2647

                     61                     62                     63
                      A                      A                      A
 Frequencies --   1214.1795              1239.9903              1283.4255
 Red. masses --      1.4166                 1.8170                 1.6362
 Frc consts  --      1.2305                 1.6460                 1.5879
 IR Inten    --      0.5078                 1.7360                42.9955

                     64                     65                     66
                      A                      A                      A
 Frequencies --   1287.3538              1301.9352              1332.4453
 Red. masses --      1.5889                 1.3108                 1.4129
 Frc consts  --      1.5515                 1.3091                 1.4780
 IR Inten    --      9.4180                 6.5297                26.1429

                     67                     68                     69
                      A                      A                      A
 Frequencies --   1340.6821              1365.3517              1370.4079
 Red. masses --      2.3692                 1.6680                 1.7332
 Frc consts  --      2.5090                 1.8321                 1.9178
 IR Inten    --     19.0182                16.4110                12.2265

                     70                     71                     72
                      A                      A                      A
 Frequencies --   1386.4206              1400.6960              1409.3752
 Red. masses --      1.3600                 3.0113                 1.5880
 Frc consts  --      1.5402                 3.4810                 1.8585
 IR Inten    --     30.6871               239.4145                86.6707

                     73                     74                     75
                      A                      A                      A
 Frequencies --   1417.0645              1440.6992              1448.6099
 Red. masses --      1.8855                 1.3367                 1.5017
 Frc consts  --      2.2308                 1.6347                 1.8566
 IR Inten    --     56.9596                 2.5568                 1.6877

                     76                     77                     78
                      A                      A                      A
 Frequencies --   1477.1749              1494.1643              1496.2555
 Red. masses --      1.2323                 1.3783                 1.1469
 Frc consts  --      1.5843                 1.8129                 1.5128
 IR Inten    --     27.5073                36.1427                 9.7791

                     79                     80                     81
                      A                      A                      A
 Frequencies --   1506.1520              1509.1872              1520.0813
 Red. masses --      1.0873                 1.1136                 1.0725
 Frc consts  --      1.4532                 1.4944                 1.4600
 IR Inten    --     35.6376                10.7457                 2.9017

                     82                     83                     84
                      A                      A                      A
 Frequencies --   1530.1051              1535.2666              1538.7198
 Red. masses --      1.0955                 1.3233                 1.1326
 Frc consts  --      1.5111                 1.8377                 1.5800
 IR Inten    --      3.2438                14.6704                 3.0366

                     85                     86                     87
                      A                      A                      A
 Frequencies --   1540.1878              1544.4887              1568.0406
 Red. masses --      1.2119                 2.0229                 1.7343
 Frc consts  --      1.6938                 2.8432                 2.5124
 IR Inten    --      2.9945                10.1614               195.4772

                     88                     89                     90
                      A                      A                      A
 Frequencies --   1618.2752              1666.1025              1768.0942
 Red. masses --      6.3508                 5.4494                 8.5022
 Frc consts  --      9.7990                 8.9126                15.6601
 IR Inten    --     80.0349               224.1869               350.0122

                     91                     92                     93
                      A                      A                      A
 Frequencies --   3029.6561              3038.6256              3048.2958
 Red. masses --      1.0501                 1.0615                 1.0590
 Frc consts  --      5.6787                 5.7746                 5.7979
 IR Inten    --     81.0912                32.2851                 7.0053

                     94                     95                     96
                      A                      A                      A
 Frequencies --   3051.1067              3077.6955              3080.5996
 Red. masses --      1.0389                 1.1004                 1.1011
 Frc consts  --      5.6981                 6.1414                 6.1566
 IR Inten    --     26.2229                35.8864                 7.9046

                     97                     98                     99
                      A                      A                      A
 Frequencies --   3110.3698              3114.9382              3117.9083
 Red. masses --      1.0893                 1.0854                 1.0979
 Frc consts  --      6.2093                 6.2051                 6.2881
 IR Inten    --      5.4406                35.4700                48.8442

                    100                    101                    102
                      A                      A                      A
 Frequencies --   3125.0777              3144.0158              3148.6365
 Red. masses --      1.1015                 1.0518                 1.0648
 Frc consts  --      6.3380                 6.1258                 6.2195
 IR Inten    --     47.5872                20.4851                24.7998

                    103                    104                    105
                      A                      A                      A
 Frequencies --   3152.4673              3158.2673              3171.6670
 Red. masses --      1.0813                 1.1042                 1.0900
 Frc consts  --      6.3314                 6.4891                 6.4603
 IR Inten    --      5.3659                15.4959                36.3359

                    106                    107                    108
                      A                      A                      A
 Frequencies --   3195.7701              3218.4512              3232.9056
 Red. masses --      1.0903                 1.1192                 1.1158
 Frc consts  --      6.5605                 6.8302                 6.8709
 IR Inten    --      7.0342                 0.3572                26.1286

                    109                    110                    111
                      A                      A                      A
 Frequencies --   3237.9777              3559.1178              3621.6282
 Red. masses --      1.0931                 1.0744                 1.0765
 Frc consts  --      6.7525                 8.0185                 8.3188
 IR Inten    --      4.0287                12.8722                19.6550

 - Thermochemistry -
 -------------------
 Temperature   298.150 Kelvin.  Pressure   1.00000 Atm.
 Atom     1 has atomic number  6 and mass  12.00000

 Molecular mass:   247.16846 amu.
 Principal axes and moments of inertia in atomic units:
                           1         2         3
     Eigenvalues --  2974.269288271.423139388.55440
           X            0.99997  -0.00626  -0.00481
           Y            0.00646   0.99911   0.04170
           Z            0.00455  -0.04173   0.99912
 This molecule is an asymmetric top.
 Rotational symmetry number  1.
 Warning -- assumption of classical behavior for rotation
           may cause significant error
 Rotational temperatures (Kelvin)      0.02912     0.01047     0.00923
 Rotational constants (GHZ):           0.60678     0.21819     0.19223
 Zero-point vibrational energy     890178.2 (Joules/Mol)
                                  212.75770 (Kcal/Mol)
 Warning -- explicit consideration of  27 degrees of freedom as
           vibrations may cause significant error
 Vibrational temperatures:     32.74    48.30    63.15    84.93    96.69
          (Kelvin)            137.91   148.54   187.23   199.38   220.51
                              226.42   289.13   330.59   350.78   364.44
                              371.89   433.76   487.80   519.99   575.79
                              591.50   614.33   632.04   672.24   739.97
                              848.59   866.41   933.55   955.53  1027.56
                             1093.08  1094.86  1118.73  1123.56  1150.44
                             1158.69  1216.20  1220.51  1257.96  1271.63
                             1290.60  1322.74  1361.35  1405.80  1422.03
                             1443.95  1450.56  1521.24  1531.29  1542.64
                             1563.47  1586.79  1630.91  1634.26  1660.97
                             1669.07  1671.83  1700.34  1706.42  1720.85
                             1746.93  1784.07  1846.56  1852.21  1873.19
                             1917.09  1928.94  1964.44  1971.71  1994.75
                             2015.29  2027.78  2038.84  2072.84  2084.23
                             2125.33  2149.77  2152.78  2167.02  2171.38
                             2187.06  2201.48  2208.91  2213.87  2215.99
                             2222.17  2256.06  2328.34  2397.15  2543.89
                             4359.00  4371.90  4385.82  4389.86  4428.12
                             4432.30  4475.13  4481.70  4485.97  4496.29
                             4523.54  4530.19  4535.70  4544.04  4563.32
                             4598.00  4630.63  4651.43  4658.73  5120.78
                             5210.72

 Zero-point correction=                           0.339051 (Hartree/Particle)
 Thermal correction to Energy=                    0.357733
 Thermal correction to Enthalpy=                  0.358677
 Thermal correction to Gibbs Free Energy=         0.290413
 Sum of electronic and zero-point Energies=           -785.334270
 Sum of electronic and thermal Energies=              -785.315587
 Sum of electronic and thermal Enthalpies=            -785.314643
 Sum of electronic and thermal Free Energies=         -785.382907

                     E (Thermal)             CV                S
                      KCal/Mol        Cal/Mol-Kelvin    Cal/Mol-Kelvin
 Total                  224.481             69.584            143.674
 Electronic               0.000              0.000              0.000
 Translational            0.889              2.981             42.415
 Rotational               0.889              2.981             33.801
 Vibrational            222.703             63.622             67.458
 Vibration     1          0.593              1.985              6.378
 Vibration     2          0.594              1.983              5.607
 Vibration     3          0.595              1.980              5.075
 Vibration     4          0.596              1.974              4.489
 Vibration     5          0.598              1.970              4.234
 Vibration     6          0.603              1.952              3.537
 Vibration     7          0.605              1.947              3.392
 Vibration     8          0.612              1.923              2.944
 Vibration     9          0.614              1.915              2.823
 Vibration    10          0.619              1.899              2.631
 Vibration    11          0.621              1.894              2.581
 Vibration    12          0.638              1.839              2.124
 Vibration    13          0.652              1.796              1.881
 Vibration    14          0.659              1.773              1.775
 Vibration    15          0.664              1.757              1.708
 Vibration    16          0.667              1.748              1.672
 Vibration    17          0.693              1.671              1.409
 Vibration    18          0.719              1.597              1.217
 Vibration    19          0.736              1.552              1.116
 Vibration    20          0.766              1.470              0.962
 Vibration    21          0.775              1.446              0.923
 Vibration    22          0.789              1.412              0.869
 Vibration    23          0.799              1.385              0.829
 Vibration    24          0.825              1.323              0.745
 Vibration    25          0.869              1.218              0.623
 Vibration    26          0.947              1.054              0.468
 Vibration    27          0.960              1.027              0.446

                           ! Non-Optimized Parameters !
 Normal termination of Gaussian 16 at Fri Dec 11 21:32:25 2020.

 ----------------------------------------------------------------------
 # B3LYP/6-311++G(d,p) empiricaldispersion=gd3bj scf=xqc pop=npa geom=c
 heck
 ----------------------------------------------------------------------

 --------------------------------------
 CID_63994223_JID_8575_Energie_neutraal
 --------------------------------------
 Structure from the checkpoint file:  "JID_8575.chk"
 Charge =  0 Multiplicity = 1

 SCF Done:  E(RB3LYP) =  -785.894236725     A.U. after   16 cycles
 Normal termination of Gaussian 16 at Fri Dec 11 21:39:59 2020.

 ----------------------------------------------------------------------
 # B3LYP/6-311++G(d,p) empiricaldispersion=gd3bj scf=xqc pop=npa geom=c
 heck
 ----------------------------------------------------------------------

 ------------------------------------
 CID_63994223_JID_8575_Energie_kation
 ------------------------------------
 Structure from the checkpoint file:  "JID_8575.chk"
 Charge =  1 Multiplicity = 2

 SCF Done:  E(UB3LYP) =  -785.608142883     A.U. after   26 cycles
 Normal termination of Gaussian 16 at Fri Dec 11 21:56:27 2020.
 Gaussian 16:  ES64L-G16RevA.03 25-Dec-2016

 ----------------------------------------------------------------------
 # B3LYP/6-311++G(d,p) empiricaldispersion=gd3bj scf=xqc pop=npa geom=c
 heck
 ----------------------------------------------------------------------

 -----------------------------------
 CID_63994223_JID_8575_Energie_anion
 -----------------------------------
 Structure from the checkpoint file:  "JID_8575.chk"
 Charge = -1 Multiplicity = 2

                         Standard orientation:
 ---------------------------------------------------------------------
 Center     Atomic      Atomic             Coordinates (Angstroms)
 Number     Number       Type             X           Y           Z
 ---------------------------------------------------------------------
      1          6           0       -2.525991    0.293688    2.746799
      2          6           0       -2.243512    1.037778    1.439405
      3          6           0       -1.414859    0.229036    0.424820
      4          6           0       -2.091631   -1.064502   -0.066862
      5          6           0       -3.341500   -0.850978   -0.895341
      6          6           0       -4.358214   -1.957246   -1.026577
      7          6           0       -4.699589   -0.712471   -0.245980
      8          7           0       -1.065439    1.083409   -0.719534
      9          6           0        0.125641    1.732650   -0.941373
     10          8           0        0.179423    2.772267   -1.589505
     11          6           0        1.380492    1.095715   -0.413311
     12          6           0        1.621536   -0.266828   -0.516916
     13          6           0        2.859012   -0.774798   -0.059851
     14          7           0        3.804151    0.009199    0.479574
     15          6           0        3.547110    1.322357    0.567096
     16          6           0        2.374884    1.922924    0.130990
     17          7           0        3.121466   -2.125115   -0.125582
     18          6           0        4.460380   -2.637573    0.110980
     19          1           0       -3.168182   -0.579701    2.593414
     20          1           0       -3.029793    0.949990    3.464121
     21          1           0       -1.595521   -0.055026    3.211077
     22          1           0       -3.187547    1.347429    0.973637
     23          1           0       -1.686095    1.956809    1.658555
     24          1           0       -0.475253   -0.049314    0.908059
     25          1           0       -1.359143   -1.621780   -0.665794
     26          1           0       -2.328190   -1.696108    0.798353
     27          1           0       -3.183232   -0.258596   -1.794805
     28          1           0       -4.835017   -2.110665   -1.990355
     29          1           0       -4.181862   -2.873291   -0.468103
     30          1           0       -4.758264   -0.794643    0.835783
     31          1           0       -5.410579   -0.011589   -0.674504
     32          1           0       -1.838565    1.613398   -1.109566
     33          1           0        0.883569   -0.931160   -0.956653
     34          1           0        4.340276    1.924635    1.006895
     35          1           0        2.223255    2.993885    0.191311
     36          1           0        2.552428   -2.644328   -0.778558
     37          1           0        4.426448   -3.729060    0.061672
     38          1           0        5.194197   -2.264232   -0.617470
     39          1           0        4.797884   -2.335746    1.104504
 ---------------------------------------------------------------------

 SCF Done:  E(UB3LYP) =  -785.891972013     A.U. after   33 cycles
 SCF Done:  E(UB3LYP) =  -785.891972012     a.u. after    1 cycles

 The electronic state is 2-A.
 Alpha  occ. eigenvalues --  -18.96220 -14.21620 -14.21576 -14.16896 -10.14358
 Alpha  occ. eigenvalues --  -10.12054 -10.11021 -10.09560 -10.08928 -10.08476
 Alpha  occ. eigenvalues --  -10.08409 -10.07672 -10.07659 -10.07513 -10.07473
 Alpha  occ. eigenvalues --  -10.05712 -10.04631 -10.04449  -0.91501  -0.85040
 Alpha  occ. eigenvalues --   -0.81226  -0.78430  -0.77278  -0.69526  -0.68136
 Alpha  occ. eigenvalues --   -0.64039  -0.63689  -0.58080  -0.56687  -0.52927
 Alpha  occ. eigenvalues --   -0.51618  -0.51370  -0.50600  -0.47553  -0.45739
 Alpha  occ. eigenvalues --   -0.41920  -0.40720  -0.39660  -0.38635  -0.37315
 Alpha  occ. eigenvalues --   -0.36606  -0.35929  -0.34319  -0.33718  -0.33027
 Alpha  occ. eigenvalues --   -0.32486  -0.31254  -0.30968  -0.30641  -0.29117
 Alpha  occ. eigenvalues --   -0.28776  -0.28169  -0.28028  -0.27293  -0.26887
 Alpha  occ. eigenvalues --   -0.26058  -0.25029  -0.24714  -0.24085  -0.20418
 Alpha  occ. eigenvalues --   -0.19705  -0.19108  -0.16452  -0.14779  -0.14329
 Alpha  occ. eigenvalues --   -0.12997  -0.09774   0.04082
 Alpha virt. eigenvalues --    0.05751   0.06379   0.06628   0.07421   0.08322
 Alpha virt. eigenvalues --    0.08693   0.09312   0.09693   0.10193   0.10364
 Alpha virt. eigenvalues --    0.10954   0.11135   0.11567   0.11953   0.12540

  Beta  occ. eigenvalues --  -18.96061 -14.21607 -14.21563 -14.16669 -10.14245
  Beta  occ. eigenvalues --  -10.12089 -10.11018 -10.09552 -10.08919 -10.08462
  Beta  occ. eigenvalues --  -10.08395 -10.07669 -10.07650 -10.07454 -10.07425
  Beta  occ. eigenvalues --  -10.05512 -10.04490 -10.04472  -0.91219  -0.84896
  Beta  occ. eigenvalues --   -0.81132  -0.78218  -0.77258  -0.69442  -0.67769
  Beta  occ. eigenvalues --   -0.64008  -0.63537  -0.57949  -0.56639  -0.52512
  Beta  occ. eigenvalues --   -0.51568  -0.51296  -0.50541  -0.47488  -0.45599
  Beta  occ. eigenvalues --   -0.41820  -0.40685  -0.39563  -0.38569  -0.37260
  Beta  occ. eigenvalues --   -0.36503  -0.35879  -0.34204  -0.33573  -0.32899
  Beta  occ. eigenvalues --   -0.32359  -0.31159  -0.30909  -0.30559  -0.29070
  Beta  occ. eigenvalues --   -0.28591  -0.28149  -0.27610  -0.27175  -0.26492
  Beta  occ. eigenvalues --   -0.25941  -0.24990  -0.24566  -0.23982  -0.20390
  Beta  occ. eigenvalues --   -0.19658  -0.18830  -0.15420  -0.14467  -0.13984
  Beta  occ. eigenvalues --   -0.12589  -0.09283
  Beta virt. eigenvalues --    0.05992   0.06698   0.06920   0.07535   0.08318
  Beta virt. eigenvalues --    0.08643   0.08801   0.09373   0.09725   0.10263
  Beta virt. eigenvalues --    0.10461   0.11009   0.11226   0.11561   0.12037

 Mulliken charges and spin densities:
               1          2
     1  C   -0.140443  -0.545550
     2  C   -0.890001   0.631459
     3  C    0.282425  -0.383135
     4  C    0.855251  -1.412641
     5  C   -1.579087   1.782202
     6  C    0.256093  -0.692609
     7  C    0.361777  -0.792898
     8  N   -0.038024   0.095138
     9  C   -0.354508  -0.270818
    10  O   -0.347473   0.057497
    11  C    1.141122  -0.126240
    12  C   -0.557350   0.353193
    13  C   -0.454881   0.007387
    14  N   -0.150484   0.081670
    15  C   -0.242569   0.037212
    16  C    0.053933  -0.020149
    17  N   -0.089163   0.016980
    18  C   -0.125330  -0.227151
    19  H   -0.041824   0.166857
    20  H   -0.117997   0.254157
    21  H    0.047082   0.100940
    22  H    0.093961   0.065634
    23  H    0.130516   0.061593
    24  H    0.414251  -0.206992
    25  H    0.087612   0.029174
    26  H    0.016167   0.132168
    27  H   -0.061572   0.287005
    28  H   -0.083933   0.229787
    29  H   -0.110345   0.243634
    30  H    0.027404   0.102266
    31  H   -0.021710   0.166725
    32  H    0.282908  -0.020627
    33  H   -0.110705   0.267494
    34  H    0.119409   0.008514
    35  H    0.171034   0.011197
    36  H    0.015385   0.234977
    37  H   -0.059768   0.171648
    38  H    0.086864   0.067252
    39  H    0.133974   0.035049
 Sum of Mulliken charges =  -1.00000   1.00000

 Dipole moment (field-independent basis, Debye):
    X=             -1.6256    Y=             -1.1765    Z=              2.0892  Tot=              2.8968
 Quadrupole moment (field-independent basis, Debye-Ang):
   XX=           -180.4138   YY=           -149.1387   ZZ=           -141.3630
   XY=             -6.6639   XZ=              1.8624   YZ=              6.6077

 Summary of Natural Population Analysis:

                                       Natural Population
                Natural  -----------------------------------------------
    Atom  No    Charge         Core      Valence    Rydberg      Total
 -----------------------------------------------------------------------
      C    1   -0.28864      0.99967     2.28370    0.00527     3.28864
      C    2   -0.19522      0.99962     2.18656    0.00904     3.19522
      C    3   -0.01062      0.99957     1.99985    0.01119     3.01062
      C    4   -0.19258      0.99959     2.18253    0.01047     3.19258
      C    5   -0.11953      0.99959     2.10798    0.01197     3.11953
      C    6   -0.19477      0.99962     2.18861    0.00655     3.19477
      C    7   -0.19992      0.99962     2.19380    0.00650     3.19992
      N    8   -0.32478      0.99967     2.81487    0.01024     3.82478
      C    9    0.35467      0.99962     1.62348    0.02224     2.64533
      O   10   -0.30879      0.99988     3.30373    0.00519     4.30879
      C   11   -0.01194      0.99946     2.00093    0.01154     3.01194
      C   12   -0.11475      0.99949     2.10717    0.00810     3.11475
      C   13    0.19313      0.99954     1.79057    0.01676     2.80687
      N   14   -0.24157      0.99967     2.73220    0.00970     3.74157
      C   15    0.04229      0.99960     1.94383    0.01428     2.95771
      C   16   -0.13659      0.99952     2.12914    0.00793     3.13659
      N   17   -0.31391      0.99967     2.80405    0.01019     3.81391
      C   18   -0.17939      0.99966     2.17020    0.00953     3.17939
      H   19    0.09575      0.00000     0.40319    0.00105     0.40425
      H   20    0.09903      0.00000     0.40019    0.00079     0.40097
      H   21    0.09814      0.00000     0.40105    0.00080     0.40186
      H   22    0.09539      0.00000     0.40338    0.00123     0.40461
      H   23    0.10098      0.00000     0.39801    0.00102     0.39902
      H   24    0.10909      0.00000     0.38894    0.00197     0.39091
      H   25    0.10428      0.00000     0.39433    0.00140     0.39572
      H   26    0.09763      0.00000     0.40105    0.00132     0.40237
      H   27    0.10469      0.00000     0.39394    0.00138     0.39531
      H   28    0.10086      0.00000     0.39810    0.00104     0.39914
      H   29    0.10018      0.00000     0.39874    0.00107     0.39982
      H   30    0.10105      0.00000     0.39782    0.00113     0.39895
      H   31    0.10071      0.00000     0.39821    0.00108     0.39929
      H   32    0.18627      0.00000     0.31091    0.00282     0.31373
      H   33    0.09858      0.00000     0.39937    0.00205     0.40142
      H   34    0.08105      0.00000     0.41795    0.00101     0.41895
      H   35    0.10571      0.00000     0.39332    0.00097     0.39429
      H   36    0.18548      0.00000     0.31191    0.00261     0.31452
      H   37    0.08967      0.00000     0.40959    0.00074     0.41033
      H   38    0.08704      0.00000     0.41153    0.00143     0.41296
      H   39    0.10133      0.00000     0.39737    0.00131     0.39867
 =======================================================================
   * Total *    0.00000     17.99304    48.79206    0.21489    67.00000

 Normal termination of Gaussian 16 at Fri Dec 11 22:18:09 2020.
