 Gaussian 16, Revision A.03,

 -----------------------------------------------------------
 # opt freq B3LYP/6-31G(d) empiricaldispersion=gd3bj scf=xqc
 -----------------------------------------------------------

 --------------------------------
 CID_106081893_JID_10851_neutraal
 --------------------------------
 Symbolic Z-matrix:
 Charge =  0 Multiplicity = 1

 SCF Done:  E(RB3LYP) =  -1648.71227931     A.U. after   15 cycles
 SCF Done:  E(RB3LYP) =  -1648.72683797     A.U. after   13 cycles
 SCF Done:  E(RB3LYP) =  -1648.72439022     A.U. after   15 cycles
 SCF Done:  E(RB3LYP) =  -1648.72779097     A.U. after   12 cycles
 SCF Done:  E(RB3LYP) =  -1648.72976227     A.U. after   14 cycles
 SCF Done:  E(RB3LYP) =  -1648.72512395     A.U. after   15 cycles
 SCF Done:  E(RB3LYP) =  -1648.73096995     A.U. after   14 cycles
 SCF Done:  E(RB3LYP) =  -1648.73172193     A.U. after   12 cycles
 SCF Done:  E(RB3LYP) =  -1648.73228568     A.U. after   13 cycles
 SCF Done:  E(RB3LYP) =  -1648.73284029     A.U. after   13 cycles
 SCF Done:  E(RB3LYP) =  -1648.73311920     A.U. after    8 cycles
 SCF Done:  E(RB3LYP) =  -1648.73312095     A.U. after   10 cycles
 SCF Done:  E(RB3LYP) =  -1648.73312186     A.U. after    9 cycles
 SCF Done:  E(RB3LYP) =  -1648.73312248     A.U. after    8 cycles
 SCF Done:  E(RB3LYP) =  -1648.73312322     A.U. after    8 cycles
 SCF Done:  E(RB3LYP) =  -1648.73312346     A.U. after    7 cycles
 Optimization completed.
    -- Stationary point found.
 Normal termination of Gaussian 16 at Mon Dec 14 14:04:12 2020.

 --------------------------------------------------------------------
 #N Geom=AllCheck Guess=TCheck SCRF=Check GenChk RB3LYP/6-31G(d) Freq
 --------------------------------------------------------------------

 Structure from the checkpoint file:  "JID_10851.chk"
 --------------------------------
 CID_106081893_JID_10851_neutraal
 --------------------------------
 Charge =  0 Multiplicity = 1

 SCF Done:  E(RB3LYP) =  -1648.73312346     A.U. after    1 cycles

  Exact polarizability: 197.689 -16.445 190.693 -13.063   8.839 144.345
 Approx polarizability: 306.885 -24.277 285.092 -33.727  25.687 282.737

                      1                      2                      3
                      A                      A                      A
 Frequencies --     15.3944                23.2526                32.1314
 Red. masses --      6.4254                 4.1586                 5.8555
 Frc consts  --      0.0009                 0.0013                 0.0036
 IR Inten    --      0.2236                 0.3579                 0.2184

                      4                      5                      6
                      A                      A                      A
 Frequencies --     49.7833                70.8394                91.6401
 Red. masses --      3.7756                 4.4030                 4.2503
 Frc consts  --      0.0055                 0.0130                 0.0210
 IR Inten    --      0.7531                 0.3413                 0.6980

                      7                      8                      9
                      A                      A                      A
 Frequencies --     96.1406               116.3456               134.1316
 Red. masses --      6.3576                 5.2574                 8.4902
 Frc consts  --      0.0346                 0.0419                 0.0900
 IR Inten    --      1.8264                 0.5228                 2.1892

                     10                     11                     12
                      A                      A                      A
 Frequencies --    181.0079               198.4309               222.4626
 Red. masses --      5.9497                 3.9262                 2.0711
 Frc consts  --      0.1149                 0.0911                 0.0604
 IR Inten    --      7.1271                 0.0908                 0.6395

                     13                     14                     15
                      A                      A                      A
 Frequencies --    238.6162               262.5337               274.1380
 Red. masses --      1.5945                 2.3794                 1.3361
 Frc consts  --      0.0535                 0.0966                 0.0592
 IR Inten    --      0.1785                 0.2907                 0.3511

                     16                     17                     18
                      A                      A                      A
 Frequencies --    287.0826               301.0956               302.4883
 Red. masses --      9.0487                 2.9924                 7.2061
 Frc consts  --      0.4394                 0.1598                 0.3885
 IR Inten    --      5.4855                 2.8045                 2.8342

                     19                     20                     21
                      A                      A                      A
 Frequencies --    307.8797               318.6795               386.3653
 Red. masses --      6.0529                 8.6663                 2.0950
 Frc consts  --      0.3380                 0.5186                 0.1843
 IR Inten    --      2.1710                 0.4964                 1.0024

                     22                     23                     24
                      A                      A                      A
 Frequencies --    394.3072               413.3837               452.2566
 Red. masses --      5.9606                 7.4416                 1.9290
 Frc consts  --      0.5460                 0.7492                 0.2325
 IR Inten    --      8.7475                 4.5414                 8.0902

                     25                     26                     27
                      A                      A                      A
 Frequencies --    487.8157               521.6033               527.5148
 Red. masses --      4.9596                 1.7625                 2.7899
 Frc consts  --      0.6954                 0.2825                 0.4574
 IR Inten    --      6.3702                42.0782                72.0854

                     28                     29                     30
                      A                      A                      A
 Frequencies --    534.6774               548.6171               575.5528
 Red. masses --      3.5847                 3.7912                 7.2149
 Frc consts  --      0.6038                 0.6723                 1.4082
 IR Inten    --      0.2653                 8.5154               144.4340

                     31                     32                     33
                      A                      A                      A
 Frequencies --    594.9199               629.0090               647.0903
 Red. masses --      4.5901                 4.2044                 9.3285
 Frc consts  --      0.9572                 0.9801                 2.3014
 IR Inten    --     80.7772                60.6391                33.9287

                     34                     35                     36
                      A                      A                      A
 Frequencies --    684.2491               699.7759               753.2712
 Red. masses --      2.3321                 7.3124                 2.5160
 Frc consts  --      0.6433                 2.1097                 0.8411
 IR Inten    --     59.5518                15.9360                32.9864

                     37                     38                     39
                      A                      A                      A
 Frequencies --    780.1432               803.6601               815.5013
 Red. masses --      1.5957                 6.1397                 7.1339
 Frc consts  --      0.5722                 2.3364                 2.7953
 IR Inten    --     24.5325                89.5620                24.6509

                     40                     41                     42
                      A                      A                      A
 Frequencies --    826.1364               854.6238               855.2815
 Red. masses --      1.8039                 1.9449                 2.6210
 Frc consts  --      0.7254                 0.8369                 1.1296
 IR Inten    --     32.2510                10.2409                32.7505

                     43                     44                     45
                      A                      A                      A
 Frequencies --    866.5853               915.4640               926.5327
 Red. masses --      1.2452                 6.7863                 5.2136
 Frc consts  --      0.5510                 3.3509                 2.6370
 IR Inten    --     22.7696                24.4908                63.0330

                     46                     47                     48
                      A                      A                      A
 Frequencies --    927.7512               936.7920               956.4197
 Red. masses --      2.0422                 1.3052                 1.4525
 Frc consts  --      1.0356                 0.6749                 0.7828
 IR Inten    --      7.0074                 2.5923                 0.3591

                     49                     50                     51
                      A                      A                      A
 Frequencies --    986.8295               992.6321              1035.4115
 Red. masses --      1.4428                 1.6529                 9.3717
 Frc consts  --      0.8278                 0.9596                 5.9197
 IR Inten    --      0.7036                 6.2914                 9.1868

                     52                     53                     54
                      A                      A                      A
 Frequencies --   1091.7834              1102.4863              1112.6601
 Red. masses --      2.5851                 2.6009                 2.9844
 Frc consts  --      1.8155                 1.8626                 2.1769
 IR Inten    --     35.4763                19.1031                77.1014

                     55                     56                     57
                      A                      A                      A
 Frequencies --   1141.5198              1145.7666              1151.2807
 Red. masses --      3.5295                 3.6004                 2.3329
 Frc consts  --      2.7097                 2.7848                 1.8219
 IR Inten    --     88.5374                33.7561                46.8031

                     58                     59                     60
                      A                      A                      A
 Frequencies --   1157.0053              1180.1374              1190.3195
 Red. masses --      4.5108                 2.0397                 1.6178
 Frc consts  --      3.5577                 1.6737                 1.3505
 IR Inten    --     95.1275                18.8437                11.9115

                     61                     62                     63
                      A                      A                      A
 Frequencies --   1206.8990              1226.1336              1308.1958
 Red. masses --      2.0092                 1.5457                 1.4597
 Frc consts  --      1.7243                 1.3691                 1.4718
 IR Inten    --     25.5575                28.6181                 3.6973

                     64                     65                     66
                      A                      A                      A
 Frequencies --   1311.4408              1364.9510              1367.4933
 Red. masses --      1.8284                 1.4905                 1.7204
 Frc consts  --      1.8527                 1.6362                 1.8955
 IR Inten    --     16.2891                 2.4815                18.8930

                     67                     68                     69
                      A                      A                      A
 Frequencies --   1370.5184              1374.4327              1388.4180
 Red. masses --      2.2326                 2.2434                 2.0390
 Frc consts  --      2.4708                 2.4969                 2.3159
 IR Inten    --     45.0636                49.7456                 0.7066

                     70                     71                     72
                      A                      A                      A
 Frequencies --   1415.0364              1425.8071              1443.7777
 Red. masses --      1.4262                 1.2786                 1.2397
 Frc consts  --      1.6826                 1.5315                 1.5226
 IR Inten    --      9.7019                 3.9819                 7.6891

                     73                     74                     75
                      A                      A                      A
 Frequencies --   1474.4913              1491.6036              1497.4221
 Red. masses --      2.1559                 1.5624                 4.1260
 Frc consts  --      2.7616                 2.0480                 5.4509
 IR Inten    --     33.7629                16.8827               477.0990

                     76                     77                     78
                      A                      A                      A
 Frequencies --   1501.9132              1512.5123              1513.5136
 Red. masses --      2.4459                 1.0784                 1.0884
 Frc consts  --      3.2507                 1.4535                 1.4689
 IR Inten    --     19.4266                 9.0443                10.7965

                     79                     80                     81
                      A                      A                      A
 Frequencies --   1518.4557              1537.7877              1540.9510
 Red. masses --      1.0688                 1.0630                 1.1305
 Frc consts  --      1.4520                 1.4810                 1.5816
 IR Inten    --      6.7802                 5.4862                26.7487

                     82                     83                     84
                      A                      A                      A
 Frequencies --   1581.5319              1589.6177              1608.6136
 Red. masses --      6.8426                 5.7640                 4.9059
 Frc consts  --     10.0839                 8.5815                 7.4795
 IR Inten    --    101.5431                 1.4293                84.9541

                     85                     86                     87
                      A                      A                      A
 Frequencies --   3024.7283              3039.1227              3041.2042
 Red. masses --      1.0813                 1.0457                 1.0643
 Frc consts  --      5.8288                 5.6906                 5.7999
 IR Inten    --     13.2421                31.0380                38.0114

                     88                     89                     90
                      A                      A                      A
 Frequencies --   3060.2573              3089.7007              3108.0091
 Red. masses --      1.0395                 1.1000                 1.0922
 Frc consts  --      5.7359                 6.1871                 6.2160
 IR Inten    --     13.8894                11.3221                26.7379

                     91                     92                     93
                      A                      A                      A
 Frequencies --   3125.4303              3142.2752              3150.8455
 Red. masses --      1.0982                 1.1034                 1.1002
 Frc consts  --      6.3205                 6.4189                 6.4356
 IR Inten    --     51.2517                21.2589                18.3670

                     94                     95                     96
                      A                      A                      A
 Frequencies --   3179.3201              3228.3473              3262.6391
 Red. masses --      1.0915                 1.0947                 1.0931
 Frc consts  --      6.5004                 6.7224                 6.8554
 IR Inten    --     13.9872                 7.2663                 3.9580

                     97                     98                     99
                      A                      A                      A
 Frequencies --   3290.2658              3495.4403              3588.5509
 Red. masses --      1.0944                 1.0733                 1.0765
 Frc consts  --      6.9802                 7.7266                 8.1675
 IR Inten    --     10.7966                 1.2305                88.1331

 - Thermochemistry -
 -------------------
 Temperature   298.150 Kelvin.  Pressure   1.00000 Atm.
 Atom     1 has atomic number  6 and mass  12.00000

 Molecular mass:   313.06672 amu.
 Principal axes and moments of inertia in atomic units:
                           1         2         3
     Eigenvalues --  5431.433436243.977039969.61298
           X            0.99825  -0.05871  -0.00638
           Y            0.05872   0.99827   0.00208
           Z            0.00624  -0.00246   0.99998
 This molecule is an asymmetric top.
 Rotational symmetry number  1.
 Warning -- assumption of classical behavior for rotation
           may cause significant error
 Rotational temperatures (Kelvin)      0.01595     0.01387     0.00869
 Rotational constants (GHZ):           0.33228     0.28904     0.18102
 Zero-point vibrational energy     708936.1 (Joules/Mol)
                                  169.43979 (Kcal/Mol)
 Warning -- explicit consideration of  31 degrees of freedom as
           vibrations may cause significant error
 Vibrational temperatures:     22.15    33.46    46.23    71.63   101.92
          (Kelvin)            131.85   138.32   167.40   192.99   260.43
                              285.50   320.07   343.32   377.73   394.42
                              413.05   433.21   435.21   442.97   458.51
                              555.89   567.32   594.77   650.70   701.86
                              750.47   758.98   769.28   789.34   828.09
                              855.96   905.00   931.02   984.48  1006.82
                             1083.79  1122.45  1156.29  1173.32  1188.63
                             1229.61  1230.56  1246.82  1317.15  1333.07
                             1334.83  1347.83  1376.07  1419.83  1428.18
                             1489.73  1570.83  1586.23  1600.87  1642.39
                             1648.50  1656.44  1664.67  1697.95  1712.60
                             1736.46  1764.13  1882.20  1886.87  1963.86
                             1967.52  1971.87  1977.50  1997.62  2035.92
                             2051.42  2077.27  2121.46  2146.08  2154.46
                             2160.92  2176.17  2177.61  2184.72  2212.53
                             2217.08  2275.47  2287.11  2314.44  4351.91
                             4372.62  4375.61  4403.03  4445.39  4471.73
                             4496.80  4521.03  4533.36  4574.33  4644.87
                             4694.21  4733.96  5029.16  5163.12

 Zero-point correction=                           0.270019 (Hartree/Particle)
 Thermal correction to Energy=                    0.289586
 Thermal correction to Enthalpy=                  0.290530
 Thermal correction to Gibbs Free Energy=         0.219513
 Sum of electronic and zero-point Energies=          -1648.463104
 Sum of electronic and thermal Energies=             -1648.443538
 Sum of electronic and thermal Enthalpies=           -1648.442594
 Sum of electronic and thermal Free Energies=        -1648.513611

                     E (Thermal)             CV                S
                      KCal/Mol        Cal/Mol-Kelvin    Cal/Mol-Kelvin
 Total                  181.718             73.161            149.468
 Electronic               0.000              0.000              0.000
 Translational            0.889              2.981             43.120
 Rotational               0.889              2.981             34.180
 Vibrational            179.940             67.200             72.168
 Vibration     1          0.593              1.986              7.154
 Vibration     2          0.593              1.985              6.335
 Vibration     3          0.594              1.983              5.693
 Vibration     4          0.595              1.978              4.826
 Vibration     5          0.598              1.968              4.130
 Vibration     6          0.602              1.955              3.625
 Vibration     7          0.603              1.952              3.531
 Vibration     8          0.608              1.936              3.160
 Vibration     9          0.613              1.919              2.886
 Vibration    10          0.630              1.866              2.318
 Vibration    11          0.637              1.842              2.148
 Vibration    12          0.648              1.807              1.939
 Vibration    13          0.657              1.781              1.813
 Vibration    14          0.670              1.741              1.645
 Vibration    15          0.676              1.721              1.570
 Vibration    16          0.684              1.698              1.491
 Vibration    17          0.693              1.672              1.411
 Vibration    18          0.694              1.669              1.403
 Vibration    19          0.698              1.659              1.374
 Vibration    20          0.705              1.638              1.317
 Vibration    21          0.755              1.499              1.014
 Vibration    22          0.761              1.482              0.984
 Vibration    23          0.777              1.441              0.915
 Vibration    24          0.811              1.356              0.789
 Vibration    25          0.844              1.277              0.689
 Vibration    26          0.877              1.202              0.606
 Vibration    27          0.882              1.189              0.593
 Vibration    28          0.890              1.173              0.577
 Vibration    29          0.904              1.143              0.547
 Vibration    30          0.932              1.084              0.494
 Vibration    31          0.953              1.043              0.458

                           ! Non-Optimized Parameters !
 Normal termination of Gaussian 16 at Mon Dec 14 14:24:17 2020.

 ----------------------------------------------------------------------
 # B3LYP/6-311++G(d,p) empiricaldispersion=gd3bj scf=xqc pop=npa geom=c
 heck
 ----------------------------------------------------------------------

 ----------------------------------------
 CID_106081893_JID_10851_Energie_neutraal
 ----------------------------------------
 Structure from the checkpoint file:  "JID_10851.chk"
 Charge =  0 Multiplicity = 1

 SCF Done:  E(RB3LYP) =  -1649.02262349     A.U. after   17 cycles
 Normal termination of Gaussian 16 at Mon Dec 14 14:32:50 2020.

 ----------------------------------------------------------------------
 # B3LYP/6-311++G(d,p) empiricaldispersion=gd3bj scf=xqc pop=npa geom=c
 heck
 ----------------------------------------------------------------------

 --------------------------------------
 CID_106081893_JID_10851_Energie_kation
 --------------------------------------
 Structure from the checkpoint file:  "JID_10851.chk"
 Charge =  1 Multiplicity = 2

 SCF Done:  E(UB3LYP) =  -1648.71279254     A.U. after   31 cycles
 Normal termination of Gaussian 16 at Mon Dec 14 14:54:43 2020.
 Gaussian 16:  ES64L-G16RevA.03 25-Dec-2016

 ----------------------------------------------------------------------
 # B3LYP/6-311++G(d,p) empiricaldispersion=gd3bj scf=xqc pop=npa geom=c
 heck
 ----------------------------------------------------------------------

 -------------------------------------
 CID_106081893_JID_10851_Energie_anion
 -------------------------------------
 Structure from the checkpoint file:  "JID_10851.chk"
 Charge = -1 Multiplicity = 2

                         Standard orientation:
 ---------------------------------------------------------------------
 Center     Atomic      Atomic             Coordinates (Angstroms)
 Number     Number       Type             X           Y           Z
 ---------------------------------------------------------------------
      1          6           0       -4.280646    1.073697    0.184040
      2          6           0       -3.490481   -0.165034   -0.246042
      3          6           0       -2.381608    0.223699   -1.240826
      4          7           0       -3.066880   -0.864784    0.975073
      5          6           0       -2.397642   -2.150534    0.826703
      6          6           0       -0.951029   -2.096378    0.372731
      7          6           0        0.025627   -1.259585    0.835671
      8          6           0        1.250369   -1.409047    0.117019
      9          6           0        1.219609   -2.367569   -0.860917
     10         16           0       -0.340500   -3.106837   -0.921340
     11         16           0        2.667134   -0.385054    0.373508
     12          8           0        2.779836   -0.074742    1.789370
     13          8           0        3.777063   -0.915582   -0.413986
     14          7           0        2.280261    1.054789   -0.471549
     15          6           0        1.225251    1.911705   -0.249358
     16          7           0        0.527014    1.817805    0.892972
     17          6           0       -0.439718    2.719421    1.018441
     18          6           0       -0.685406    3.662839    0.019153
     19          7           0        0.034773    3.673587   -1.107204
     20          7           0        1.005170    2.786103   -1.255581
     21          1           0       -3.620075    1.792808    0.688286
     22          1           0       -5.080880    0.800865    0.877717
     23          1           0       -4.716278    1.581494   -0.682472
     24          1           0       -4.179956   -0.851735   -0.757846
     25          1           0       -1.635258    0.865662   -0.761281
     26          1           0       -1.861962   -0.648995   -1.643235
     27          1           0       -2.808994    0.777994   -2.084501
     28          1           0       -2.507571   -0.242585    1.555669
     29          1           0       -2.440519   -2.665029    1.795583
     30          1           0       -2.985039   -2.758425    0.129225
     31          1           0       -0.101818   -0.534796    1.627785
     32          1           0        2.025040   -2.665767   -1.516373
     33          1           0        2.706710    1.115275   -1.390732
     34          1           0       -1.035245    2.684510    1.928855
     35          1           0       -1.467788    4.409770    0.099884
 ---------------------------------------------------------------------

 SCF Done:  E(UB3LYP) =  -1649.05962663     A.U. after   27 cycles

 The electronic state is 2-A.
 Alpha  occ. eigenvalues --  -88.96435 -88.78439 -19.01510 -19.01218 -14.23442
 Alpha  occ. eigenvalues --  -14.20953 -14.18395 -14.17992 -14.16179 -10.13988
 Alpha  occ. eigenvalues --  -10.12179 -10.11052 -10.10737 -10.10562 -10.10523
 Alpha  occ. eigenvalues --  -10.08106 -10.06955 -10.06650 -10.06088 -10.05227
 Alpha  occ. eigenvalues --   -8.02457  -7.87067  -5.98775  -5.98700  -5.98567
 Alpha  occ. eigenvalues --   -5.83353  -5.82988  -5.82684  -1.01815  -0.91006
 Alpha  occ. eigenvalues --   -0.89383  -0.82492  -0.82153  -0.79141  -0.77493
 Alpha  occ. eigenvalues --   -0.69076  -0.67658  -0.65956  -0.64243  -0.59149
 Alpha  occ. eigenvalues --   -0.58546  -0.56378  -0.54701  -0.52035  -0.49645
 Alpha  occ. eigenvalues --   -0.46557  -0.45387  -0.43980  -0.43023  -0.40299
 Alpha  occ. eigenvalues --   -0.38999  -0.38052  -0.37486  -0.35588  -0.35080
 Alpha  occ. eigenvalues --   -0.34774  -0.34345  -0.32851  -0.32025  -0.31064
 Alpha  occ. eigenvalues --   -0.30132  -0.29732  -0.29469  -0.29198  -0.28754
 Alpha  occ. eigenvalues --   -0.27217  -0.26186  -0.24910  -0.24660  -0.24242
 Alpha  occ. eigenvalues --   -0.23243  -0.22283  -0.21344  -0.20807  -0.19813
 Alpha  occ. eigenvalues --   -0.18337  -0.17142  -0.16473  -0.15023  -0.13714
 Alpha  occ. eigenvalues --   -0.12126  -0.08340   0.02187
 Alpha virt. eigenvalues --    0.05550   0.06777   0.07972   0.08342   0.08499
 Alpha virt. eigenvalues --    0.09782   0.10156   0.10691   0.10907   0.10956
 Alpha virt. eigenvalues --    0.11545   0.11741   0.12248   0.12896   0.13053

  Beta  occ. eigenvalues --  -88.96428 -88.78416 -19.01507 -19.01215 -14.23447
  Beta  occ. eigenvalues --  -14.20947 -14.18113 -14.17291 -14.15712 -10.14051
  Beta  occ. eigenvalues --  -10.12186 -10.11052 -10.10585 -10.10509 -10.10465
  Beta  occ. eigenvalues --  -10.08131 -10.06949 -10.06362 -10.06198 -10.05226
  Beta  occ. eigenvalues --   -8.02450  -7.87046  -5.98755  -5.98696  -5.98560
  Beta  occ. eigenvalues --   -5.83343  -5.82979  -5.82603  -1.01789  -0.90996
  Beta  occ. eigenvalues --   -0.88748  -0.82459  -0.81808  -0.79020  -0.76674
  Beta  occ. eigenvalues --   -0.69001  -0.67319  -0.65727  -0.64105  -0.59136
  Beta  occ. eigenvalues --   -0.58510  -0.56171  -0.53929  -0.51836  -0.49631
  Beta  occ. eigenvalues --   -0.46365  -0.45269  -0.43881  -0.42801  -0.40205
  Beta  occ. eigenvalues --   -0.38958  -0.38009  -0.37230  -0.35473  -0.35045
  Beta  occ. eigenvalues --   -0.34704  -0.34291  -0.32787  -0.31078  -0.31007
  Beta  occ. eigenvalues --   -0.29952  -0.29616  -0.29223  -0.28960  -0.28686
  Beta  occ. eigenvalues --   -0.27147  -0.26071  -0.24856  -0.24542  -0.24208
  Beta  occ. eigenvalues --   -0.22653  -0.21945  -0.21267  -0.20607  -0.17896
  Beta  occ. eigenvalues --   -0.17211  -0.16559  -0.15930  -0.14577  -0.13492
  Beta  occ. eigenvalues --   -0.11153  -0.07664
  Beta virt. eigenvalues --    0.06286   0.06765   0.07946   0.08353   0.08514
  Beta virt. eigenvalues --    0.09670   0.10006   0.10205   0.10789   0.10915
  Beta virt. eigenvalues --    0.11057   0.11551   0.11806   0.12372   0.12908

 Mulliken charges and spin densities:
               1          2
     1  C   -0.545293  -0.037150
     2  C   -0.144533   0.041949
     3  C   -0.400418  -0.021418
     4  N    0.064323  -0.009939
     5  C   -0.515403  -0.025911
     6  C    0.459785   0.092143
     7  C   -0.170086   0.004874
     8  C   -1.046149  -0.016344
     9  C    0.065964   0.068537
    10  S   -0.158709   0.072561
    11  S    0.716613  -0.030809
    12  O   -0.180464   0.007523
    13  O   -0.203112  -0.002757
    14  N   -0.267251   0.026704
    15  C   -0.484539  -0.036182
    16  N   -0.142328   0.209727
    17  C    0.042565   0.277398
    18  C   -0.359539  -0.079874
    19  N   -0.208280   0.319481
    20  N    0.038982   0.115032
    21  H    0.119103   0.013784
    22  H    0.138076   0.010413
    23  H    0.121116  -0.000652
    24  H    0.122856   0.000983
    25  H    0.059522  -0.003277
    26  H    0.122054  -0.004101
    27  H    0.148533   0.002531
    28  H    0.195646   0.005152
    29  H    0.180788   0.010030
    30  H    0.144072   0.000299
    31  H    0.200930   0.013173
    32  H    0.283845  -0.006823
    33  H    0.331378   0.001279
    34  H    0.131466  -0.020151
    35  H    0.138489   0.001814
 Sum of Mulliken charges =  -1.00000   1.00000

 Dipole moment (field-independent basis, Debye):
    X=             -5.5338    Y=             -6.2818    Z=              0.0492  Tot=              8.3717
 Quadrupole moment (field-independent basis, Debye-Ang):
   XX=           -169.9830   YY=           -175.9220   ZZ=           -151.3820
   XY=             -2.0325   XZ=             -3.9365   YZ=             11.0745

 Summary of Natural Population Analysis:

                                       Natural Population
                Natural  -----------------------------------------------
    Atom  No    Charge         Core      Valence    Rydberg      Total
 -----------------------------------------------------------------------
      C    1   -0.28671      0.99965     2.28195    0.00511     3.28671
      C    2   -0.00711      0.99963     1.99876    0.00872     3.00711
      C    3   -0.30041      0.99965     2.29509    0.00568     3.30041
      N    4   -0.34230      0.99975     2.82852    0.01403     3.84230
      C    5   -0.10024      0.99957     2.08876    0.01191     3.10024
      C    6   -0.09111      0.99948     2.08038    0.01125     3.09111
      C    7   -0.12859      0.99940     2.11683    0.01236     3.12859
      C    8   -0.17134      0.99932     2.15478    0.01724     3.17134
      C    9   -0.15247      0.99946     2.14195    0.01105     3.15247
      S   10    0.21093      4.99940     2.76812    0.02154     7.78907
      S   11    1.12328      4.99915     1.77466    0.10291     6.87672
      O   12   -0.44390      0.99990     3.43852    0.00548     4.44390
      O   13   -0.47022      0.99991     3.46511    0.00521     4.47022
      N   14   -0.42541      0.99964     2.91023    0.01554     3.92541
      C   15    0.26236      0.99961     1.71912    0.01891     2.73764
      N   16   -0.20550      0.99967     2.69175    0.01408     3.70550
      C   17    0.07047      0.99961     1.91612    0.01381     2.92953
      C   18   -0.06176      0.99961     2.04850    0.01365     3.06176
      N   19   -0.01587      0.99974     2.49946    0.01668     3.51587
      N   20   -0.14150      0.99969     2.62092    0.02089     3.64150
      H   21    0.10129      0.00000     0.39747    0.00124     0.39871
      H   22    0.09829      0.00000     0.40076    0.00095     0.40171
      H   23    0.09723      0.00000     0.40202    0.00075     0.40277
      H   24    0.08046      0.00000     0.41778    0.00176     0.41954
      H   25    0.11160      0.00000     0.38655    0.00185     0.38840
      H   26    0.10083      0.00000     0.39795    0.00121     0.39917
      H   27    0.09665      0.00000     0.40242    0.00092     0.40335
      H   28    0.17462      0.00000     0.32334    0.00204     0.32538
      H   29    0.10028      0.00000     0.39856    0.00116     0.39972
      H   30    0.09559      0.00000     0.40336    0.00105     0.40441
      H   31    0.12776      0.00000     0.37088    0.00137     0.37224
      H   32    0.11815      0.00000     0.38091    0.00094     0.38185
      H   33    0.20962      0.00000     0.28872    0.00166     0.29038
      H   34    0.07814      0.00000     0.42051    0.00135     0.42186
      H   35    0.08691      0.00000     0.41177    0.00131     0.41309
 =======================================================================
   * Total *   -0.00000     27.99183    53.64255    0.36562    82.00000

 Normal termination of Gaussian 16 at Mon Dec 14 15:13:13 2020.
