 Gaussian 16, Revision A.03,

 -----------------------------------------------------------
 # opt freq B3LYP/6-31G(d) empiricaldispersion=gd3bj scf=xqc
 -----------------------------------------------------------

 -------------------------------
 CID_151825497_JID_2271_neutraal
 -------------------------------
 Symbolic Z-matrix:
 Charge =  0 Multiplicity = 1

 SCF Done:  E(RB3LYP) =  -590.377341395     A.U. after   15 cycles
 SCF Done:  E(RB3LYP) =  -590.381398191     A.U. after   13 cycles
 SCF Done:  E(RB3LYP) =  -590.383160973     A.U. after   14 cycles
 SCF Done:  E(RB3LYP) =  -590.383552949     A.U. after   14 cycles
 SCF Done:  E(RB3LYP) =  -590.383625000     A.U. after   13 cycles
 SCF Done:  E(RB3LYP) =  -590.383593298     A.U. after   13 cycles
 SCF Done:  E(RB3LYP) =  -590.383876947     A.U. after   12 cycles
 SCF Done:  E(RB3LYP) =  -590.383992936     A.U. after   13 cycles
 SCF Done:  E(RB3LYP) =  -590.383994760     A.U. after   16 cycles
 SCF Done:  E(RB3LYP) =  -590.384138787     A.U. after   16 cycles
 SCF Done:  E(RB3LYP) =  -590.384412595     A.U. after    8 cycles
 SCF Done:  E(RB3LYP) =  -590.384437822     A.U. after   13 cycles
 SCF Done:  E(RB3LYP) =  -590.384440551     A.U. after   10 cycles
 SCF Done:  E(RB3LYP) =  -590.384441297     A.U. after    8 cycles
 SCF Done:  E(RB3LYP) =  -590.384441498     A.U. after    8 cycles
 Optimization completed.
    -- Stationary point found.
 Normal termination of Gaussian 16 at Wed Dec  9 17:06:33 2020.

 --------------------------------------------------------------------
 #N Geom=AllCheck Guess=TCheck SCRF=Check GenChk RB3LYP/6-31G(d) Freq
 --------------------------------------------------------------------

 Structure from the checkpoint file:  "JID_2271.chk"
 -------------------------------
 CID_151825497_JID_2271_neutraal
 -------------------------------
 Charge =  0 Multiplicity = 1

 SCF Done:  E(RB3LYP) =  -590.384441498     A.U. after    1 cycles

  Exact polarizability: 127.784   8.658  95.655   1.101  -2.555  84.713
 Approx polarizability: 209.108  19.354 124.017  -2.290  -3.088 128.089

                      1                      2                      3
                      A                      A                      A
 Frequencies --     34.5955                71.8090                77.0586
 Red. masses --      7.3307                 4.8591                 4.9141
 Frc consts  --      0.0052                 0.0148                 0.0172
 IR Inten    --      0.1556                 2.4853                 0.0689

                      4                      5                      6
                      A                      A                      A
 Frequencies --     99.1907               136.8154               170.9167
 Red. masses --      3.1118                 3.3998                 3.3513
 Frc consts  --      0.0180                 0.0375                 0.0577
 IR Inten    --      1.0906                 1.8157                 0.5819

                      7                      8                      9
                      A                      A                      A
 Frequencies --    184.4812               206.8583               213.0966
 Red. masses --      2.8333                 1.4427                 1.1485
 Frc consts  --      0.0568                 0.0364                 0.0307
 IR Inten    --      1.3756                 0.9401                 0.1180

                     10                     11                     12
                      A                      A                      A
 Frequencies --    224.8729               244.3773               248.6976
 Red. masses --      2.1142                 1.9484                 1.7018
 Frc consts  --      0.0630                 0.0686                 0.0620
 IR Inten    --      1.1332                 1.0128                 0.5778

                     13                     14                     15
                      A                      A                      A
 Frequencies --    306.3167               341.3197               374.5069
 Red. masses --      2.9222                 4.6236                 2.4989
 Frc consts  --      0.1615                 0.3174                 0.2065
 IR Inten    --      0.4658                 7.7656                 5.5641

                     16                     17                     18
                      A                      A                      A
 Frequencies --    403.5563               444.0256               489.8555
 Red. masses --      2.8240                 2.6861                 2.2069
 Frc consts  --      0.2710                 0.3120                 0.3120
 IR Inten    --      2.5858                 0.3339                17.5229

                     19                     20                     21
                      A                      A                      A
 Frequencies --    516.3620               523.4846               540.5868
 Red. masses --      3.0338                 2.9692                 2.2428
 Frc consts  --      0.4766                 0.4794                 0.3862
 IR Inten    --     18.9812                61.7602                66.4729

                     22                     23                     24
                      A                      A                      A
 Frequencies --    621.1404               714.0323               789.2659
 Red. masses --      6.4356                 3.6631                 3.2367
 Frc consts  --      1.4629                 1.1004                 1.1879
 IR Inten    --      3.1051                 1.9328                 1.2062

                     25                     26                     27
                      A                      A                      A
 Frequencies --    870.1633               882.2134               926.0813
 Red. masses --      3.7559                 3.0489                 1.9094
 Frc consts  --      1.6756                 1.3981                 0.9648
 IR Inten    --      9.8424                24.0074                13.1289

                     28                     29                     30
                      A                      A                      A
 Frequencies --    939.7246               949.9815               968.8188
 Red. masses --      1.4457                 1.2011                 1.9435
 Frc consts  --      0.7522                 0.6386                 1.0748
 IR Inten    --     13.9907                 2.6607                26.8335

                     31                     32                     33
                      A                      A                      A
 Frequencies --    987.0383               993.1959              1077.5331
 Red. masses --      1.6185                 2.1255                 3.2821
 Frc consts  --      0.9290                 1.2353                 2.2453
 IR Inten    --      8.5239                36.8691                77.2460

                     34                     35                     36
                      A                      A                      A
 Frequencies --   1087.6574              1103.9275              1155.5732
 Red. masses --      2.2287                 2.0263                 1.9392
 Frc consts  --      1.5534                 1.4549                 1.5257
 IR Inten    --     43.3560                10.8248                 1.9029

                     37                     38                     39
                      A                      A                      A
 Frequencies --   1184.5494              1194.4895              1209.4085
 Red. masses --      2.7569                 2.1328                 1.9081
 Frc consts  --      2.2792                 1.7929                 1.6444
 IR Inten    --     20.5502                 4.8030                 3.4071

                     40                     41                     42
                      A                      A                      A
 Frequencies --   1223.1323              1245.8660              1307.3122
 Red. masses --      4.6056                 1.3963                 1.3096
 Frc consts  --      4.0596                 1.2770                 1.3187
 IR Inten    --     32.6659                14.0716                 0.8829

                     43                     44                     45
                      A                      A                      A
 Frequencies --   1343.5421              1364.1143              1387.7403
 Red. masses --      1.3336                 1.3468                 1.3270
 Frc consts  --      1.4183                 1.4765                 1.5056
 IR Inten    --      0.7502                 1.9169                 6.9813

                     46                     47                     48
                      A                      A                      A
 Frequencies --   1389.0876              1415.1081              1422.4993
 Red. masses --      1.3421                 1.3473                 1.2688
 Frc consts  --      1.5258                 1.5896                 1.5127
 IR Inten    --      6.3508                12.8625                13.8921

                     49                     50                     51
                      A                      A                      A
 Frequencies --   1432.2979              1437.8430              1446.0393
 Red. masses --      1.2420                 1.2889                 1.2196
 Frc consts  --      1.5012                 1.5699                 1.5025
 IR Inten    --      6.6118                21.7894                32.3067

                     52                     53                     54
                      A                      A                      A
 Frequencies --   1454.5700              1518.2543              1521.6692
 Red. masses --      1.2191                 1.0450                 1.0468
 Frc consts  --      1.5197                 1.4192                 1.4281
 IR Inten    --      6.4685                 0.7284                 3.0244

                     55                     56                     57
                      A                      A                      A
 Frequencies --   1528.7589              1535.3693              1536.0216
 Red. masses --      1.0557                 1.0579                 1.0622
 Frc consts  --      1.4537                 1.4694                 1.4765
 IR Inten    --      2.1879                 3.5444                 2.2292

                     58                     59                     60
                      A                      A                      A
 Frequencies --   1540.3349              1544.1735              2195.1904
 Red. masses --      1.0490                 1.0563                13.9629
 Frc consts  --      1.4664                 1.4840                39.6434
 IR Inten    --      9.8551                 2.1539               390.3098

                     61                     62                     63
                      A                      A                      A
 Frequencies --   3026.2025              3039.9343              3047.4166
 Red. masses --      1.0690                 1.0783                 1.0492
 Frc consts  --      5.7678                 5.8709                 5.7411
 IR Inten    --     19.7873                30.2833                15.4346

                     64                     65                     66
                      A                      A                      A
 Frequencies --   3048.3115              3053.6710              3059.1394
 Red. masses --      1.0616                 1.0505                 1.0422
 Frc consts  --      5.8121                 5.7716                 5.7463
 IR Inten    --     10.2678                21.8468                27.6854

                     67                     68                     69
                      A                      A                      A
 Frequencies --   3073.2972              3099.4040              3109.2990
 Red. masses --      1.0836                 1.0995                 1.1004
 Frc consts  --      6.0304                 6.2231                 6.2678
 IR Inten    --     27.1337                45.7489                 1.7180

                     70                     71                     72
                      A                      A                      A
 Frequencies --   3116.1779              3119.7836              3134.5231
 Red. masses --      1.0996                 1.0979                 1.1005
 Frc consts  --      6.2914                 6.2962                 6.3704
 IR Inten    --     42.5238                57.7926                25.2652

                     73                     74                     75
                      A                      A                      A
 Frequencies --   3143.8834              3149.5344              3734.7968
 Red. masses --      1.0990                 1.1010                 1.0657
 Frc consts  --      6.3999                 6.4347                 8.7579
 IR Inten    --     27.4489                22.6370                29.3221

 - Thermochemistry -
 -------------------
 Temperature   298.150 Kelvin.  Pressure   1.00000 Atm.
 Atom     1 has atomic number  6 and mass  12.00000

 Molecular mass:   173.11643 amu.
 Principal axes and moments of inertia in atomic units:
                           1         2         3
     Eigenvalues --  1842.948682383.684943260.20950
           X            0.99588  -0.08377   0.03463
           Y            0.08425   0.99637  -0.01258
           Z           -0.03345   0.01545   0.99932
 This molecule is an asymmetric top.
 Rotational symmetry number  1.
 Warning -- assumption of classical behavior for rotation
           may cause significant error
 Rotational temperatures (Kelvin)      0.04700     0.03634     0.02657
 Rotational constants (GHZ):           0.97927     0.75712     0.55357
 Zero-point vibrational energy     605620.7 (Joules/Mol)
                                  144.74683 (Kcal/Mol)
 Warning -- explicit consideration of  21 degrees of freedom as
           vibrations may cause significant error
 Vibrational temperatures:     49.78   103.32   110.87   142.71   196.85
          (Kelvin)            245.91   265.43   297.62   306.60   323.54
                              351.60   357.82   440.72   491.08   538.83
                              580.63   638.85   704.79   742.93   753.18
                              777.78   893.68  1027.33  1135.58  1251.97
                             1269.31  1332.42  1352.05  1366.81  1393.91
                             1420.13  1428.99  1550.33  1564.90  1588.31
                             1662.61  1704.30  1718.60  1740.07  1759.81
                             1792.52  1880.93  1933.06  1962.66  1996.65
                             1998.59  2036.02  2046.66  2060.76  2068.74
                             2080.53  2092.80  2184.43  2189.34  2199.54
                             2209.05  2209.99  2216.20  2221.72  3158.39
                             4354.03  4373.79  4384.55  4385.84  4393.55
                             4401.42  4421.79  4459.35  4473.59  4483.48
                             4488.67  4509.88  4523.35  4531.48  5373.54

 Zero-point correction=                           0.230669 (Hartree/Particle)
 Thermal correction to Energy=                    0.244676
 Thermal correction to Enthalpy=                  0.245620
 Thermal correction to Gibbs Free Energy=         0.190012
 Sum of electronic and zero-point Energies=           -590.153773
 Sum of electronic and thermal Energies=              -590.139765
 Sum of electronic and thermal Enthalpies=            -590.138821
 Sum of electronic and thermal Free Energies=         -590.194429

                     E (Thermal)             CV                S
                      KCal/Mol        Cal/Mol-Kelvin    Cal/Mol-Kelvin
 Total                  153.537             50.741            117.037
 Electronic               0.000              0.000              0.000
 Translational            0.889              2.981             41.354
 Rotational               0.889              2.981             31.038
 Vibrational            151.759             44.780             44.645
 Vibration     1          0.594              1.983              5.547
 Vibration     2          0.598              1.967              4.103
 Vibration     3          0.599              1.964              3.964
 Vibration     4          0.604              1.950              3.470
 Vibration     5          0.614              1.917              2.848
 Vibration     6          0.626              1.878              2.425
 Vibration     7          0.631              1.861              2.283
 Vibration     8          0.641              1.830              2.071
 Vibration     9          0.644              1.821              2.017
 Vibration    10          0.650              1.803              1.920
 Vibration    11          0.660              1.772              1.771
 Vibration    12          0.662              1.765              1.740
 Vibration    13          0.697              1.662              1.382
 Vibration    14          0.721              1.593              1.206
 Vibration    15          0.746              1.524              1.061
 Vibration    16          0.769              1.462              0.950
 Vibration    17          0.804              1.374              0.814
 Vibration    18          0.846              1.273              0.684
 Vibration    19          0.871              1.214              0.618
 Vibration    20          0.878              1.198              0.602
 Vibration    21          0.896              1.160              0.564

                           ! Non-Optimized Parameters !
 Normal termination of Gaussian 16 at Wed Dec  9 17:14:02 2020.

 ----------------------------------------------------------------------
 # B3LYP/6-311++G(d,p) empiricaldispersion=gd3bj scf=xqc pop=npa geom=c
 heck
 ----------------------------------------------------------------------

 ---------------------------------------
 CID_151825497_JID_2271_Energie_neutraal
 ---------------------------------------
 Structure from the checkpoint file:  "JID_2271.chk"
 Charge =  0 Multiplicity = 1

 SCF Done:  E(RB3LYP) =  -590.563291952     A.U. after   15 cycles
 Normal termination of Gaussian 16 at Wed Dec  9 17:17:31 2020.

 ----------------------------------------------------------------------
 # B3LYP/6-311++G(d,p) empiricaldispersion=gd3bj scf=xqc pop=npa geom=c
 heck
 ----------------------------------------------------------------------

 -------------------------------------
 CID_151825497_JID_2271_Energie_kation
 -------------------------------------
 Structure from the checkpoint file:  "JID_2271.chk"
 Charge =  1 Multiplicity = 2

 SCF Done:  E(UB3LYP) =  -590.229706712     A.U. after   26 cycles
 Normal termination of Gaussian 16 at Wed Dec  9 17:25:55 2020.
 Gaussian 16:  ES64L-G16RevA.03 25-Dec-2016

 ----------------------------------------------------------------------
 # B3LYP/6-311++G(d,p) empiricaldispersion=gd3bj scf=xqc pop=npa geom=c
 heck
 ----------------------------------------------------------------------

 ------------------------------------
 CID_151825497_JID_2271_Energie_anion
 ------------------------------------
 Structure from the checkpoint file:  "JID_2271.chk"
 Charge = -1 Multiplicity = 2

                         Standard orientation:
 ---------------------------------------------------------------------
 Center     Atomic      Atomic             Coordinates (Angstroms)
 Number     Number       Type             X           Y           Z
 ---------------------------------------------------------------------
      1          6           0        0.537607    2.870222    0.100247
      2          6           0       -0.386015    1.644057    0.042180
      3          6           0       -1.587934    1.934582   -0.866905
      4          6           0        0.386295    0.409899   -0.439096
      5          6           0        1.630790    0.006054    0.379176
      6          6           0        1.472006    0.024296    1.905797
      7          6           0        2.139283   -1.377688   -0.070831
      8          8           0        2.186257   -1.534070   -1.482446
      9          8           0       -0.499290   -0.721742   -0.685692
     10          7           0       -1.088548   -1.185163    0.551217
     11          7           0       -2.317232   -1.314826    0.354454
     12          7           0       -3.439897   -1.519895    0.310719
     13          1           0        0.970295    3.077417   -0.886654
     14          1           0        1.361854    2.741867    0.807378
     15          1           0       -0.029011    3.756450    0.405192
     16          1           0       -0.757201    1.438541    1.054306
     17          1           0       -1.256437    2.152793   -1.889897
     18          1           0       -2.280874    1.091121   -0.918060
     19          1           0       -2.141132    2.806665   -0.501893
     20          1           0        0.725344    0.590587   -1.466068
     21          1           0        2.400725    0.739571    0.104654
     22          1           0        0.705374   -0.680883    2.236357
     23          1           0        2.419765   -0.257265    2.379901
     24          1           0        1.202388    1.015983    2.280953
     25          1           0        3.163549   -1.516551    0.290657
     26          1           0        1.519445   -2.159506    0.390707
     27          1           0        1.267732   -1.679634   -1.760569
 ---------------------------------------------------------------------

 SCF Done:  E(UB3LYP) =  -590.574556124     A.U. after   33 cycles
 SCF Done:  E(UB3LYP) =  -590.574556124     a.u. after    1 cycles

 The electronic state is 2-A.
 Alpha  occ. eigenvalues --  -18.99914 -18.99511 -14.24781 -14.20603 -14.16726
 Alpha  occ. eigenvalues --  -10.09142 -10.09140 -10.05968 -10.05793 -10.05467
 Alpha  occ. eigenvalues --  -10.04393 -10.04008  -0.95761  -0.90266  -0.88608
 Alpha  occ. eigenvalues --   -0.74865  -0.69157  -0.66165  -0.57637  -0.55866
 Alpha  occ. eigenvalues --   -0.55178  -0.47784  -0.44927  -0.39694  -0.38068
 Alpha  occ. eigenvalues --   -0.36874  -0.34710  -0.33559  -0.32250  -0.30742
 Alpha  occ. eigenvalues --   -0.30160  -0.30109  -0.28750  -0.28030  -0.27123
 Alpha  occ. eigenvalues --   -0.26546  -0.26043  -0.24210  -0.23563  -0.22955
 Alpha  occ. eigenvalues --   -0.21995  -0.21194  -0.20610  -0.17436  -0.15327
 Alpha  occ. eigenvalues --   -0.12785  -0.06280   0.05378
 Alpha virt. eigenvalues --    0.07209   0.08362   0.09541   0.09951   0.10901
 Alpha virt. eigenvalues --    0.11408   0.11889   0.12848   0.13259   0.13509
 Alpha virt. eigenvalues --    0.15079   0.15345   0.15420   0.16370   0.16956

  Beta  occ. eigenvalues --  -18.99905 -18.99119 -14.24260 -14.20617 -14.15794
  Beta  occ. eigenvalues --  -10.09128 -10.09122 -10.05966 -10.05786 -10.05469
  Beta  occ. eigenvalues --  -10.04391 -10.03989  -0.94756  -0.90170  -0.87677
  Beta  occ. eigenvalues --   -0.74203  -0.68953  -0.66137  -0.57619  -0.55688
  Beta  occ. eigenvalues --   -0.55077  -0.47754  -0.44482  -0.39587  -0.37734
  Beta  occ. eigenvalues --   -0.36674  -0.34584  -0.33226  -0.30982  -0.30520
  Beta  occ. eigenvalues --   -0.29882  -0.29551  -0.28656  -0.28013  -0.26990
  Beta  occ. eigenvalues --   -0.25949  -0.24497  -0.24053  -0.23411  -0.22623
  Beta  occ. eigenvalues --   -0.21778  -0.20720  -0.20520  -0.16385  -0.15257
  Beta  occ. eigenvalues --   -0.12095  -0.05906
  Beta virt. eigenvalues --    0.07313   0.08532   0.09498   0.09923   0.10884
  Beta virt. eigenvalues --    0.11313   0.11873   0.12753   0.13223   0.13442
  Beta virt. eigenvalues --    0.14396   0.15007   0.15277   0.15442   0.16331

 Mulliken charges and spin densities:
               1          2
     1  C   -0.459458  -0.207413
     2  C   -0.144101   0.400554
     3  C   -0.555361  -0.036324
     4  C    0.749271  -1.017870
     5  C   -0.918018   1.446554
     6  C   -0.006239  -0.772713
     7  C    0.073492  -0.754652
     8  O   -0.255952  -0.008042
     9  O    0.006036   0.021971
    10  N   -1.207760   0.796916
    11  N    0.897873  -0.333496
    12  N   -0.356487   0.274133
    13  H    0.120510   0.011316
    14  H    0.025356   0.105147
    15  H    0.071291   0.058485
    16  H    0.170000   0.010956
    17  H    0.107695   0.012197
    18  H    0.161360  -0.010399
    19  H    0.098729   0.019646
    20  H    0.231911  -0.035275
    21  H   -0.063377   0.233597
    22  H    0.079551   0.118500
    23  H   -0.182456   0.302139
    24  H    0.068395   0.054073
    25  H   -0.021284   0.179178
    26  H    0.092434   0.074161
    27  H    0.216591   0.056661
 Sum of Mulliken charges =  -1.00000   1.00000

 Dipole moment (field-independent basis, Debye):
    X=              3.2687    Y=              4.7095    Z=             -0.7794  Tot=              5.7854
 Quadrupole moment (field-independent basis, Debye-Ang):
   XX=           -126.7515   YY=            -96.2990   ZZ=            -91.0021
   XY=             -9.0154   XZ=              1.9436   YZ=             -0.8594

 Summary of Natural Population Analysis:

                                       Natural Population
                Natural  -----------------------------------------------
    Atom  No    Charge         Core      Valence    Rydberg      Total
 -----------------------------------------------------------------------
      C    1   -0.28315      0.99965     2.27897    0.00453     3.28315
      C    2   -0.12936      0.99959     2.12150    0.00828     3.12936
      C    3   -0.28346      0.99966     2.27815    0.00566     3.28346
      C    4    0.07350      0.99949     1.91002    0.01699     2.92650
      C    5   -0.13489      0.99957     2.12345    0.01186     3.13489
      C    6   -0.29405      0.99965     2.28703    0.00737     3.29405
      C    7   -0.00498      0.99956     1.99275    0.01266     3.00498
      O    8   -0.38038      0.99990     3.37367    0.00681     4.38038
      O    9   -0.22116      0.99989     3.21062    0.01065     4.22116
      N   10   -0.12095      0.99973     2.60417    0.01706     3.62095
      N   11    0.12990      0.99972     2.35357    0.01682     3.37010
      N   12    0.06999      0.99982     2.41675    0.01343     3.43001
      H   13    0.09311      0.00000     0.40585    0.00104     0.40689
      H   14    0.09942      0.00000     0.39967    0.00091     0.40058
      H   15    0.09451      0.00000     0.40454    0.00095     0.40549
      H   16    0.10294      0.00000     0.39528    0.00178     0.39706
      H   17    0.09035      0.00000     0.40864    0.00102     0.40965
      H   18    0.11489      0.00000     0.38404    0.00107     0.38511
      H   19    0.09093      0.00000     0.40814    0.00093     0.40907
      H   20    0.09308      0.00000     0.40563    0.00130     0.40692
      H   21    0.09389      0.00000     0.40422    0.00189     0.40611
      H   22    0.11440      0.00000     0.38418    0.00141     0.38560
      H   23    0.09388      0.00000     0.40502    0.00110     0.40612
      H   24    0.09572      0.00000     0.40342    0.00086     0.40428
      H   25    0.07964      0.00000     0.41906    0.00130     0.42036
      H   26    0.08598      0.00000     0.41235    0.00166     0.41402
      H   27    0.23625      0.00000     0.26043    0.00332     0.26375
 =======================================================================
   * Total *   -0.00000     11.99622    34.85113    0.15266    47.00000

 Normal termination of Gaussian 16 at Wed Dec  9 17:36:41 2020.
