 Gaussian 16, Revision A.03,

 -----------------------------------------------------------
 # opt freq B3LYP/6-31G(d) empiricaldispersion=gd3bj scf=xqc
 -----------------------------------------------------------

 -------------------------------
 CID_124415330_JID_1380_neutraal
 -------------------------------
 Symbolic Z-matrix:
 Charge =  0 Multiplicity = 1

 SCF Done:  E(RB3LYP) =  -458.450103615     A.U. after   14 cycles
 SCF Done:  E(RB3LYP) =  -458.457884623     A.U. after   13 cycles
 SCF Done:  E(RB3LYP) =  -458.460451370     A.U. after   13 cycles
 SCF Done:  E(RB3LYP) =  -458.461087287     A.U. after   13 cycles
 SCF Done:  E(RB3LYP) =  -458.461658921     A.U. after   12 cycles
 SCF Done:  E(RB3LYP) =  -458.461923470     A.U. after   12 cycles
 SCF Done:  E(RB3LYP) =  -458.461963356     A.U. after   11 cycles
 SCF Done:  E(RB3LYP) =  -458.461980001     A.U. after   10 cycles
 SCF Done:  E(RB3LYP) =  -458.461989736     A.U. after   11 cycles
 SCF Done:  E(RB3LYP) =  -458.461998205     A.U. after   11 cycles
 SCF Done:  E(RB3LYP) =  -458.462002149     A.U. after   11 cycles
 SCF Done:  E(RB3LYP) =  -458.462002279     A.U. after    7 cycles
 Optimization completed.
    -- Stationary point found.

 1\1\GINC-NODE105\FOpt\RB3LYP\6-31G(d)\C9H10N2\VSC10255\08-Dec-2020\0\\
 # opt freq B3LYP/6-31G(d) empiricaldispersion=gd3bj scf=xqc\\CID_12441
 5330_JID_1380_neutraal\\0,1\C,1.3567624261,-0.2092164068,-0.1170074993
 \C,0.953147406,1.1232967054,0.0123754387\C,-0.3963860462,1.4552404155,
 -0.009168108\C,-1.3820802135,0.4610683927,-0.1627033145\C,-0.958126809
 3,-0.8744067505,-0.2872544205\C,0.3938222819,-1.2073803043,-0.26628170
 4\C,-2.8128847236,0.7517792764,-0.1974221793\C,-3.4088781414,1.9637592
 422,-0.1614923566\C,-4.8514254118,2.1167325144,-0.1635180435\N,-5.5424

 Normal termination of Gaussian 16 at Tue Dec  8 19:49:45 2020.

 --------------------------------------------------------------------
 #N Geom=AllCheck Guess=TCheck SCRF=Check GenChk RB3LYP/6-31G(d) Freq
 --------------------------------------------------------------------

 Structure from the checkpoint file:  "JID_1380.chk"
 -------------------------------
 CID_124415330_JID_1380_neutraal
 -------------------------------
 Charge =  0 Multiplicity = 1

 SCF Done:  E(RB3LYP) =  -458.462002279     A.U. after    1 cycles

  Exact polarizability: 228.140 -11.361 111.319  -0.360  -0.321  38.763
 Approx polarizability: 363.011 -31.497 191.420  -3.850   1.546  58.786

                      1                      2                      3
                      A                      A                      A
 Frequencies --     27.7792                87.0776                97.2194
 Red. masses --      3.6213                 4.6516                 4.0445
 Frc consts  --      0.0016                 0.0208                 0.0225
 IR Inten    --      1.1916                 0.5321                 2.6645

                      4                      5                      6
                      A                      A                      A
 Frequencies --    132.6600               228.0494               266.7005
 Red. masses --      2.5853                 3.6605                 2.7756
 Frc consts  --      0.0268                 0.1122                 0.1163
 IR Inten    --      2.4638                 2.9547                 3.0828

                      7                      8                      9
                      A                      A                      A
 Frequencies --    308.3038               363.2488               412.8041
 Red. masses --      5.6267                 1.4146                 2.9482
 Frc consts  --      0.3151                 0.1100                 0.2960
 IR Inten    --      2.2288                 6.2772                 0.0817

                     10                     11                     12
                      A                      A                      A
 Frequencies --    446.5354               492.6962               576.8676
 Red. masses --      3.5894                 2.6040                 3.3922
 Frc consts  --      0.4217                 0.3724                 0.6651
 IR Inten    --     16.0472                 7.4179                 4.5199

                     13                     14                     15
                      A                      A                      A
 Frequencies --    617.4267               635.4857               693.3007
 Red. masses --      5.6553                 6.3736                 3.2134
 Frc consts  --      1.2702                 1.5165                 0.9100
 IR Inten    --     10.5738                 1.4543               103.0315

                     16                     17                     18
                      A                      A                      A
 Frequencies --    703.1302               744.9573               769.7771
 Red. masses --      1.8687                 1.6028                 1.7888
 Frc consts  --      0.5443                 0.5241                 0.6245
 IR Inten    --     17.2225               422.7127                52.0877

                     19                     20                     21
                      A                      A                      A
 Frequencies --    848.1880               860.5976               874.3569
 Red. masses --      1.2965                 4.4161                 1.5371
 Frc consts  --      0.5496                 1.9270                 0.6924
 IR Inten    --      0.5194                 2.0194                 5.1045

                     22                     23                     24
                      A                      A                      A
 Frequencies --    906.3655               925.5933               963.2614
 Red. masses --      1.5031                 1.5246                 1.3522
 Frc consts  --      0.7275                 0.7696                 0.7392
 IR Inten    --      2.5863                 0.6640                 0.0483

                     25                     26                     27
                      A                      A                      A
 Frequencies --    991.5750              1015.1050              1018.8276
 Red. masses --      1.2433                 1.1388                 5.5737
 Frc consts  --      0.7202                 0.6914                 3.4088
 IR Inten    --      2.9718                34.4921                 0.7784

                     28                     29                     30
                      A                      A                      A
 Frequencies --   1060.9460              1082.8087              1115.9478
 Red. masses --      2.2022                 2.9188                 1.6530
 Frc consts  --      1.4604                 2.0163                 1.2129
 IR Inten    --      0.7220                36.4615                 4.9582

                     31                     32                     33
                      A                      A                      A
 Frequencies --   1172.1991              1194.8690              1218.2120
 Red. masses --      2.8145                 1.0969                 1.1439
 Frc consts  --      2.2785                 0.9227                 1.0002
 IR Inten    --     36.2596                 0.3161                 0.0869

                     34                     35                     36
                      A                      A                      A
 Frequencies --   1254.4641              1293.3902              1335.6845
 Red. masses --      2.2212                 1.4469                 1.4999
 Frc consts  --      2.0594                 1.4261                 1.5766
 IR Inten    --      0.1534                 6.0955                15.4822

                     37                     38                     39
                      A                      A                      A
 Frequencies --   1351.2421              1370.5708              1375.9971
 Red. masses --      1.7250                 2.2714                 1.4762
 Frc consts  --      1.8557                 2.5139                 1.6467
 IR Inten    --      3.0344                 3.3510                 3.0005

                     40                     41                     42
                      A                      A                      A
 Frequencies --   1424.5571              1499.9017              1547.5072
 Red. masses --      1.3809                 2.2596                 2.2013
 Frc consts  --      1.6511                 2.9951                 3.1060
 IR Inten    --     31.0970                 6.4113                12.1512

                     43                     44                     45
                      A                      A                      A
 Frequencies --   1634.5738              1657.6411              1671.6682
 Red. masses --      5.1119                 5.3198                 4.6575
 Frc consts  --      8.0472                 8.6125                 7.6683
 IR Inten    --      4.1890                 7.9890                11.5314

                     46                     47                     48
                      A                      A                      A
 Frequencies --   1693.5262              1711.2838              3144.7898
 Red. masses --      4.6071                 1.2043                 1.0880
 Frc consts  --      7.7850                 2.0780                 6.3398
 IR Inten    --      3.3234                18.9755                 9.5358

                     49                     50                     51
                      A                      A                      A
 Frequencies --   3157.2789              3180.3079              3182.5295
 Red. masses --      1.0889                 1.0861                 1.0873
 Frc consts  --      6.3953                 6.4722                 6.4883
 IR Inten    --     22.7481                 9.0167                12.8438

                     52                     53                     54
                      A                      A                      A
 Frequencies --   3188.1426              3197.2332              3206.0280
 Red. masses --      1.0868                 1.0906                 1.0929
 Frc consts  --      6.5084                 6.5684                 6.6187
 IR Inten    --      3.3156                13.1880                34.9613

                     55                     56                     57
                      A                      A                      A
 Frequencies --   3214.1479              3453.0891              3601.7029
 Red. masses --      1.0977                 1.0524                 1.0913
 Frc consts  --      6.6815                 7.3933                 8.3411
 IR Inten    --     23.1190                 3.0905                16.2282

 - Thermochemistry -
 -------------------
 Temperature   298.150 Kelvin.  Pressure   1.00000 Atm.
 Atom     1 has atomic number  6 and mass  12.00000

 Molecular mass:   146.08440 amu.
 Principal axes and moments of inertia in atomic units:
                           1         2         3
     Eigenvalues --   492.798454085.982064565.10331
           X            0.99999  -0.00483   0.00258
           Y            0.00484   0.99997  -0.00539
           Z           -0.00255   0.00540   0.99998
 This molecule is an asymmetric top.
 Rotational symmetry number  1.
 Warning -- assumption of classical behavior for rotation
           may cause significant error
 Rotational temperatures (Kelvin)      0.17576     0.02120     0.01897
 Rotational constants (GHZ):           3.66223     0.44169     0.39533
 Zero-point vibrational energy     455778.0 (Joules/Mol)
                                  108.93355 (Kcal/Mol)
 Warning -- explicit consideration of  13 degrees of freedom as
           vibrations may cause significant error
 Vibrational temperatures:     39.97   125.29   139.88   190.87   328.11
          (Kelvin)            383.72   443.58   522.63   593.93   642.46
                              708.88   829.98   888.34   914.32   997.51
                             1011.65  1071.83  1107.54  1220.35  1238.21
                             1258.00  1304.06  1331.72  1385.92  1426.66
                             1460.51  1465.87  1526.46  1557.92  1605.60
                             1686.53  1719.15  1752.74  1804.89  1860.90
                             1921.75  1944.14  1971.95  1979.75  2049.62
                             2158.02  2226.52  2351.79  2384.98  2405.16
                             2436.61  2462.16  4524.65  4542.62  4575.75
                             4578.95  4587.03  4600.11  4612.76  4624.44
                             4968.23  5182.05

 Zero-point correction=                           0.173597 (Hartree/Particle)
 Thermal correction to Energy=                    0.183550
 Thermal correction to Enthalpy=                  0.184494
 Thermal correction to Gibbs Free Energy=         0.136961
 Sum of electronic and zero-point Energies=           -458.288406
 Sum of electronic and thermal Energies=              -458.278453
 Sum of electronic and thermal Enthalpies=            -458.277508
 Sum of electronic and thermal Free Energies=         -458.325041

                     E (Thermal)             CV                S
                      KCal/Mol        Cal/Mol-Kelvin    Cal/Mol-Kelvin
 Total                  115.179             37.638            100.040
 Electronic               0.000              0.000              0.000
 Translational            0.889              2.981             40.848
 Rotational               0.889              2.981             30.598
 Vibrational            113.402             31.676             28.595
 Vibration     1          0.593              1.984              5.982
 Vibration     2          0.601              1.958              3.725
 Vibration     3          0.603              1.951              3.509
 Vibration     4          0.613              1.921              2.907
 Vibration     5          0.651              1.798              1.894
 Vibration     6          0.672              1.734              1.617
 Vibration     7          0.698              1.658              1.371
 Vibration     8          0.737              1.548              1.108
 Vibration     9          0.777              1.442              0.917
 Vibration    10          0.806              1.369              0.806
 Vibration    11          0.848              1.266              0.677
 Vibration    12          0.933              1.081              0.491
 Vibration    13          0.977              0.995              0.421

 Optimization completed.
    -- Stationary point found.

 1\1\GINC-NODE105\Freq\RB3LYP\6-31G(d)\C9H10N2\VSC10255\08-Dec-2020\0\\
 #N Geom=AllCheck Guess=TCheck SCRF=Check GenChk RB3LYP/6-31G(d) Freq\\
 CID_124415330_JID_1380_neutraal\\0,1\C,1.3567624261,-0.2092164068,-0.1
 170074993\C,0.953147406,1.1232967054,0.0123754387\C,-0.3963860462,1.45
 52404155,-0.009168108\C,-1.3820802135,0.4610683927,-0.1627033145\C,-0.
 9581268093,-0.8744067505,-0.2872544205\C,0.3938222819,-1.2073803043,-0
 .266281704\C,-2.8128847236,0.7517792764,-0.1974221793\C,-3.4088781414,
 1.9637592422,-0.1614923566\C,-4.8514254118,2.1167325144,-0.1635180435\

 Normal termination of Gaussian 16 at Tue Dec  8 19:53:35 2020.

 ----------------------------------------------------------------------
 # B3LYP/6-311++G(d,p) empiricaldispersion=gd3bj scf=xqc pop=npa geom=c
 heck
 ----------------------------------------------------------------------

 ---------------------------------------
 CID_124415330_JID_1380_Energie_neutraal
 ---------------------------------------
 Structure from the checkpoint file:  "JID_1380.chk"
 Charge =  0 Multiplicity = 1

 SCF Done:  E(RB3LYP) =  -458.591642115     A.U. after   15 cycles
 Normal termination of Gaussian 16 at Tue Dec  8 19:55:18 2020.

 ----------------------------------------------------------------------
 # B3LYP/6-311++G(d,p) empiricaldispersion=gd3bj scf=xqc pop=npa geom=c
 heck
 ----------------------------------------------------------------------

 -------------------------------------
 CID_124415330_JID_1380_Energie_kation
 -------------------------------------
 Structure from the checkpoint file:  "JID_1380.chk"
 Charge =  1 Multiplicity = 2

 SCF Done:  E(UB3LYP) =  -458.313122235     A.U. after   23 cycles
 Normal termination of Gaussian 16 at Tue Dec  8 19:59:01 2020.
 Gaussian 16:  ES64L-G16RevA.03 25-Dec-2016

 ------------------------------------
 CID_124415330_JID_1380_Energie_anion
 ------------------------------------
 Structure from the checkpoint file:  "JID_1380.chk"
 Charge = -1 Multiplicity = 2

                         Standard orientation:
 ---------------------------------------------------------------------
 Center     Atomic      Atomic             Coordinates (Angstroms)
 Number     Number       Type             X           Y           Z
 ---------------------------------------------------------------------
      1          6           0        3.657516    0.577151   -0.030627
      2          6           0        2.599833    1.484456    0.084871
      3          6           0        1.285346    1.033540    0.111117
      4          6           0        0.991588   -0.340899    0.020745
      5          6           0        2.068077   -1.239507   -0.090692
      6          6           0        3.385139   -0.788175   -0.117585
      7          6           0       -0.369183   -0.870919    0.038099
      8          6           0       -1.525392   -0.172708    0.070871
      9          6           0       -2.820750   -0.823492    0.124494
     10          7           0       -3.992388   -0.285348    0.048858
     11          7           0       -4.080385    1.080694   -0.110087
     12          1           0        4.683311    0.933560   -0.049818
     13          1           0        2.803714    2.549121    0.157886
     14          1           0        0.478654    1.753387    0.209561
     15          1           0        1.860023   -2.304457   -0.158752
     16          1           0        4.198720   -1.502691   -0.205408
     17          1           0       -0.439341   -1.959042    0.017280
     18          1           0       -1.499222    0.913859    0.099393
     19          1           0       -2.828718   -1.904489    0.262735
     20          1           0       -3.373257    1.489545   -0.721153
     21          1           0       -5.007523    1.307101   -0.450873
 ---------------------------------------------------------------------

 SCF Done:  E(UB3LYP) =  -458.607748174     A.U. after   23 cycles

 The electronic state is 2-A.
 Alpha  occ. eigenvalues --  -14.19379 -14.16333 -10.03713 -10.03522 -10.03507
 Alpha  occ. eigenvalues --  -10.02838 -10.02787 -10.02505 -10.02324 -10.00571
 Alpha  occ. eigenvalues --  -10.00295  -0.83502  -0.71543  -0.66429  -0.63428
 Alpha  occ. eigenvalues --   -0.60685  -0.58105  -0.49133  -0.46673  -0.43962
 Alpha  occ. eigenvalues --   -0.40974  -0.38827  -0.36515  -0.33962  -0.31818
 Alpha  occ. eigenvalues --   -0.30743  -0.28479  -0.27331  -0.25949  -0.24504
 Alpha  occ. eigenvalues --   -0.23512  -0.22235  -0.20715  -0.19651  -0.16695
 Alpha  occ. eigenvalues --   -0.12406  -0.12082  -0.10951  -0.06295   0.04158
 Alpha virt. eigenvalues --    0.08654   0.09188   0.09943   0.11023   0.11529
 Alpha virt. eigenvalues --    0.12109   0.12935   0.13582   0.14606   0.15135
 Alpha virt. eigenvalues --    0.16629   0.16817   0.17297   0.17512   0.17916

  Beta  occ. eigenvalues --  -14.19328 -14.15842 -10.03794 -10.03562 -10.03528
  Beta  occ. eigenvalues --  -10.02751 -10.02695 -10.02241 -10.02145 -10.00296
  Beta  occ. eigenvalues --  -10.00076  -0.82994  -0.71253  -0.66088  -0.62919
  Beta  occ. eigenvalues --   -0.60464  -0.57614  -0.48380  -0.46571  -0.43683
  Beta  occ. eigenvalues --   -0.40669  -0.38675  -0.36285  -0.33733  -0.31627
  Beta  occ. eigenvalues --   -0.30588  -0.28428  -0.27068  -0.25817  -0.23320
  Beta  occ. eigenvalues --   -0.22642  -0.22018  -0.20487  -0.19529  -0.15250
  Beta  occ. eigenvalues --   -0.11631  -0.11424  -0.10101  -0.04578
  Beta virt. eigenvalues --    0.08610   0.09001   0.09858   0.09940   0.10979
  Beta virt. eigenvalues --    0.11524   0.12374   0.12976   0.13562   0.15149
  Beta virt. eigenvalues --    0.15927   0.16691   0.17085   0.17294   0.17580

 Mulliken charges and spin densities:
               1          2
     1  C   -0.437087   0.210718
     2  C   -0.240069  -0.046454
     3  C   -1.448036   0.190083
     4  C    1.453601   0.012972
     5  C    0.296487   0.092242
     6  C   -0.381958  -0.006131
     7  C   -0.057133   0.164633
     8  C   -0.189086   0.181746
     9  C   -0.583603  -0.015150
    10  N   -0.185843   0.194192
    11  N   -0.254551   0.001491
    12  H    0.089409  -0.016590
    13  H    0.133948   0.004115
    14  H    0.032551  -0.000655
    15  H    0.114021  -0.002677
    16  H    0.107156  -0.000131
    17  H   -0.018341  -0.016162
    18  H    0.078860  -0.052695
    19  H    0.155562   0.004103
    20  H    0.108849   0.089138
    21  H    0.225264   0.011211
 Sum of Mulliken charges =  -1.00000   1.00000

 Dipole moment (field-independent basis, Debye):
    X=              3.0312    Y=              0.7319    Z=             -0.9698  Tot=              3.2656
 Quadrupole moment (field-independent basis, Debye-Ang):
   XX=           -117.9420   YY=            -70.9787   ZZ=            -78.2974
   XY=             -5.1675   XZ=              4.4673   YZ=             -1.2811

 Summary of Natural Population Analysis:

                                       Natural Population
                Natural  -----------------------------------------------
    Atom  No    Charge         Core      Valence    Rydberg      Total
 -----------------------------------------------------------------------
      C    1   -0.06945      0.99957     2.05956    0.01031     3.06945
      C    2   -0.12630      0.99958     2.11729    0.00944     3.12630
      C    3   -0.05854      0.99953     2.05083    0.00818     3.05854
      C    4   -0.02270      0.99951     2.01423    0.00896     3.02270
      C    5   -0.07650      0.99954     2.06843    0.00853     3.07650
      C    6   -0.11981      0.99957     2.11065    0.00959     3.11981
      C    7   -0.03491      0.99953     2.02668    0.00869     3.03491
      C    8   -0.09676      0.99952     2.08740    0.00984     3.09676
      C    9   -0.01070      0.99963     1.99429    0.01678     3.01070
      N   10   -0.09076      0.99967     2.57221    0.01888     3.59076
      N   11   -0.31928      0.99976     2.80454    0.01499     3.81928
      H   12    0.08624      0.00000     0.41270    0.00106     0.41376
      H   13    0.09005      0.00000     0.40889    0.00107     0.40995
      H   14    0.09285      0.00000     0.40580    0.00135     0.40715
      H   15    0.08946      0.00000     0.40917    0.00137     0.41054
      H   16    0.08926      0.00000     0.40964    0.00110     0.41074
      H   17    0.07881      0.00000     0.41925    0.00194     0.42119
      H   18    0.08668      0.00000     0.41160    0.00172     0.41332
      H   19    0.07899      0.00000     0.41948    0.00153     0.42101
      H   20    0.16489      0.00000     0.33121    0.00390     0.33511
      H   21    0.16849      0.00000     0.32843    0.00308     0.33151
 =======================================================================
   * Total *   -0.00000     10.99542    27.86227    0.14231    39.00000

 Normal termination of Gaussian 16 at Tue Dec  8 20:03:33 2020.
