 Gaussian 16, Revision A.03,

 -----------------------------------------------------------
 # opt freq B3LYP/6-31G(d) empiricaldispersion=gd3bj scf=xqc
 -----------------------------------------------------------

 -------------------------------
 CID_117223831_JID_5104_neutraal
 -------------------------------
 Symbolic Z-matrix:
 Charge =  0 Multiplicity = 1

 SCF Done:  E(RB3LYP) =  -631.824836719     A.U. after   15 cycles
 SCF Done:  E(RB3LYP) =  -631.830305901     A.U. after   12 cycles
 SCF Done:  E(RB3LYP) =  -631.830922639     A.U. after   12 cycles
 SCF Done:  E(RB3LYP) =  -631.831042609     A.U. after   11 cycles
 SCF Done:  E(RB3LYP) =  -631.831078348     A.U. after   10 cycles
 SCF Done:  E(RB3LYP) =  -631.831095279     A.U. after    9 cycles
 SCF Done:  E(RB3LYP) =  -631.831101564     A.U. after    9 cycles
 SCF Done:  E(RB3LYP) =  -631.831101959     A.U. after    8 cycles
 SCF Done:  E(RB3LYP) =  -631.831102493     A.U. after    8 cycles
 SCF Done:  E(RB3LYP) =  -631.831102590     A.U. after    7 cycles
 SCF Done:  E(RB3LYP) =  -631.831103333     A.U. after    9 cycles
 SCF Done:  E(RB3LYP) =  -631.831103545     A.U. after    9 cycles
 SCF Done:  E(RB3LYP) =  -631.831103759     A.U. after    8 cycles
 SCF Done:  E(RB3LYP) =  -631.831103815     A.U. after    7 cycles
 SCF Done:  E(RB3LYP) =  -631.831103820     A.U. after    6 cycles
 Optimization completed.
    -- Stationary point found.
 Normal termination of Gaussian 16 at Thu Dec 10 14:54:02 2020.

 --------------------------------------------------------------------
 #N Geom=AllCheck Guess=TCheck SCRF=Check GenChk RB3LYP/6-31G(d) Freq
 --------------------------------------------------------------------

 Structure from the checkpoint file:  "JID_5104.chk"
 -------------------------------
 CID_117223831_JID_5104_neutraal
 -------------------------------
 Charge =  0 Multiplicity = 1

 SCF Done:  E(RB3LYP) =  -631.831103820     A.U. after    1 cycles

  Exact polarizability: 188.067 -16.321 157.154  14.844   6.338  87.336
 Approx polarizability: 262.688 -29.743 261.755  33.840  15.258 134.484

                      1                      2                      3
                      A                      A                      A
 Frequencies --     30.1133                36.2825                46.7811
 Red. masses --      1.0213                 2.8939                 3.3438
 Frc consts  --      0.0005                 0.0022                 0.0043
 IR Inten    --      0.3884                 0.5920                 0.0487

                      4                      5                      6
                      A                      A                      A
 Frequencies --     50.0097               100.4108               129.2355
 Red. masses --      4.4825                 2.0668                 3.8522
 Frc consts  --      0.0066                 0.0123                 0.0379
 IR Inten    --      1.0871                 1.3534                 2.6686

                      7                      8                      9
                      A                      A                      A
 Frequencies --    200.2897               210.9186               222.1735
 Red. masses --      2.0941                 1.9609                 2.0059
 Frc consts  --      0.0495                 0.0514                 0.0583
 IR Inten    --      0.1100                 1.9154                 0.1449

                     10                     11                     12
                      A                      A                      A
 Frequencies --    241.8966               273.4896               293.1779
 Red. masses --      1.4015                 2.1373                 3.3928
 Frc consts  --      0.0483                 0.0942                 0.1718
 IR Inten    --      0.0653                 1.5229                 1.8925

                     13                     14                     15
                      A                      A                      A
 Frequencies --    327.5739               335.3033               358.9958
 Red. masses --      2.8767                 2.9239                 3.8954
 Frc consts  --      0.1819                 0.1937                 0.2958
 IR Inten    --      0.2311                 1.2992                 0.6432

                     16                     17                     18
                      A                      A                      A
 Frequencies --    439.5669               445.5436               486.5027
 Red. masses --      2.0440                 4.0857                 4.4278
 Frc consts  --      0.2327                 0.4779                 0.6175
 IR Inten    --      3.2252                 0.1289                 3.2423

                     19                     20                     21
                      A                      A                      A
 Frequencies --    494.1730               515.0137               603.1885
 Red. masses --      2.7305                 3.5223                 3.5406
 Frc consts  --      0.3929                 0.5504                 0.7590
 IR Inten    --      6.2074                 6.0507                 2.3764

                     22                     23                     24
                      A                      A                      A
 Frequencies --    623.8968               644.9802               712.3870
 Red. masses --      3.9150                 6.4196                 5.1649
 Frc consts  --      0.8978                 1.5734                 1.5444
 IR Inten    --      6.0919                 5.4626                22.8606

                     25                     26                     27
                      A                      A                      A
 Frequencies --    724.4560               776.4034               791.4530
 Red. masses --      1.2949                 1.8597                 4.9644
 Frc consts  --      0.4004                 0.6605                 1.8322
 IR Inten    --     42.1611                60.9246                 3.6658

                     28                     29                     30
                      A                      A                      A
 Frequencies --    803.8593               824.5414               843.6475
 Red. masses --      5.6256                 4.9356                 1.3055
 Frc consts  --      2.1418                 1.9770                 0.5475
 IR Inten    --      1.3440                16.0339                 2.7276

                     31                     32                     33
                      A                      A                      A
 Frequencies --    856.9901               899.7576               917.7161
 Red. masses --      1.8078                 1.3520                 1.3897
 Frc consts  --      0.7822                 0.6449                 0.6896
 IR Inten    --     21.3092                14.6284                 5.1503

                     34                     35                     36
                      A                      A                      A
 Frequencies --    937.7599               941.6478               990.6508
 Red. masses --      1.3789                 1.7928                 3.1903
 Frc consts  --      0.7144                 0.9366                 1.8447
 IR Inten    --      1.0055                 0.8742                 5.0415

                     37                     38                     39
                      A                      A                      A
 Frequencies --   1031.6447              1051.8868              1067.8389
 Red. masses --      1.5062                 1.5163                 1.7410
 Frc consts  --      0.9445                 0.9885                 1.1697
 IR Inten    --      1.7294                 3.7800                 6.7790

                     40                     41                     42
                      A                      A                      A
 Frequencies --   1077.2531              1110.1597              1126.5742
 Red. masses --      1.4849                 1.8820                 2.2709
 Frc consts  --      1.0153                 1.3666                 1.6981
 IR Inten    --     11.3335                 4.4838                 6.3594

                     43                     44                     45
                      A                      A                      A
 Frequencies --   1132.5873              1167.4292              1183.0403
 Red. masses --      1.9599                 2.3605                 1.5897
 Frc consts  --      1.4812                 1.8955                 1.3109
 IR Inten    --     27.0818                48.8333                 6.6898

                     46                     47                     48
                      A                      A                      A
 Frequencies --   1191.6719              1212.5844              1259.1816
 Red. masses --      2.0473                 1.8718                 2.5548
 Frc consts  --      1.7129                 1.6215                 2.3866
 IR Inten    --     34.9856                10.4215                 3.1070

                     49                     50                     51
                      A                      A                      A
 Frequencies --   1265.4688              1304.9693              1347.3134
 Red. masses --      2.1842                 1.5209                 2.2330
 Frc consts  --      2.0609                 1.5260                 2.3882
 IR Inten    --     17.7320                 5.9947                36.9833

                     52                     53                     54
                      A                      A                      A
 Frequencies --   1358.1852              1362.1056              1385.3368
 Red. masses --      1.3599                 3.3152                 1.3321
 Frc consts  --      1.4780                 3.6239                 1.5063
 IR Inten    --      1.4606                24.7580                 7.1522

                     55                     56                     57
                      A                      A                      A
 Frequencies --   1397.0311              1406.1682              1434.6478
 Red. masses --      2.9233                 1.5043                 1.4016
 Frc consts  --      3.3615                 1.7525                 1.6996
 IR Inten    --      9.8053                14.7758                22.3377

                     58                     59                     60
                      A                      A                      A
 Frequencies --   1441.4983              1445.8252              1455.3975
 Red. masses --      1.9069                 1.3964                 3.6897
 Frc consts  --      2.3346                 1.7198                 4.6047
 IR Inten    --      6.3476                 8.6698                69.8627

                     61                     62                     63
                      A                      A                      A
 Frequencies --   1483.5734              1501.7073              1508.7958
 Red. masses --      1.1637                 1.1827                 1.1620
 Frc consts  --      1.5091                 1.5714                 1.5586
 IR Inten    --      2.6521                 5.1793                16.1761

                     64                     65                     66
                      A                      A                      A
 Frequencies --   1517.8955              1520.3465              1522.0224
 Red. masses --      1.0617                 1.1089                 1.1704
 Frc consts  --      1.4412                 1.5102                 1.5974
 IR Inten    --      5.1339                 4.6663                22.8645

                     67                     68                     69
                      A                      A                      A
 Frequencies --   1524.3429              1537.7904              1546.7078
 Red. masses --      1.1019                 1.0622                 2.3248
 Frc consts  --      1.5085                 1.4800                 3.2769
 IR Inten    --      0.9010                 6.8495                53.1255

                     70                     71                     72
                      A                      A                      A
 Frequencies --   1549.5653              1560.7418              1620.0851
 Red. masses --      1.0739                 4.5368                 6.0150
 Frc consts  --      1.5192                 6.5112                 9.3017
 IR Inten    --      3.6125                46.6993                 9.7984

                     73                     74                     75
                      A                      A                      A
 Frequencies --   1663.3706              2970.0728              3035.7924
 Red. masses --      6.4662                 1.0589                 1.0446
 Frc consts  --     10.5409                 5.5034                 5.6720
 IR Inten    --     10.8518                86.1343                20.3282

                     76                     77                     78
                      A                      A                      A
 Frequencies --   3040.2721              3064.5889              3078.2927
 Red. masses --      1.0401                 1.0679                 1.0745
 Frc consts  --      5.6642                 5.9089                 5.9991
 IR Inten    --     45.9730                26.1498                37.4916

                     79                     80                     81
                      A                      A                      A
 Frequencies --   3081.3488              3096.2177              3110.5382
 Red. masses --      1.0784                 1.0965                 1.0931
 Frc consts  --      6.0325                 6.1930                 6.2311
 IR Inten    --     16.3741                22.7190                28.6685

                     82                     83                     84
                      A                      A                      A
 Frequencies --   3121.7062              3121.9877              3131.6113
 Red. masses --      1.1035                 1.1023                 1.1021
 Frc consts  --      6.3358                 6.3303                 6.3682
 IR Inten    --     36.5636                14.7040                32.5774

                     85                     86                     87
                      A                      A                      A
 Frequencies --   3135.9037              3163.0695              3179.4789
 Red. masses --      1.1018                 1.0898                 1.0908
 Frc consts  --      6.3837                 6.4244                 6.4968
 IR Inten    --     10.5379                33.1178                18.9220

                     88                     89                     90
                      A                      A                      A
 Frequencies --   3255.8907              3274.0171              3469.9883
 Red. masses --      1.0894                 1.1032                 1.0733
 Frc consts  --      6.8044                 6.9675                 7.6143
 IR Inten    --      1.4183                 5.9697                 2.3274

 - Thermochemistry -
 -------------------
 Temperature   298.150 Kelvin.  Pressure   1.00000 Atm.
 Atom     1 has atomic number  6 and mass  12.00000

 Molecular mass:   203.14225 amu.
 Principal axes and moments of inertia in atomic units:
                           1         2         3
     Eigenvalues --  1612.462135167.204856223.71662
           X            0.99999  -0.00319  -0.00277
           Y            0.00319   0.99999  -0.00136
           Z            0.00278   0.00135   1.00000
 This molecule is an asymmetric top.
 Rotational symmetry number  1.
 Warning -- assumption of classical behavior for rotation
           may cause significant error
 Rotational temperatures (Kelvin)      0.05372     0.01676     0.01392
 Rotational constants (GHZ):           1.11925     0.34927     0.28998
 Zero-point vibrational energy     728132.9 (Joules/Mol)
                                  174.02793 (Kcal/Mol)
 Warning -- explicit consideration of  21 degrees of freedom as
           vibrations may cause significant error
 Vibrational temperatures:     43.33    52.20    67.31    71.95   144.47
          (Kelvin)            185.94   288.17   303.46   319.66   348.04
                              393.49   421.82   471.31   482.43   516.51
                              632.44   641.04   699.97   711.00   740.99
                              867.85   897.65   927.98  1024.97  1042.33
                             1117.07  1138.72  1156.57  1186.33  1213.82
                             1233.02  1294.55  1320.39  1349.23  1354.82
                             1425.33  1484.31  1513.43  1536.38  1549.93
                             1597.27  1620.89  1629.54  1679.67  1702.13
                             1714.55  1744.64  1811.68  1820.73  1877.56
                             1938.48  1954.13  1959.77  1993.19  2010.02
                             2023.16  2064.14  2073.99  2080.22  2093.99
                             2134.53  2160.62  2170.82  2183.91  2187.44
                             2189.85  2193.19  2212.54  2225.37  2229.48
                             2245.56  2330.94  2393.22  4273.27  4367.83
                             4374.27  4409.26  4428.98  4433.37  4454.77
                             4475.37  4491.44  4491.84  4505.69  4511.87
                             4550.95  4574.56  4684.50  4710.58  4992.54

 Zero-point correction=                           0.277331 (Hartree/Particle)
 Thermal correction to Energy=                    0.292097
 Thermal correction to Enthalpy=                  0.293041
 Thermal correction to Gibbs Free Energy=         0.233935
 Sum of electronic and zero-point Energies=           -631.553773
 Sum of electronic and thermal Energies=              -631.539007
 Sum of electronic and thermal Enthalpies=            -631.538063
 Sum of electronic and thermal Free Energies=         -631.597169

                     E (Thermal)             CV                S
                      KCal/Mol        Cal/Mol-Kelvin    Cal/Mol-Kelvin
 Total                  183.293             55.551            124.399
 Electronic               0.000              0.000              0.000
 Translational            0.889              2.981             41.831
 Rotational               0.889              2.981             32.317
 Vibrational            181.516             49.589             50.252
 Vibration     1          0.594              1.984              5.822
 Vibration     2          0.594              1.982              5.452
 Vibration     3          0.595              1.979              4.949
 Vibration     4          0.595              1.978              4.817
 Vibration     5          0.604              1.949              3.446
 Vibration     6          0.612              1.924              2.957
 Vibration     7          0.638              1.839              2.130
 Vibration     8          0.643              1.824              2.036
 Vibration     9          0.648              1.807              1.941
 Vibration    10          0.658              1.776              1.789
 Vibration    11          0.676              1.722              1.574
 Vibration    12          0.688              1.686              1.456
 Vibration    13          0.711              1.620              1.272
 Vibration    14          0.716              1.605              1.234
 Vibration    15          0.734              1.557              1.126
 Vibration    16          0.800              1.384              0.828
 Vibration    17          0.805              1.371              0.809
 Vibration    18          0.843              1.280              0.693
 Vibration    19          0.850              1.263              0.673
 Vibration    20          0.870              1.217              0.622
 Vibration    21          0.962              1.025              0.444

 Optimization completed.
    -- Stationary point found.
 Normal termination of Gaussian 16 at Thu Dec 10 15:03:32 2020.

 ----------------------------------------------------------------------
 # B3LYP/6-311++G(d,p) empiricaldispersion=gd3bj scf=xqc pop=npa geom=c
 heck
 ----------------------------------------------------------------------

 ---------------------------------------
 CID_117223831_JID_5104_Energie_neutraal
 ---------------------------------------
 Structure from the checkpoint file:  "JID_5104.chk"
 Charge =  0 Multiplicity = 1

 SCF Done:  E(RB3LYP) =  -631.999510796     A.U. after   15 cycles
 Normal termination of Gaussian 16 at Thu Dec 10 15:08:04 2020.

 ----------------------------------------------------------------------
 # B3LYP/6-311++G(d,p) empiricaldispersion=gd3bj scf=xqc pop=npa geom=c
 heck
 ----------------------------------------------------------------------

 -------------------------------------
 CID_117223831_JID_5104_Energie_kation
 -------------------------------------
 Structure from the checkpoint file:  "JID_5104.chk"
 Charge =  1 Multiplicity = 2

 SCF Done:  E(UB3LYP) =  -631.721895472     A.U. after   26 cycles
 Normal termination of Gaussian 16 at Thu Dec 10 15:19:18 2020.
 Gaussian 16:  ES64L-G16RevA.03 25-Dec-2016

 ----------------------------------------------------------------------
 # B3LYP/6-311++G(d,p) empiricaldispersion=gd3bj scf=xqc pop=npa geom=c
 heck
 ----------------------------------------------------------------------

 ------------------------------------
 CID_117223831_JID_5104_Energie_anion
 ------------------------------------
 Structure from the checkpoint file:  "JID_5104.chk"
 Charge = -1 Multiplicity = 2

                         Standard orientation:
 ---------------------------------------------------------------------
 Center     Atomic      Atomic             Coordinates (Angstroms)
 Number     Number       Type             X           Y           Z
 ---------------------------------------------------------------------
      1          6           0        4.404716   -1.663445    0.343742
      2          6           0        3.111772   -0.917353    0.120273
      3          6           0        3.014097    0.455323    0.352278
      4          6           0        1.794744    1.093737    0.100285
      5          6           0        0.735949    0.271719   -0.384867
      6          7           0        0.786517   -1.040354   -0.607002
      7          6           0        1.970958   -1.603530   -0.350547
      8          7           0       -0.374197    1.068617   -0.577476
      9          6           0       -0.040109    2.360843   -0.211942
     10          6           0        1.267924    2.423342    0.202029
     11          6           0       -1.684175    0.582446   -0.975982
     12          6           0       -2.385424   -0.241494    0.118577
     13          6           0       -2.468662    0.519560    1.448117
     14          7           0       -3.678985   -0.662031   -0.426435
     15          6           0       -4.295780   -1.783961    0.272415
     16          1           0        4.224215   -2.728431    0.523744
     17          1           0        4.952347   -1.265423    1.204917
     18          1           0        5.068915   -1.588420   -0.527375
     19          1           0        3.871608    1.011426    0.725029
     20          1           0        2.031798   -2.677222   -0.522835
     21          1           0       -0.781497    3.144351   -0.287007
     22          1           0        1.790018    3.311948    0.528057
     23          1           0       -2.292760    1.455662   -1.237885
     24          1           0       -1.581417   -0.039164   -1.868410
     25          1           0       -1.789158   -1.149586    0.262574
     26          1           0       -3.023682    1.459620    1.321944
     27          1           0       -2.983528   -0.076256    2.208714
     28          1           0       -1.474103    0.766671    1.832572
     29          1           0       -4.317046    0.133302   -0.415135
     30          1           0       -4.472237   -1.625597    1.351168
     31          1           0       -5.258288   -2.013576   -0.196362
     32          1           0       -3.654585   -2.666049    0.166418
 ---------------------------------------------------------------------

 SCF Done:  E(UB3LYP) =  -631.987073227     A.U. after   33 cycles
 SCF Done:  E(UB3LYP) =  -631.987073227     a.u. after    1 cycles

 The electronic state is 2-A.
 Alpha  occ. eigenvalues --  -14.24019 -14.19162 -14.17841 -10.10467 -10.09479
 Alpha  occ. eigenvalues --  -10.09048 -10.08377 -10.08314 -10.07415 -10.07124
 Alpha  occ. eigenvalues --  -10.06306 -10.05437 -10.05364 -10.05221 -10.04674
 Alpha  occ. eigenvalues --   -0.88147  -0.80734  -0.79970  -0.70963  -0.68534
 Alpha  occ. eigenvalues --   -0.64539  -0.61941  -0.59415  -0.57419  -0.55354
 Alpha  occ. eigenvalues --   -0.51962  -0.48908  -0.47124  -0.45625  -0.41014
 Alpha  occ. eigenvalues --   -0.38273  -0.37950  -0.36403  -0.35159  -0.33782
 Alpha  occ. eigenvalues --   -0.33124  -0.32404  -0.31329  -0.31023  -0.30446
 Alpha  occ. eigenvalues --   -0.28865  -0.28609  -0.28461  -0.27961  -0.27224
 Alpha  occ. eigenvalues --   -0.25997  -0.25358  -0.25067  -0.23358  -0.22093
 Alpha  occ. eigenvalues --   -0.18195  -0.14346  -0.12376  -0.11255  -0.10208
 Alpha  occ. eigenvalues --    0.04831
 Alpha virt. eigenvalues --    0.06458   0.07038   0.07476   0.08598   0.09016
 Alpha virt. eigenvalues --    0.09387   0.09982   0.10320   0.10620   0.11579
 Alpha virt. eigenvalues --    0.11748   0.12536   0.12816   0.13020   0.13450

  Beta  occ. eigenvalues --  -14.24024 -14.19139 -14.17635 -10.10484 -10.09463
  Beta  occ. eigenvalues --  -10.09051 -10.08352 -10.08170 -10.07313 -10.07120
  Beta  occ. eigenvalues --  -10.06348 -10.05343 -10.05215 -10.05204 -10.04675
  Beta  occ. eigenvalues --   -0.88061  -0.80545  -0.79849  -0.70794  -0.68438
  Beta  occ. eigenvalues --   -0.64481  -0.61736  -0.59330  -0.57349  -0.55284
  Beta  occ. eigenvalues --   -0.51630  -0.48836  -0.47090  -0.45486  -0.40920
  Beta  occ. eigenvalues --   -0.38213  -0.37808  -0.36342  -0.35085  -0.33736
  Beta  occ. eigenvalues --   -0.33048  -0.32300  -0.31253  -0.30930  -0.30379
  Beta  occ. eigenvalues --   -0.28805  -0.28571  -0.28365  -0.27848  -0.27140
  Beta  occ. eigenvalues --   -0.25927  -0.25267  -0.24929  -0.23228  -0.21642
  Beta  occ. eigenvalues --   -0.17496  -0.14125  -0.12327  -0.10799  -0.09643
  Beta virt. eigenvalues --    0.06879   0.07289   0.08019   0.08438   0.09037
  Beta virt. eigenvalues --    0.09363   0.09546   0.09959   0.10406   0.10963
  Beta virt. eigenvalues --    0.11794   0.12004   0.12740   0.12970   0.13150

 Mulliken charges and spin densities:
               1          2
     1  C   -0.126374  -0.354883
     2  C    0.771434  -0.013938
     3  C   -0.258141   0.027945
     4  C    1.482605  -0.295353
     5  C   -1.754774   0.201543
     6  N   -0.049362   0.100598
     7  C   -0.507897  -0.018123
     8  N    0.227243   0.061078
     9  C    0.313929  -0.111251
    10  C   -0.681460  -0.040607
    11  C    0.253467  -0.530564
    12  C   -0.679907   0.298341
    13  C    0.124357  -0.662085
    14  N   -0.100128   0.129002
    15  C    0.428669  -0.760963
    16  H    0.096431   0.032392
    17  H    0.139047  -0.009880
    18  H    0.101183   0.041896
    19  H    0.062109   0.046016
    20  H    0.112784   0.012084
    21  H   -0.482149   0.631769
    22  H    0.011333   0.109181
    23  H   -0.322036   0.483216
    24  H    0.160441   0.063108
    25  H    0.215411  -0.012419
    26  H   -0.156669   0.318926
    27  H    0.067759   0.048356
    28  H    0.155621   0.004411
    29  H   -0.106051   0.325111
    30  H   -0.209517   0.323895
    31  H   -0.303812   0.434741
    32  H    0.014456   0.116458
 Sum of Mulliken charges =  -1.00000   1.00000

 Dipole moment (field-independent basis, Debye):
    X=              6.4452    Y=             -1.5067    Z=              1.7189  Tot=              6.8385
 Quadrupole moment (field-independent basis, Debye-Ang):
   XX=           -167.1659   YY=           -125.7127   ZZ=           -115.4546
   XY=              0.5156   XZ=             -0.5484   YZ=              2.2165

 Summary of Natural Population Analysis:

                                       Natural Population
                Natural  -----------------------------------------------
    Atom  No    Charge         Core      Valence    Rydberg      Total
 -----------------------------------------------------------------------
      C    1   -0.28751      0.99964     2.28278    0.00508     3.28751
      C    2   -0.06313      0.99953     2.05611    0.00749     3.06313
      C    3   -0.04602      0.99949     2.03860    0.00793     3.04602
      C    4   -0.05459      0.99950     2.04692    0.00817     3.05459
      C    5    0.18976      0.99948     1.79636    0.01440     2.81024
      N    6   -0.22192      0.99967     2.71271    0.00953     3.72192
      C    7    0.03551      0.99955     1.95021    0.01473     2.96449
      N    8   -0.21847      0.99962     2.70840    0.01046     3.71847
      C    9    0.03439      0.99956     1.95422    0.01182     2.96561
      C   10   -0.15647      0.99954     2.14741    0.00951     3.15647
      C   11   -0.07999      0.99959     2.06640    0.01400     3.07999
      C   12   -0.02052      0.99960     2.00909    0.01183     3.02052
      C   13   -0.29812      0.99964     2.29301    0.00547     3.29812
      N   14   -0.33967      0.99974     2.82682    0.01310     3.83967
      C   15   -0.17752      0.99966     2.16899    0.00888     3.17752
      H   16    0.09814      0.00000     0.40077    0.00109     0.40186
      H   17    0.09701      0.00000     0.40187    0.00112     0.40299
      H   18    0.09711      0.00000     0.40148    0.00141     0.40289
      H   19    0.08984      0.00000     0.40859    0.00156     0.41016
      H   20    0.08076      0.00000     0.41810    0.00114     0.41924
      H   21    0.09801      0.00000     0.40074    0.00125     0.40199
      H   22    0.10113      0.00000     0.39810    0.00078     0.39887
      H   23    0.09826      0.00000     0.40014    0.00160     0.40174
      H   24    0.10826      0.00000     0.39010    0.00164     0.39174
      H   25    0.10073      0.00000     0.39652    0.00275     0.39927
      H   26    0.09608      0.00000     0.40241    0.00151     0.40392
      H   27    0.09868      0.00000     0.40052    0.00080     0.40132
      H   28    0.10617      0.00000     0.39286    0.00097     0.39383
      H   29    0.17140      0.00000     0.32387    0.00473     0.32860
      H   30    0.07796      0.00000     0.42048    0.00157     0.42204
      H   31    0.09456      0.00000     0.40438    0.00106     0.40544
      H   32    0.09017      0.00000     0.40865    0.00118     0.40983
 =======================================================================
   * Total *   -0.00000     14.99380    39.82763    0.17857    55.00000

 Normal termination of Gaussian 16 at Thu Dec 10 15:33:40 2020.
