 Gaussian 16, Revision A.03,

 -----------------------------------------------------------
 # opt freq B3LYP/6-31G(d) empiricaldispersion=gd3bj scf=xqc
 -----------------------------------------------------------

 ------------------------------
 CID_79332986_JID_8663_neutraal
 ------------------------------
 Symbolic Z-matrix:
 Charge =  0 Multiplicity = 1

 SCF Done:  E(RB3LYP) =  -1149.53210998     A.U. after   14 cycles
 SCF Done:  E(RB3LYP) =  -1149.53749475     A.U. after   13 cycles
 SCF Done:  E(RB3LYP) =  -1149.53737569     A.U. after   13 cycles
 SCF Done:  E(RB3LYP) =  -1149.53762957     A.U. after   12 cycles
 SCF Done:  E(RB3LYP) =  -1149.53780435     A.U. after   14 cycles
 SCF Done:  E(RB3LYP) =  -1149.53959820     A.U. after   12 cycles
 SCF Done:  E(RB3LYP) =  -1149.53989650     A.U. after   12 cycles
 SCF Done:  E(RB3LYP) =  -1149.53991920     A.U. after   11 cycles
 SCF Done:  E(RB3LYP) =  -1149.54003851     A.U. after   11 cycles
 SCF Done:  E(RB3LYP) =  -1149.54007849     A.U. after   11 cycles
 SCF Done:  E(RB3LYP) =  -1149.54008688     A.U. after   10 cycles
 SCF Done:  E(RB3LYP) =  -1149.54008882     A.U. after    8 cycles
 SCF Done:  E(RB3LYP) =  -1149.54008927     A.U. after    7 cycles
 SCF Done:  E(RB3LYP) =  -1149.54008938     A.U. after    7 cycles
 SCF Done:  E(RB3LYP) =  -1149.54008940     A.U. after    6 cycles
 Optimization completed.
    -- Stationary point found.
 Normal termination of Gaussian 16 at Fri Dec 11 21:27:15 2020.

 --------------------------------------------------------------------
 #N Geom=AllCheck Guess=TCheck SCRF=Check GenChk RB3LYP/6-31G(d) Freq
 --------------------------------------------------------------------

 Structure from the checkpoint file:  "JID_8663.chk"
 ------------------------------
 CID_79332986_JID_8663_neutraal
 ------------------------------
 Charge =  0 Multiplicity = 1

 SCF Done:  E(RB3LYP) =  -1149.54008940     A.U. after    1 cycles

  Exact polarizability: 205.584  18.226 157.301   8.942  -3.914 150.067
 Approx polarizability: 261.018  38.713 243.233  17.877 -12.148 259.129

                      1                      2                      3
                      A                      A                      A
 Frequencies --     17.2153                28.0025                35.0108
 Red. masses --      3.9395                 4.2446                 4.3739
 Frc consts  --      0.0007                 0.0020                 0.0032
 IR Inten    --      0.7200                 0.0351                 0.4523

                      4                      5                      6
                      A                      A                      A
 Frequencies --     56.5010                70.7358                87.7238
 Red. masses --      4.5626                 5.1370                 3.7747
 Frc consts  --      0.0086                 0.0151                 0.0171
 IR Inten    --      0.6439                 0.7962                 1.0804

                      7                      8                      9
                      A                      A                      A
 Frequencies --    101.6773               123.4443               156.3305
 Red. masses --      4.9931                 3.2651                 3.7245
 Frc consts  --      0.0304                 0.0293                 0.0536
 IR Inten    --      5.1981                 2.0677                 6.8713

                     10                     11                     12
                      A                      A                      A
 Frequencies --    195.6994               200.9270               221.2885
 Red. masses --      4.9491                 4.6110                 3.0460
 Frc consts  --      0.1117                 0.1097                 0.0879
 IR Inten    --      0.4709                 1.2744                 1.9794

                     13                     14                     15
                      A                      A                      A
 Frequencies --    254.5449               282.1237               298.5963
 Red. masses --      1.0472                 1.0713                 3.2820
 Frc consts  --      0.0400                 0.0502                 0.1724
 IR Inten    --      0.0222                 0.9200                 1.4903

                     16                     17                     18
                      A                      A                      A
 Frequencies --    317.7842               324.3220               335.9541
 Red. masses --      2.3457                 2.7174                 1.9607
 Frc consts  --      0.1396                 0.1684                 0.1304
 IR Inten    --      5.3915                 7.7256                19.7893

                     19                     20                     21
                      A                      A                      A
 Frequencies --    337.7452               373.4989               397.0104
 Red. masses --      1.8836                 2.3770                 3.0543
 Frc consts  --      0.1266                 0.1954                 0.2836
 IR Inten    --     29.3969                 1.4582                 1.2238

                     22                     23                     24
                      A                      A                      A
 Frequencies --    426.6508               433.5628               466.5924
 Red. masses --      3.0808                 3.2395                 3.9686
 Frc consts  --      0.3304                 0.3588                 0.5091
 IR Inten    --      0.0770                 1.1152                12.6130

                     25                     26                     27
                      A                      A                      A
 Frequencies --    483.8507               518.6809               587.7524
 Red. masses --      3.6615                 3.0036                 3.9345
 Frc consts  --      0.5051                 0.4761                 0.8008
 IR Inten    --      9.7920                 3.7911                 3.4918

                     28                     29                     30
                      A                      A                      A
 Frequencies --    604.3983               628.4379               658.8065
 Red. masses --      2.3510                 4.0968                 6.8936
 Frc consts  --      0.5060                 0.9533                 1.7628
 IR Inten    --     13.5936                 6.1516                 0.6608

                     31                     32                     33
                      A                      A                      A
 Frequencies --    668.0539               745.4922               763.3490
 Red. masses --      4.3751                 3.0983                 4.0412
 Frc consts  --      1.1504                 1.0145                 1.3874
 IR Inten    --      3.0146                 1.1504                 3.1498

                     34                     35                     36
                      A                      A                      A
 Frequencies --    806.2185               837.2050               843.9473
 Red. masses --      3.2114                 4.4284                 1.2713
 Frc consts  --      1.2298                 1.8288                 0.5335
 IR Inten    --      4.9616                11.0123                 0.4301

                     37                     38                     39
                      A                      A                      A
 Frequencies --    860.4620               862.0183               868.2397
 Red. masses --      3.1085                 1.9418                 1.4657
 Frc consts  --      1.3560                 0.8501                 0.6510
 IR Inten    --     16.5012                26.2365                 1.1864

                     40                     41                     42
                      A                      A                      A
 Frequencies --    902.5732               911.9346               936.8749
 Red. masses --      2.2423                 1.7907                 1.3616
 Frc consts  --      1.0762                 0.8774                 0.7042
 IR Inten    --    141.5995                17.3451                 0.1705

                     43                     44                     45
                      A                      A                      A
 Frequencies --    942.7077               950.2041               955.2876
 Red. masses --      3.0758                 1.2582                 1.6782
 Frc consts  --      1.6105                 0.6693                 0.9023
 IR Inten    --     16.7370                 0.4598                27.5675

                     46                     47                     48
                      A                      A                      A
 Frequencies --    962.3907               973.5066              1002.8283
 Red. masses --      1.3597                 2.0507                 2.1604
 Frc consts  --      0.7420                 1.1451                 1.2801
 IR Inten    --      2.8990                43.7936                80.7305

                     49                     50                     51
                      A                      A                      A
 Frequencies --   1028.6896              1039.0533              1040.7520
 Red. masses --      9.6877                 2.1806                 2.6016
 Frc consts  --      6.0400                 1.3871                 1.6603
 IR Inten    --     82.6574                 6.7352                10.4093

                     52                     53                     54
                      A                      A                      A
 Frequencies --   1052.5418              1091.0470              1108.2450
 Red. masses --      2.3475                 2.1518                 2.0010
 Frc consts  --      1.5323                 1.5092                 1.4480
 IR Inten    --     10.5316                 3.0983                 3.0763

                     55                     56                     57
                      A                      A                      A
 Frequencies --   1136.5932              1158.0680              1158.2853
 Red. masses --      1.3327                 1.5169                 1.3149
 Frc consts  --      1.0144                 1.1986                 1.0394
 IR Inten    --      5.8612                 6.4893                 2.7301

                     58                     59                     60
                      A                      A                      A
 Frequencies --   1169.1224              1176.3717              1190.8642
 Red. masses --      1.9035                 1.2098                 1.3609
 Frc consts  --      1.5330                 0.9864                 1.1371
 IR Inten    --     99.9880                 1.4375                 3.3267

                     61                     62                     63
                      A                      A                      A
 Frequencies --   1204.0100              1210.7486              1214.0017
 Red. masses --      1.2480                 1.5773                 1.9172
 Frc consts  --      1.0659                 1.3623                 1.6648
 IR Inten    --     59.5421                 1.4116                 5.4954

                     64                     65                     66
                      A                      A                      A
 Frequencies --   1230.4320              1252.1425              1258.1836
 Red. masses --      1.4240                 1.3337                 3.1249
 Frc consts  --      1.2702                 1.2321                 2.9146
 IR Inten    --      3.6612                 2.6711               217.9407

                     67                     68                     69
                      A                      A                      A
 Frequencies --   1295.5305              1306.8723              1311.0968
 Red. masses --      1.5634                 1.2809                 1.2722
 Frc consts  --      1.5460                 1.2890                 1.2884
 IR Inten    --     27.9119                 9.3240                 1.5908

                     70                     71                     72
                      A                      A                      A
 Frequencies --   1334.1447              1353.1435              1360.3795
 Red. masses --      1.6550                 2.0053                 1.7298
 Frc consts  --      1.7356                 2.1633                 1.8861
 IR Inten    --      0.4795                18.2424                11.2529

                     73                     74                     75
                      A                      A                      A
 Frequencies --   1381.2342              1382.8218              1413.1438
 Red. masses --      1.3231                 1.4370                 1.2548
 Frc consts  --      1.4872                 1.6190                 1.4764
 IR Inten    --      2.7419                 3.8489                 2.0944

                     76                     77                     78
                      A                      A                      A
 Frequencies --   1428.4756              1440.5010              1442.4512
 Red. masses --      1.3349                 1.5899                 1.2657
 Frc consts  --      1.6048                 1.9438                 1.5516
 IR Inten    --     16.1035                15.5458                17.4527

                     79                     80                     81
                      A                      A                      A
 Frequencies --   1461.8087              1497.1673              1513.5532
 Red. masses --      2.3527                 1.0873                 1.0482
 Frc consts  --      2.9621                 1.4359                 1.4148
 IR Inten    --      9.0085                 2.8363                 0.7676

                     82                     83                     84
                      A                      A                      A
 Frequencies --   1519.9066              1525.4230              1535.6501
 Red. masses --      1.0501                 1.0530                 1.0811
 Frc consts  --      1.4292                 1.4436                 1.5021
 IR Inten    --      1.7125                 8.8816                 1.6502

                     85                     86                     87
                      A                      A                      A
 Frequencies --   1540.5835              1560.4472              1563.2232
 Red. masses --      1.0611                 1.2388                 2.0124
 Frc consts  --      1.4838                 1.7772                 2.8974
 IR Inten    --      2.4101                12.8306                81.1751

                     88                     89                     90
                      A                      A                      A
 Frequencies --   1632.6061              1670.9747              1700.2366
 Red. masses --      6.6374                 5.8020                 1.0883
 Frc consts  --     10.4234                 9.5448                 1.8536
 IR Inten    --      5.7718                21.0069                29.9510

                     91                     92                     93
                      A                      A                      A
 Frequencies --   3025.3033              3030.4286              3037.5077
 Red. masses --      1.0632                 1.0834                 1.0730
 Frc consts  --      5.7333                 5.8622                 5.8328
 IR Inten    --     80.5178                19.8632                62.6221

                     94                     95                     96
                      A                      A                      A
 Frequencies --   3054.2102              3059.2749              3069.4154
 Red. masses --      1.0349                 1.0354                 1.0628
 Frc consts  --      5.6880                 5.7097                 5.8992
 IR Inten    --     15.1852                 8.5909                33.3823

                     97                     98                     99
                      A                      A                      A
 Frequencies --   3078.2771              3094.2841              3117.5972
 Red. masses --      1.0870                 1.1022                 1.0878
 Frc consts  --      6.0685                 6.2176                 6.2295
 IR Inten    --     26.2288                25.3824                20.0976

                    100                    101                    102
                      A                      A                      A
 Frequencies --   3122.1508              3128.8972              3134.0381
 Red. masses --      1.1019                 1.1018                 1.1037
 Frc consts  --      6.3286                 6.3550                 6.3874
 IR Inten    --      1.2492                68.7948                15.0708

                    103                    104                    105
                      A                      A                      A
 Frequencies --   3134.2936              3138.0209              3178.0946
 Red. masses --      1.1040                 1.1024                 1.0889
 Frc consts  --      6.3898                 6.3958                 6.4799
 IR Inten    --      7.2994                46.6223                13.5609

                    106                    107                    108
                      A                      A                      A
 Frequencies --   3185.4326              3211.7378              3221.3840
 Red. masses --      1.0933                 1.0883                 1.0927
 Frc consts  --      6.5360                 6.6142                 6.6812
 IR Inten    --      1.4659                 9.1166                 9.9458

                    109                    110                    111
                      A                      A                      A
 Frequencies --   3230.2570              3457.1992              3543.3371
 Red. masses --      1.0931                 1.0498                 1.0915
 Frc consts  --      6.7202                 7.3931                 8.0745
 IR Inten    --      6.1810                 0.6571                 1.1994

 - Thermochemistry -
 -------------------
 Temperature   298.150 Kelvin.  Pressure   1.00000 Atm.
 Atom     1 has atomic number  6 and mass  12.00000

 Molecular mass:   267.12930 amu.
 Principal axes and moments of inertia in atomic units:
                           1         2         3
     Eigenvalues --  2701.353178508.725589748.69510
           X            0.99999  -0.00375   0.00266
           Y            0.00375   0.99999   0.00032
           Z           -0.00266  -0.00031   1.00000
 This molecule is an asymmetric top.
 Rotational symmetry number  1.
 Warning -- assumption of classical behavior for rotation
           may cause significant error
 Rotational temperatures (Kelvin)      0.03206     0.01018     0.00888
 Rotational constants (GHZ):           0.66809     0.21210     0.18513
 Zero-point vibrational energy     879015.0 (Joules/Mol)
                                  210.08962 (Kcal/Mol)
 Warning -- explicit consideration of  28 degrees of freedom as
           vibrations may cause significant error
 Vibrational temperatures:     24.77    40.29    50.37    81.29   101.77
          (Kelvin)            126.21   146.29   177.61   224.92   281.57
                              289.09   318.38   366.23   405.91   429.61
                              457.22   466.63   483.36   485.94   537.38
                              571.21   613.86   623.80   671.32   696.15
                              746.27   845.64   869.59   904.18   947.88
                              961.18  1072.60  1098.29  1159.97  1204.55
                             1214.25  1238.01  1240.25  1249.20  1298.60
                             1312.07  1347.95  1356.35  1367.13  1374.45
                             1384.67  1400.66  1442.85  1480.05  1494.97
                             1497.41  1514.37  1569.77  1594.52  1635.30
                             1666.20  1666.51  1682.11  1692.54  1713.39
                             1732.30  1742.00  1746.68  1770.32  1801.55
                             1810.25  1863.98  1880.30  1886.38  1919.54
                             1946.87  1957.28  1987.29  1989.57  2033.20
                             2055.26  2072.56  2075.37  2103.22  2154.09
                             2177.67  2186.81  2194.74  2209.46  2216.56
                             2245.14  2249.13  2348.96  2404.16  2446.26
                             4352.74  4360.11  4370.30  4394.33  4401.61
                             4416.20  4428.95  4451.98  4485.53  4492.08
                             4501.79  4509.18  4509.55  4514.91  4572.57
                             4583.13  4620.97  4634.85  4647.62  4974.14
                             5098.07

 Zero-point correction=                           0.334799 (Hartree/Particle)
 Thermal correction to Energy=                    0.353408
 Thermal correction to Enthalpy=                  0.354352
 Thermal correction to Gibbs Free Energy=         0.285932
 Sum of electronic and zero-point Energies=          -1149.205290
 Sum of electronic and thermal Energies=             -1149.186681
 Sum of electronic and thermal Enthalpies=           -1149.185737
 Sum of electronic and thermal Free Energies=        -1149.254158

                     E (Thermal)             CV                S
                      KCal/Mol        Cal/Mol-Kelvin    Cal/Mol-Kelvin
 Total                  221.767             70.614            144.003
 Electronic               0.000              0.000              0.000
 Translational            0.889              2.981             42.647
 Rotational               0.889              2.981             33.771
 Vibrational            219.989             64.652             67.585
 Vibration     1          0.593              1.986              6.932
 Vibration     2          0.593              1.984              5.966
 Vibration     3          0.594              1.982              5.523
 Vibration     4          0.596              1.975              4.576
 Vibration     5          0.598              1.968              4.133
 Vibration     6          0.601              1.958              3.710
 Vibration     7          0.604              1.948              3.422
 Vibration     8          0.610              1.929              3.046
 Vibration     9          0.620              1.896              2.594
 Vibration    10          0.636              1.846              2.173
 Vibration    11          0.638              1.839              2.125
 Vibration    12          0.648              1.809              1.949
 Vibration    13          0.665              1.755              1.699
 Vibration    14          0.681              1.707              1.521
 Vibration    15          0.692              1.676              1.425
 Vibration    16          0.704              1.640              1.321
 Vibration    17          0.709              1.627              1.288
 Vibration    18          0.717              1.604              1.231
 Vibration    19          0.718              1.600              1.223
 Vibration    20          0.745              1.527              1.065
 Vibration    21          0.764              1.477              0.974
 Vibration    22          0.788              1.412              0.870
 Vibration    23          0.794              1.397              0.847
 Vibration    24          0.824              1.324              0.747
 Vibration    25          0.840              1.286              0.700
 Vibration    26          0.874              1.209              0.613
 Vibration    27          0.945              1.058              0.471
 Vibration    28          0.963              1.022              0.442

 Optimization completed.
    -- Stationary point found.
 Normal termination of Gaussian 16 at Fri Dec 11 21:44:50 2020.

 ----------------------------------------------------------------------
 # B3LYP/6-311++G(d,p) empiricaldispersion=gd3bj scf=xqc pop=npa geom=c
 heck
 ----------------------------------------------------------------------

 --------------------------------------
 CID_79332986_JID_8663_Energie_neutraal
 --------------------------------------
 Structure from the checkpoint file:  "JID_8663.chk"
 Charge =  0 Multiplicity = 1

 SCF Done:  E(RB3LYP) =  -1149.78068646     A.U. after   15 cycles
 Normal termination of Gaussian 16 at Fri Dec 11 21:52:02 2020.

 ----------------------------------------------------------------------
 # B3LYP/6-311++G(d,p) empiricaldispersion=gd3bj scf=xqc pop=npa geom=c
 heck
 ----------------------------------------------------------------------

 ------------------------------------
 CID_79332986_JID_8663_Energie_kation
 ------------------------------------
 Structure from the checkpoint file:  "JID_8663.chk"
 Charge =  1 Multiplicity = 2

 SCF Done:  E(UB3LYP) =  -1149.48920559     A.U. after   29 cycles
 Normal termination of Gaussian 16 at Fri Dec 11 22:10:35 2020.
 Gaussian 16:  ES64L-G16RevA.03 25-Dec-2016

 ----------------------------------------------------------------------
 # B3LYP/6-311++G(d,p) empiricaldispersion=gd3bj scf=xqc pop=npa geom=c
 heck
 ----------------------------------------------------------------------

 -----------------------------------
 CID_79332986_JID_8663_Energie_anion
 -----------------------------------
 Structure from the checkpoint file:  "JID_8663.chk"
 Charge = -1 Multiplicity = 2

                         Standard orientation:
 ---------------------------------------------------------------------
 Center     Atomic      Atomic             Coordinates (Angstroms)
 Number     Number       Type             X           Y           Z
 ---------------------------------------------------------------------
      1          6           0       -4.734477   -0.508017    1.223662
      2          6           0       -4.487419   -0.623292   -0.278662
      3          6           0       -4.798911    0.675043   -1.019241
      4          8           0       -3.155365   -1.112242   -0.575046
      5          6           0       -2.083491   -0.333574   -0.196795
      6          6           0       -1.539119    0.595551   -1.086625
      7          6           0       -0.412874    1.336971   -0.727907
      8          6           0        0.199562    1.155002    0.514436
      9          6           0       -0.355048    0.219560    1.397352
     10          6           0       -1.481302   -0.522046    1.051979
     11          6           0        1.475895    1.875689    0.906813
     12          6           0        2.690103    0.906324    0.894976
     13         16           0        3.283274    0.517157   -0.809659
     14          6           0        3.037782   -1.288438   -0.928893
     15          6           0        3.521150   -2.148292    0.256897
     16          8           0        2.160622   -2.426627    0.655193
     17          6           0        1.653816   -1.879175   -0.589960
     18          7           0        1.680391    3.093355    0.120687
     19          1           0       -4.119031    0.281439    1.667187
     20          1           0       -4.504490   -1.452453    1.726701
     21          1           0       -5.785943   -0.263860    1.411407
     22          1           0       -5.118403   -1.422084   -0.681594
     23          1           0       -4.184326    1.501191   -0.647207
     24          1           0       -4.615646    0.561426   -2.092283
     25          1           0       -5.851338    0.943614   -0.875325
     26          1           0       -1.999640    0.723906   -2.060477
     27          1           0       -0.015462    2.067657   -1.422631
     28          1           0        0.112760    0.052315    2.364793
     29          1           0       -1.892686   -1.259675    1.732362
     30          1           0        1.363367    2.194810    1.952220
     31          1           0        3.527799    1.373886    1.422981
     32          1           0        2.448275   -0.031337    1.402556
     33          1           0        3.443002   -1.551817   -1.908741
     34          1           0        4.055551   -3.059981   -0.046399
     35          1           0        4.089904   -1.639833    1.042848
     36          1           0        0.831605   -1.182447   -0.432259
     37          1           0        1.340881   -2.674189   -1.281064
     38          1           0        2.462124    3.617307    0.511140
     39          1           0        1.960519    2.835256   -0.825851
 ---------------------------------------------------------------------

 SCF Done:  E(UB3LYP) =  -1149.76896394     A.U. after   33 cycles
 SCF Done:  E(UB3LYP) =  -1149.76896394     a.u. after    1 cycles

 The electronic state is 2-A.
 Alpha  occ. eigenvalues --  -88.75344 -19.04463 -19.03688 -14.20613 -10.14424
 Alpha  occ. eigenvalues --  -10.13767 -10.13691 -10.13183 -10.12551 -10.12086
 Alpha  occ. eigenvalues --  -10.10705 -10.08940 -10.08628 -10.08591 -10.08504
 Alpha  occ. eigenvalues --  -10.08487 -10.07674 -10.07642  -7.83958  -5.80357
 Alpha  occ. eigenvalues --   -5.79972  -5.79336  -0.96202  -0.96060  -0.81187
 Alpha  occ. eigenvalues --   -0.76490  -0.71586  -0.70334  -0.66999  -0.66122
 Alpha  occ. eigenvalues --   -0.64160  -0.61076  -0.60938  -0.58432  -0.54297
 Alpha  occ. eigenvalues --   -0.52601  -0.50895  -0.48115  -0.46048  -0.42899
 Alpha  occ. eigenvalues --   -0.42213  -0.41363  -0.40387  -0.39891  -0.39114
 Alpha  occ. eigenvalues --   -0.37267  -0.36646  -0.35694  -0.34984  -0.34051
 Alpha  occ. eigenvalues --   -0.33881  -0.33335  -0.32447  -0.32040  -0.31483
 Alpha  occ. eigenvalues --   -0.30588  -0.29747  -0.28127  -0.27662  -0.27532
 Alpha  occ. eigenvalues --   -0.26193  -0.25868  -0.25712  -0.25123  -0.23557
 Alpha  occ. eigenvalues --   -0.21507  -0.18790  -0.17217  -0.17117  -0.16251
 Alpha  occ. eigenvalues --   -0.14907  -0.14002   0.03836
 Alpha virt. eigenvalues --    0.05045   0.05714   0.06840   0.07054   0.07488
 Alpha virt. eigenvalues --    0.07633   0.07834   0.08393   0.08770   0.08826
 Alpha virt. eigenvalues --    0.09574   0.10073   0.10086   0.10943   0.11383

  Beta  occ. eigenvalues --  -88.75343 -19.04461 -19.03687 -14.20591 -10.14413
  Beta  occ. eigenvalues --  -10.13744 -10.13669 -10.13177 -10.12544 -10.12074
  Beta  occ. eigenvalues --  -10.10677 -10.08928 -10.08613 -10.08585 -10.08505
  Beta  occ. eigenvalues --  -10.08483 -10.07651 -10.07620  -7.83956  -5.80355
  Beta  occ. eigenvalues --   -5.79969  -5.79335  -0.96197  -0.96048  -0.81142
  Beta  occ. eigenvalues --   -0.76463  -0.71559  -0.70304  -0.66962  -0.66099
  Beta  occ. eigenvalues --   -0.64124  -0.61043  -0.60895  -0.58400  -0.54258
  Beta  occ. eigenvalues --   -0.52576  -0.50853  -0.48084  -0.46005  -0.42863
  Beta  occ. eigenvalues --   -0.42182  -0.41334  -0.40361  -0.39847  -0.39088
  Beta  occ. eigenvalues --   -0.37236  -0.36628  -0.35665  -0.34944  -0.34022
  Beta  occ. eigenvalues --   -0.33857  -0.33316  -0.32413  -0.32008  -0.31450
  Beta  occ. eigenvalues --   -0.30560  -0.29703  -0.28104  -0.27633  -0.27502
  Beta  occ. eigenvalues --   -0.26168  -0.25847  -0.25687  -0.25089  -0.23529
  Beta  occ. eigenvalues --   -0.21485  -0.18782  -0.17203  -0.17080  -0.16222
  Beta  occ. eigenvalues --   -0.14836  -0.13983
  Beta virt. eigenvalues --    0.05755   0.06094   0.06528   0.07129   0.07226
  Beta virt. eigenvalues --    0.07599   0.07968   0.08162   0.08636   0.09033
  Beta virt. eigenvalues --    0.09182   0.09977   0.10273   0.10364   0.11078

 Mulliken charges and spin densities:
               1          2
     1  C    0.407402  -0.997713
     2  C   -0.913649   1.055559
     3  C    0.451726  -1.040802
     4  O   -0.078212   0.004338
     5  C    0.262326  -0.953169
     6  C   -0.337996   0.210909
     7  C   -0.381870   0.192487
     8  C    1.026980  -0.699678
     9  C   -0.217885  -0.016789
    10  C   -0.019656   0.090202
    11  C    0.146346  -0.462025
    12  C    0.251652  -0.418247
    13  S    0.075661  -0.169314
    14  C   -0.592224   0.478762
    15  C    0.124311  -0.607215
    16  O   -0.178394   0.004198
    17  C    0.367032  -0.462838
    18  N   -0.347382  -0.013784
    19  H    0.065863   0.099421
    20  H    0.100696   0.047587
    21  H   -0.346230   0.487447
    22  H   -0.218947   0.417406
    23  H    0.063731   0.093546
    24  H    0.089999   0.057166
    25  H   -0.311743   0.452306
    26  H    0.079760   0.105052
    27  H    0.017386   0.121125
    28  H   -0.159553   0.345021
    29  H    0.102208   0.087412
    30  H   -0.208885   0.429243
    31  H   -0.601802   0.898850
    32  H    0.337046  -0.185928
    33  H   -0.097406   0.388487
    34  H   -0.300722   0.439361
    35  H   -0.121560   0.295582
    36  H    0.262886  -0.227074
    37  H    0.031317   0.143825
    38  H   -0.050416   0.316164
    39  H    0.220204  -0.006879
 Sum of Mulliken charges =  -1.00000   1.00000

 Dipole moment (field-independent basis, Debye):
    X=              0.1538    Y=             -1.3574    Z=             -2.7348  Tot=              3.0570
 Quadrupole moment (field-independent basis, Debye-Ang):
   XX=           -229.8354   YY=           -169.5764   ZZ=           -150.4676
   XY=             -1.0146   XZ=             -6.0109   YZ=             -6.6170

 Summary of Natural Population Analysis:

                                       Natural Population
                Natural  -----------------------------------------------
    Atom  No    Charge         Core      Valence    Rydberg      Total
 -----------------------------------------------------------------------
      C    1   -0.30251      0.99964     2.29718    0.00568     3.30251
      C    2    0.06813      0.99955     1.91885    0.01347     2.93187
      C    3   -0.30259      0.99964     2.29711    0.00583     3.30259
      O    4   -0.29856      0.99986     3.28930    0.00940     4.29856
      C    5    0.14911      0.99936     1.83703    0.01450     2.85089
      C    6   -0.11900      0.99951     2.11134    0.00815     3.11900
      C    7   -0.09460      0.99950     2.08625    0.00884     3.09460
      C    8   -0.02200      0.99948     2.01049    0.01202     3.02200
      C    9   -0.09486      0.99951     2.08583    0.00952     3.09486
      C   10   -0.11917      0.99951     2.11070    0.00897     3.11917
      C   11   -0.02505      0.99954     2.00996    0.01555     3.02505
      C   12   -0.25747      0.99956     2.24575    0.01217     3.25747
      S   13    0.08733      4.99959     2.89637    0.01671     7.91267
      C   14   -0.19312      0.99956     2.18057    0.01298     3.19312
      C   15   -0.00902      0.99961     1.99677    0.01265     3.00902
      O   16   -0.30339      0.99991     3.29598    0.00750     4.30339
      C   17   -0.01054      0.99959     1.99905    0.01191     3.01054
      N   18   -0.41974      0.99977     2.90982    0.01016     3.91974
      H   19    0.10299      0.00000     0.39595    0.00106     0.39701
      H   20    0.10198      0.00000     0.39705    0.00097     0.39802
      H   21    0.10452      0.00000     0.39438    0.00110     0.39548
      H   22    0.08857      0.00000     0.41008    0.00135     0.41143
      H   23    0.10313      0.00000     0.39584    0.00103     0.39687
      H   24    0.10145      0.00000     0.39758    0.00097     0.39855
      H   25    0.10464      0.00000     0.39423    0.00113     0.39536
      H   26    0.10433      0.00000     0.39438    0.00129     0.39567
      H   27    0.10578      0.00000     0.39304    0.00119     0.39422
      H   28    0.10337      0.00000     0.39545    0.00118     0.39663
      H   29    0.10618      0.00000     0.39242    0.00140     0.39382
      H   30    0.10223      0.00000     0.39534    0.00243     0.39777
      H   31    0.10737      0.00000     0.38936    0.00328     0.39263
      H   32    0.11127      0.00000     0.38547    0.00326     0.38873
      H   33    0.10896      0.00000     0.38990    0.00114     0.39104
      H   34    0.08536      0.00000     0.41285    0.00179     0.41464
      H   35    0.08902      0.00000     0.40942    0.00157     0.41098
      H   36    0.09971      0.00000     0.39782    0.00246     0.40029
      H   37    0.08304      0.00000     0.41571    0.00125     0.41696
      H   38    0.17852      0.00000     0.31964    0.00184     0.32148
      H   39    0.17464      0.00000     0.32318    0.00218     0.32536
 =======================================================================
   * Total *   -0.00000     21.99271    49.77741    0.22988    72.00000

 Normal termination of Gaussian 16 at Fri Dec 11 22:31:50 2020.
