 Gaussian 16, Revision A.03,

 -----------------------------------------------------------
 # opt freq B3LYP/6-31G(d) empiricaldispersion=gd3bj scf=xqc
 -----------------------------------------------------------

 -------------------------------
 CID_133552443_JID_7415_neutraal
 -------------------------------
 Symbolic Z-matrix:
 Charge =  0 Multiplicity = 1

 SCF Done:  E(RB3LYP) =  -740.151067173     A.U. after   14 cycles
 SCF Done:  E(RB3LYP) =  -740.156609287     A.U. after   12 cycles
 SCF Done:  E(RB3LYP) =  -740.157071204     A.U. after   12 cycles
 SCF Done:  E(RB3LYP) =  -740.157252956     A.U. after   11 cycles
 SCF Done:  E(RB3LYP) =  -740.157325798     A.U. after   11 cycles
 SCF Done:  E(RB3LYP) =  -740.157354966     A.U. after   11 cycles
 SCF Done:  E(RB3LYP) =  -740.157360240     A.U. after    9 cycles
 SCF Done:  E(RB3LYP) =  -740.157361747     A.U. after    8 cycles
 SCF Done:  E(RB3LYP) =  -740.157361911     A.U. after    7 cycles
 Optimization completed.
    -- Stationary point found.
 Normal termination of Gaussian 16 at Mon Dec 14 13:13:45 2020.

 --------------------------------------------------------------------
 #N Geom=AllCheck Guess=TCheck SCRF=Check GenChk RB3LYP/6-31G(d) Freq
 --------------------------------------------------------------------

 Structure from the checkpoint file:  "JID_7415.chk"
 -------------------------------
 CID_133552443_JID_7415_neutraal
 -------------------------------
 Charge =  0 Multiplicity = 1

 SCF Done:  E(RB3LYP) =  -740.157361911     A.U. after    1 cycles

  Exact polarizability: 221.880  -6.742 169.911   2.699   4.109  84.086
 Approx polarizability: 313.238 -10.476 290.071   5.902  12.503 128.231

                      1                      2                      3
                      A                      A                      A
 Frequencies --     24.4918                34.1116                71.1501
 Red. masses --      2.9826                 5.1512                 4.4061
 Frc consts  --      0.0011                 0.0035                 0.0131
 IR Inten    --      0.0985                 0.0177                 0.1364

                      4                      5                      6
                      A                      A                      A
 Frequencies --     92.5036               131.6923               188.9676
 Red. masses --      4.7861                 4.1824                 3.6420
 Frc consts  --      0.0241                 0.0427                 0.0766
 IR Inten    --      0.1180                 0.2125                 2.7293

                      7                      8                      9
                      A                      A                      A
 Frequencies --    193.2331               221.5784               235.6895
 Red. masses --      4.1713                 1.0961                 3.9537
 Frc consts  --      0.0918                 0.0317                 0.1294
 IR Inten    --      5.6065                 0.4644                 0.8725

                     10                     11                     12
                      A                      A                      A
 Frequencies --    260.3205               279.8704               283.3700
 Red. masses --      1.5550                 1.2598                 2.0790
 Frc consts  --      0.0621                 0.0581                 0.0984
 IR Inten    --      0.0815                 0.3919                 0.7931

                     13                     14                     15
                      A                      A                      A
 Frequencies --    285.2654               317.1042               340.7654
 Red. masses --      2.0993                 2.4339                 3.4581
 Frc consts  --      0.1007                 0.1442                 0.2366
 IR Inten    --      0.3708                 0.8378                 6.8266

                     16                     17                     18
                      A                      A                      A
 Frequencies --    386.9471               389.0767               397.1371
 Red. masses --      3.3690                 1.5600                 1.9625
 Frc consts  --      0.2972                 0.1391                 0.1824
 IR Inten    --      5.9290               192.9393               128.4778

                     19                     20                     21
                      A                      A                      A
 Frequencies --    410.2139               426.5975               453.3472
 Red. masses --      4.0114                 2.9048                 4.1051
 Frc consts  --      0.3977                 0.3115                 0.4971
 IR Inten    --      0.0869                17.4394                 2.5330

                     22                     23                     24
                      A                      A                      A
 Frequencies --    506.3424               551.2489               580.5527
 Red. masses --      1.1555                 3.0014                 3.2811
 Frc consts  --      0.1745                 0.5374                 0.6516
 IR Inten    --      6.0659                 3.9516                 0.1724

                     25                     26                     27
                      A                      A                      A
 Frequencies --    618.3327               646.7651               702.0517
 Red. masses --      5.9664                 8.6222                 8.3806
 Frc consts  --      1.3440                 2.1250                 2.4337
 IR Inten    --      9.2844                 7.9276                 1.6182

                     28                     29                     30
                      A                      A                      A
 Frequencies --    717.0632               721.2222               745.3511
 Red. masses --      8.1118                 4.4804                 2.0586
 Frc consts  --      2.4574                 1.3731                 0.6738
 IR Inten    --      4.3702                13.0908                18.7100

                     31                     32                     33
                      A                      A                      A
 Frequencies --    808.6125               814.3364               857.5560
 Red. masses --      3.9280                 3.0814                 1.9714
 Frc consts  --      1.5132                 1.2039                 0.8542
 IR Inten    --      2.1313                 4.8916                23.5091

                     34                     35                     36
                      A                      A                      A
 Frequencies --    886.4362               935.0825               946.6895
 Red. masses --      4.0851                 1.8533                 1.7587
 Frc consts  --      1.8913                 0.9548                 0.9287
 IR Inten    --     33.3599                 1.2971                 1.2394

                     37                     38                     39
                      A                      A                      A
 Frequencies --    956.2912               978.3618               993.3881
 Red. masses --      1.6672                 1.1977                 1.9572
 Frc consts  --      0.8983                 0.6755                 1.1379
 IR Inten    --      2.4840                 0.1187                 1.2540

                     40                     41                     42
                      A                      A                      A
 Frequencies --    996.5300              1014.5876              1021.1873
 Red. masses --      2.9100                 1.5489                 5.2005
 Frc consts  --      1.7026                 0.9394                 3.1953
 IR Inten    --      2.3905                 1.9050                 7.6952

                     43                     44                     45
                      A                      A                      A
 Frequencies --   1054.2665              1059.7350              1068.1848
 Red. masses --      1.6610                 1.4102                 2.6298
 Frc consts  --      1.0877                 0.9331                 1.7679
 IR Inten    --      0.3674                 0.0771                15.0417

                     46                     47                     48
                      A                      A                      A
 Frequencies --   1080.6335              1147.0488              1190.7547
 Red. masses --      1.8461                 4.8640                 1.8155
 Frc consts  --      1.2702                 3.7706                 1.5167
 IR Inten    --      1.1691                 1.6971                 3.8093

                     49                     50                     51
                      A                      A                      A
 Frequencies --   1210.0348              1228.0838              1242.2911
 Red. masses --      2.1045                 1.9686                 2.6727
 Frc consts  --      1.8155                 1.7493                 2.4303
 IR Inten    --     33.0211                 5.5712                 2.6783

                     52                     53                     54
                      A                      A                      A
 Frequencies --   1258.6135              1260.0722              1287.6561
 Red. masses --      3.6313                 5.8748                 2.8676
 Frc consts  --      3.3892                 5.4959                 2.8013
 IR Inten    --      2.0189                 1.0931                30.7553

                     55                     56                     57
                      A                      A                      A
 Frequencies --   1308.7087              1381.4626              1391.0584
 Red. masses --      4.0476                 1.6171                 2.2424
 Frc consts  --      4.0844                 1.8183                 2.5565
 IR Inten    --      5.3147                25.2653                69.7402

                     58                     59                     60
                      A                      A                      A
 Frequencies --   1426.4153              1429.8094              1455.2206
 Red. masses --      1.2093                 1.2545                 2.0759
 Frc consts  --      1.4497                 1.5110                 2.5901
 IR Inten    --      3.6703                15.4205                56.6392

                     61                     62                     63
                      A                      A                      A
 Frequencies --   1458.0927              1473.5749              1490.0683
 Red. masses --      1.3646                 2.6502                 3.0123
 Frc consts  --      1.7094                 3.3905                 3.9406
 IR Inten    --     13.3347                26.8881                90.6143

                     64                     65                     66
                      A                      A                      A
 Frequencies --   1507.7052              1508.3575              1512.5124
 Red. masses --      3.0131                 1.0533                 1.1007
 Frc consts  --      4.0354                 1.4119                 1.4836
 IR Inten    --     25.4916                 0.2636                 1.2709

                     67                     68                     69
                      A                      A                      A
 Frequencies --   1515.7978              1530.4149              1534.9012
 Red. masses --      1.0461                 1.0508                 1.0588
 Frc consts  --      1.4161                 1.4501                 1.4697
 IR Inten    --      0.0699                 4.8858                 3.1869

                     70                     71                     72
                      A                      A                      A
 Frequencies --   1547.6768              1597.4089              1614.6969
 Red. masses --      1.0967                 4.9264                 5.3592
 Frc consts  --      1.5478                 7.4064                 8.2326
 IR Inten    --      7.0293                79.7472               258.4893

                     73                     74                     75
                      A                      A                      A
 Frequencies --   1631.2564              1641.2753              1665.2378
 Red. masses --      6.3822                 4.5440                 1.7281
 Frc consts  --     10.0060                 7.2120                 2.8234
 IR Inten    --    278.7297                65.1402               494.0247

                     76                     77                     78
                      A                      A                      A
 Frequencies --   3048.2595              3050.8430              3060.9749
 Red. masses --      1.0342                 1.0351                 1.0374
 Frc consts  --      5.6620                 5.6764                 5.7271
 IR Inten    --     25.5660                16.9504                30.8441

                     79                     80                     81
                      A                      A                      A
 Frequencies --   3116.5886              3119.0622              3122.7257
 Red. masses --      1.1027                 1.1021                 1.1031
 Frc consts  --      6.3104                 6.3171                 6.3377
 IR Inten    --      4.2339                27.5968                11.8220

                     82                     83                     84
                      A                      A                      A
 Frequencies --   3125.5593              3129.5658              3144.5900
 Red. masses --      1.1020                 1.1004                 1.1022
 Frc consts  --      6.3432                 6.3501                 6.4218
 IR Inten    --     48.7262                58.3486                24.5943

                     85                     86                     87
                      A                      A                      A
 Frequencies --   3178.6147              3195.2165              3214.0056
 Red. masses --      1.0901                 1.0912                 1.0918
 Frc consts  --      6.4890                 6.5637                 6.6450
 IR Inten    --     19.4217                28.8024                 2.5124

                     88                     89                     90
                      A                      A                      A
 Frequencies --   3242.5442              3603.5977              3726.9722
 Red. masses --      1.0905                 1.0453                 1.1037
 Frc consts  --      6.7551                 7.9974                 9.0330
 IR Inten    --      3.5015                72.3187                37.6797

 - Thermochemistry -
 -------------------
 Temperature   298.150 Kelvin.  Pressure   1.00000 Atm.
 Atom     1 has atomic number  6 and mass  12.00000

 Molecular mass:   229.13275 amu.
 Principal axes and moments of inertia in atomic units:
                           1         2         3
     Eigenvalues --  2128.188416532.280448208.73310
           X            0.99982   0.01898  -0.00042
           Y           -0.01898   0.99982  -0.00308
           Z            0.00036   0.00309   1.00000
 This molecule is an asymmetric top.
 Rotational symmetry number  1.
 Warning -- assumption of classical behavior for rotation
           may cause significant error
 Rotational temperatures (Kelvin)      0.04070     0.01326     0.01055
 Rotational constants (GHZ):           0.84802     0.27628     0.21986
 Zero-point vibrational energy     695087.6 (Joules/Mol)
                                  166.12992 (Kcal/Mol)
 Warning -- explicit consideration of  25 degrees of freedom as
           vibrations may cause significant error
 Vibrational temperatures:     35.24    49.08   102.37   133.09   189.48
          (Kelvin)            271.88   278.02   318.80   339.10   374.54
                              402.67   407.71   410.43   456.24   490.29
                              556.73   559.79   571.39   590.21   613.78
                              652.27   728.51   793.12   835.29   889.64
                              930.55  1010.10  1031.69  1037.68  1072.39
                             1163.41  1171.65  1233.83  1275.38  1345.38
                             1362.08  1375.89  1407.64  1429.26  1433.78
                             1459.77  1469.26  1516.85  1524.72  1536.88
                             1554.79  1650.35  1713.23  1740.97  1766.94
                             1787.38  1810.86  1812.96  1852.65  1882.94
                             1987.62  2001.42  2052.29  2057.18  2093.74
                             2097.87  2120.15  2143.88  2169.25  2170.19
                             2176.17  2180.89  2201.93  2208.38  2226.76
                             2298.32  2323.19  2347.01  2361.43  2395.91
                             4385.77  4389.48  4404.06  4484.08  4487.63
                             4492.91  4496.98  4502.75  4524.36  4573.32
                             4597.20  4624.24  4665.30  5184.77  5362.28

 Zero-point correction=                           0.264745 (Hartree/Particle)
 Thermal correction to Energy=                    0.280322
 Thermal correction to Enthalpy=                  0.281266
 Thermal correction to Gibbs Free Energy=         0.221287
 Sum of electronic and zero-point Energies=           -739.892617
 Sum of electronic and thermal Energies=              -739.877040
 Sum of electronic and thermal Enthalpies=            -739.876096
 Sum of electronic and thermal Free Energies=         -739.936075

                     E (Thermal)             CV                S
                      KCal/Mol        Cal/Mol-Kelvin    Cal/Mol-Kelvin
 Total                  175.905             60.296            126.237
 Electronic               0.000              0.000              0.000
 Translational            0.889              2.981             42.189
 Rotational               0.889              2.981             33.100
 Vibrational            174.127             54.335             50.947
 Vibration     1          0.593              1.985              6.232
 Vibration     2          0.594              1.983              5.575
 Vibration     3          0.598              1.968              4.121
 Vibration     4          0.602              1.955              3.606
 Vibration     5          0.612              1.922              2.921
 Vibration     6          0.633              1.855              2.238
 Vibration     7          0.635              1.849              2.197
 Vibration     8          0.648              1.808              1.946
 Vibration     9          0.655              1.786              1.835
 Vibration    10          0.668              1.745              1.660
 Vibration    11          0.680              1.711              1.534
 Vibration    12          0.682              1.704              1.513
 Vibration    13          0.683              1.701              1.502
 Vibration    14          0.704              1.641              1.325
 Vibration    15          0.720              1.594              1.209
 Vibration    16          0.755              1.498              1.012
 Vibration    17          0.757              1.494              1.004
 Vibration    18          0.764              1.476              0.973
 Vibration    19          0.774              1.448              0.926
 Vibration    20          0.788              1.412              0.870
 Vibration    21          0.812              1.353              0.786
 Vibration    22          0.862              1.236              0.642
 Vibration    23          0.907              1.137              0.542
 Vibration    24          0.937              1.073              0.484
 Vibration    25          0.978              0.993              0.419

                           ! Non-Optimized Parameters !
 Normal termination of Gaussian 16 at Mon Dec 14 13:24:48 2020.

 ----------------------------------------------------------------------
 # B3LYP/6-311++G(d,p) empiricaldispersion=gd3bj scf=xqc pop=npa geom=c
 heck
 ----------------------------------------------------------------------

 ---------------------------------------
 CID_133552443_JID_7415_Energie_neutraal
 ---------------------------------------
 Structure from the checkpoint file:  "JID_7415.chk"
 Charge =  0 Multiplicity = 1

 SCF Done:  E(RB3LYP) =  -740.354957246     A.U. after   14 cycles
 Normal termination of Gaussian 16 at Mon Dec 14 13:29:53 2020.

 ----------------------------------------------------------------------
 # B3LYP/6-311++G(d,p) empiricaldispersion=gd3bj scf=xqc pop=npa geom=c
 heck
 ----------------------------------------------------------------------

 -------------------------------------
 CID_133552443_JID_7415_Energie_kation
 -------------------------------------
 Structure from the checkpoint file:  "JID_7415.chk"
 Charge =  1 Multiplicity = 2

 SCF Done:  E(UB3LYP) =  -740.049110734     A.U. after   28 cycles
 Normal termination of Gaussian 16 at Mon Dec 14 13:44:10 2020.
 Gaussian 16:  ES64L-G16RevA.03 25-Dec-2016

 ----------------------------------------------------------------------
 # B3LYP/6-311++G(d,p) empiricaldispersion=gd3bj scf=xqc pop=npa geom=c
 heck
 ----------------------------------------------------------------------

 ------------------------------------
 CID_133552443_JID_7415_Energie_anion
 ------------------------------------
 Structure from the checkpoint file:  "JID_7415.chk"
 Charge = -1 Multiplicity = 2

                         Standard orientation:
 ---------------------------------------------------------------------
 Center     Atomic      Atomic             Coordinates (Angstroms)
 Number     Number       Type             X           Y           Z
 ---------------------------------------------------------------------
      1          6           0       -2.843755   -1.960409   -1.119460
      2          6           0       -2.912774   -0.967110    0.060444
      3          6           0       -4.220283   -0.167297   -0.030817
      4          6           0       -2.887911   -1.746772    1.393298
      5          6           0       -1.695882   -0.042564    0.008874
      6          7           0       -1.911122    1.271574   -0.068691
      7          6           0       -0.820989    2.066224   -0.098551
      8          7           0        0.459857    1.670293   -0.092436
      9          6           0        0.666540    0.344791   -0.021844
     10          6           0       -0.392364   -0.560941    0.047946
     11          6           0        2.079582   -0.092501   -0.010826
     12          6           0        2.487966   -1.391627   -0.331806
     13          7           0        3.767093   -1.777584   -0.309442
     14          6           0        4.653837   -0.837824    0.034682
     15          7           0        4.397171    0.438026    0.345676
     16          6           0        3.111442    0.798318    0.317526
     17          7           0       -1.052908    3.411722   -0.113555
     18          1           0       -3.713971   -2.626116   -1.098393
     19          1           0       -1.944676   -2.583899   -1.078417
     20          1           0       -2.844202   -1.429954   -2.077977
     21          1           0       -5.072568   -0.854949    0.010103
     22          1           0       -4.307215    0.547153    0.791988
     23          1           0       -4.274521    0.399715   -0.964353
     24          1           0       -1.986492   -2.360608    1.491036
     25          1           0       -2.925221   -1.061649    2.247158
     26          1           0       -3.756070   -2.413004    1.452367
     27          1           0       -0.217748   -1.624443    0.140692
     28          1           0        1.766522   -2.146925   -0.637151
     29          1           0        5.697668   -1.143089    0.060411
     30          1           0        2.872980    1.828807    0.564504
     31          1           0       -0.281467    4.007325   -0.374664
     32          1           0       -1.986115    3.709699   -0.354967
 ---------------------------------------------------------------------

 SCF Done:  E(UB3LYP) =  -740.375357769     A.U. after   25 cycles

 The electronic state is 2-A.
 Alpha  occ. eigenvalues --  -14.20361 -14.17093 -14.16933 -14.15158 -14.14855
 Alpha  occ. eigenvalues --  -10.13033 -10.07970 -10.07415 -10.07232 -10.06842
 Alpha  occ. eigenvalues --  -10.06181 -10.06025 -10.05990 -10.05951 -10.05185
 Alpha  occ. eigenvalues --  -10.03177 -10.02628  -0.85852  -0.83552  -0.77583
 Alpha  occ. eigenvalues --   -0.75072  -0.73973  -0.70478  -0.65556  -0.61531
 Alpha  occ. eigenvalues --   -0.58726  -0.58220  -0.53710  -0.52183  -0.49949
 Alpha  occ. eigenvalues --   -0.48582  -0.44651  -0.40823  -0.39358  -0.38196
 Alpha  occ. eigenvalues --   -0.37050  -0.35426  -0.33892  -0.33714  -0.33057
 Alpha  occ. eigenvalues --   -0.31389  -0.30413  -0.29299  -0.28985  -0.27971
 Alpha  occ. eigenvalues --   -0.27472  -0.26811  -0.26550  -0.26230  -0.23532
 Alpha  occ. eigenvalues --   -0.22873  -0.22474  -0.20528  -0.17877  -0.17400
 Alpha  occ. eigenvalues --   -0.16847  -0.16010  -0.12908  -0.11255  -0.10594
 Alpha  occ. eigenvalues --   -0.09739   0.03610
 Alpha virt. eigenvalues --    0.07041   0.08224   0.09414   0.09473   0.09569
 Alpha virt. eigenvalues --    0.10318   0.10588   0.11541   0.11785   0.11842
 Alpha virt. eigenvalues --    0.12167   0.12916   0.13625   0.13916   0.14278

  Beta  occ. eigenvalues --  -14.20370 -14.17175 -14.17019 -14.14851 -14.14622
  Beta  occ. eigenvalues --  -10.13076 -10.07981 -10.07263 -10.06839 -10.06681
  Beta  occ. eigenvalues --  -10.06012 -10.06004 -10.05975 -10.05611 -10.05185
  Beta  occ. eigenvalues --  -10.03050 -10.02656  -0.85563  -0.83323  -0.77417
  Beta  occ. eigenvalues --   -0.74550  -0.73877  -0.70309  -0.65067  -0.61232
  Beta  occ. eigenvalues --   -0.58694  -0.58188  -0.53064  -0.52007  -0.49702
  Beta  occ. eigenvalues --   -0.48341  -0.44553  -0.40598  -0.39254  -0.37936
  Beta  occ. eigenvalues --   -0.36931  -0.35331  -0.33783  -0.33602  -0.32970
  Beta  occ. eigenvalues --   -0.31264  -0.29953  -0.29054  -0.28588  -0.27348
  Beta  occ. eigenvalues --   -0.27177  -0.26693  -0.26533  -0.26044  -0.23447
  Beta  occ. eigenvalues --   -0.22810  -0.22371  -0.19530  -0.16929  -0.16624
  Beta  occ. eigenvalues --   -0.16347  -0.15925  -0.11490  -0.11172  -0.10375
  Beta  occ. eigenvalues --   -0.08862
  Beta virt. eigenvalues --    0.06994   0.08198   0.09114   0.09364   0.09747
  Beta virt. eigenvalues --    0.09954   0.10292   0.10548   0.11516   0.11778
  Beta virt. eigenvalues --    0.12161   0.12527   0.12932   0.13637   0.13921

 Mulliken charges and spin densities:
               1          2
     1  C   -0.619793  -0.006211
     2  C    0.717548  -0.057867
     3  C   -0.560042   0.002245
     4  C   -0.576111  -0.011039
     5  C   -0.200997   0.106318
     6  N   -0.157052   0.156652
     7  C    0.301797   0.001675
     8  N   -0.125096   0.112801
     9  C   -0.547384   0.190355
    10  C   -0.454868   0.011502
    11  C    0.023827   0.053600
    12  C   -0.415114   0.120262
    13  N   -0.078010  -0.052591
    14  C   -0.113321   0.281236
    15  N   -0.110440  -0.054908
    16  C   -0.108506   0.142488
    17  N   -0.301862  -0.003542
    18  H    0.120730   0.012725
    19  H    0.140738   0.004166
    20  H    0.144921  -0.000321
    21  H    0.120096  -0.000089
    22  H    0.160584  -0.001964
    23  H    0.151373   0.000758
    24  H    0.133197   0.005833
    25  H    0.146172   0.002468
    26  H    0.116881   0.015606
    27  H    0.076119   0.003323
    28  H    0.151664  -0.007557
    29  H    0.162537  -0.021675
    30  H    0.205391  -0.008694
    31  H    0.253814  -0.000625
    32  H    0.241208   0.003067
 Sum of Mulliken charges =  -1.00000   1.00000

 Dipole moment (field-independent basis, Debye):
    X=             -7.7016    Y=              0.1205    Z=             -0.5544  Tot=              7.7225
 Quadrupole moment (field-independent basis, Debye-Ang):
   XX=           -166.4582   YY=           -114.6408   ZZ=           -110.9688
   XY=              4.6748   XZ=              0.3774   YZ=             -4.0815

 Summary of Natural Population Analysis:

                                       Natural Population
                Natural  -----------------------------------------------
    Atom  No    Charge         Core      Valence    Rydberg      Total
 -----------------------------------------------------------------------
      C    1   -0.27686      0.99964     2.27198    0.00524     3.27686
      C    2   -0.06017      0.99956     2.05175    0.00886     3.06017
      C    3   -0.28143      0.99964     2.27556    0.00623     3.28143
      C    4   -0.27675      0.99964     2.27190    0.00521     3.27675
      C    5    0.15723      0.99951     1.82792    0.01533     2.84277
      N    6   -0.25886      0.99963     2.74747    0.01176     3.75886
      C    7    0.28845      0.99964     1.69410    0.01781     2.71155
      N    8   -0.25389      0.99965     2.74252    0.01172     3.75389
      C    9    0.17237      0.99954     1.81534    0.01276     2.82763
      C   10   -0.16884      0.99946     2.16288    0.00650     3.16884
      C   11   -0.05391      0.99939     2.04517    0.00935     3.05391
      C   12    0.08151      0.99948     1.90572    0.01329     2.91849
      N   13   -0.27297      0.99971     2.76134    0.01192     3.77297
      C   14    0.19626      0.99969     1.78266    0.02139     2.80374
      N   15   -0.27162      0.99971     2.76029    0.01162     3.77162
      C   16    0.08529      0.99958     1.89999    0.01513     2.91471
      N   17   -0.40313      0.99969     2.89411    0.00932     3.90313
      H   18    0.09083      0.00000     0.40828    0.00089     0.40917
      H   19    0.10006      0.00000     0.39916    0.00078     0.39994
      H   20    0.10034      0.00000     0.39895    0.00070     0.39966
      H   21    0.08766      0.00000     0.41151    0.00083     0.41234
      H   22    0.10530      0.00000     0.39388    0.00081     0.39470
      H   23    0.10393      0.00000     0.39527    0.00081     0.39607
      H   24    0.10029      0.00000     0.39895    0.00076     0.39971
      H   25    0.10071      0.00000     0.39859    0.00070     0.39929
      H   26    0.09084      0.00000     0.40827    0.00089     0.40916
      H   27    0.09781      0.00000     0.40087    0.00132     0.40219
      H   28    0.08009      0.00000     0.41772    0.00219     0.41991
      H   29    0.06715      0.00000     0.43149    0.00136     0.43285
      H   30    0.09356      0.00000     0.40529    0.00115     0.40644
      H   31    0.19024      0.00000     0.30858    0.00118     0.30976
      H   32    0.18862      0.00000     0.31018    0.00120     0.31138
 =======================================================================
   * Total *    0.00012     16.99318    43.79772    0.20899    60.99988

 Normal termination of Gaussian 16 at Mon Dec 14 13:56:56 2020.
