 Gaussian 16, Revision A.03,

 -----------------------------------------------------------
 # opt freq B3LYP/6-31G(d) empiricaldispersion=gd3bj scf=xqc
 -----------------------------------------------------------

 ------------------------------
 CID_61772034_JID_3727_neutraal
 ------------------------------
 Symbolic Z-matrix:
 Charge =  0 Multiplicity = 1

 SCF Done:  E(RB3LYP) =  -654.691220062     A.U. after   13 cycles
 SCF Done:  E(RB3LYP) =  -654.694426890     A.U. after   10 cycles
 SCF Done:  E(RB3LYP) =  -654.694693460     A.U. after   10 cycles
 SCF Done:  E(RB3LYP) =  -654.694701277     A.U. after   11 cycles
 SCF Done:  E(RB3LYP) =  -654.694769790     A.U. after   10 cycles
 SCF Done:  E(RB3LYP) =  -654.694771990     A.U. after    7 cycles
 SCF Done:  E(RB3LYP) =  -654.694772242     A.U. after    7 cycles
 SCF Done:  E(RB3LYP) =  -654.694772309     A.U. after    6 cycles
 SCF Done:  E(RB3LYP) =  -654.694772341     A.U. after    6 cycles
 Optimization completed.
    -- Stationary point found.

 1\1\GINC-NODE221\FOpt\RB3LYP\6-31G(d)\C9H18O4\VSC10255\13-Dec-2020\0\\
 # opt freq B3LYP/6-31G(d) empiricaldispersion=gd3bj scf=xqc\\CID_61772
 034_JID_3727_neutraal\\0,1\C,0.7795052101,0.0756020658,0.0272428474\C,
 1.0686201904,0.8977714721,-1.2253321178\O,2.2926824768,1.6297971382,-1
 .1780131319\C,2.4232345069,2.6014946095,-0.158104117\C,1.4507068913,3.
 7693285924,-0.254840357\O,0.1901655022,3.367527617,0.2683330886\C,-0.8
 182563349,4.372243679,0.3052837691\C,-1.3823312303,4.6807770939,-1.088
 885038\O,-2.472094714,5.5840227736,-0.9970326734\C,-3.5582580152,5.021

 Normal termination of Gaussian 16 at Sun Dec 13 19:57:57 2020.

 --------------------------------------------------------------------
 #N Geom=AllCheck Guess=TCheck SCRF=Check GenChk RB3LYP/6-31G(d) Freq
 --------------------------------------------------------------------

 Structure from the checkpoint file:  "JID_3727.chk"
 ------------------------------
 CID_61772034_JID_3727_neutraal
 ------------------------------
 Charge =  0 Multiplicity = 1

 SCF Done:  E(RB3LYP) =  -654.694772341     A.U. after    1 cycles

  Exact polarizability: 123.962  -3.165 102.136   1.076   4.315  94.696
 Approx polarizability: 149.936  -2.435 145.089   2.985   6.763 137.250

                      1                      2                      3
                      A                      A                      A
 Frequencies --     20.3827                41.9375                60.7322
 Red. masses --      3.9924                 4.3623                 3.1412
 Frc consts  --      0.0010                 0.0045                 0.0068
 IR Inten    --      0.0135                 0.0583                 1.2838

                      4                      5                      6
                      A                      A                      A
 Frequencies --     98.2465               115.9479               148.2137
 Red. masses --      3.5247                 3.1444                 2.4848
 Frc consts  --      0.0200                 0.0249                 0.0322
 IR Inten    --      1.4744                 3.7729                 0.9499

                      7                      8                      9
                      A                      A                      A
 Frequencies --    178.8612               208.3702               245.7387
 Red. masses --      3.3984                 2.1848                 1.9282
 Frc consts  --      0.0641                 0.0559                 0.0686
 IR Inten    --      2.8609                 1.3841                 0.3629

                     10                     11                     12
                      A                      A                      A
 Frequencies --    296.0007               301.8549               323.4813
 Red. masses --      2.3150                 2.9572                 2.2079
 Frc consts  --      0.1195                 0.1588                 0.1361
 IR Inten    --      0.8456                 2.5619                 4.6544

                     13                     14                     15
                      A                      A                      A
 Frequencies --    336.1560               362.1252               407.4213
 Red. masses --      2.9743                 3.3788                 2.0207
 Frc consts  --      0.1980                 0.2611                 0.1976
 IR Inten    --     10.1929                 6.4500                 0.3429

                     16                     17                     18
                      A                      A                      A
 Frequencies --    440.3807               449.1824               477.4429
 Red. masses --      2.0548                 1.4629                 2.5727
 Frc consts  --      0.2348                 0.1739                 0.3455
 IR Inten    --     34.6454                50.9462                32.0457

                     19                     20                     21
                      A                      A                      A
 Frequencies --    510.1122               562.0664               609.1675
 Red. masses --      3.1004                 2.6496                 3.0174
 Frc consts  --      0.4753                 0.4932                 0.6597
 IR Inten    --     12.3237                 9.0511                 5.2019

                     22                     23                     24
                      A                      A                      A
 Frequencies --    709.6026               804.1158               818.7178
 Red. masses --      2.4633                 1.4050                 2.0651
 Frc consts  --      0.7308                 0.5353                 0.8156
 IR Inten    --      3.2533                 9.5481                 2.3730

                     25                     26                     27
                      A                      A                      A
 Frequencies --    825.0894               875.2749               886.1930
 Red. masses --      1.9048                 2.8045                 2.7718
 Frc consts  --      0.7640                 1.2659                 1.2826
 IR Inten    --      2.8913                 9.7640                 6.7095

                     28                     29                     30
                      A                      A                      A
 Frequencies --    918.7469               939.0581               988.6944
 Red. masses --      2.2868                 2.2595                 2.9149
 Frc consts  --      1.1373                 1.1739                 1.6788
 IR Inten    --     13.6627                16.5359                11.3559

                     31                     32                     33
                      A                      A                      A
 Frequencies --   1011.4642              1027.9261              1041.0406
 Red. masses --      2.0670                 2.4181                 1.6251
 Frc consts  --      1.2459                 1.5054                 1.0377
 IR Inten    --     26.0908                11.4197                15.3901

                     34                     35                     36
                      A                      A                      A
 Frequencies --   1054.1251              1083.1543              1108.9151
 Red. masses --      2.0649                 3.2879                 2.0453
 Frc consts  --      1.3519                 2.2728                 1.4818
 IR Inten    --     61.3329                30.3842                 1.7163

                     37                     38                     39
                      A                      A                      A
 Frequencies --   1126.5724              1131.4006              1142.4407
 Red. masses --      3.3820                 2.5014                 3.1181
 Frc consts  --      2.5289                 1.8865                 2.3977
 IR Inten    --     50.5010                41.9207                 6.4393

                     40                     41                     42
                      A                      A                      A
 Frequencies --   1151.4462              1174.8674              1183.0745
 Red. masses --      4.8673                 2.8569                 2.9364
 Frc consts  --      3.8021                 2.3234                 2.4215
 IR Inten    --    180.4897                38.0458                83.1922

                     43                     44                     45
                      A                      A                      A
 Frequencies --   1213.1297              1233.2137              1267.8933
 Red. masses --      1.8871                 1.2859                 1.2939
 Frc consts  --      1.6363                 1.1522                 1.2255
 IR Inten    --     34.9002                41.9919                 7.2192

                     46                     47                     48
                      A                      A                      A
 Frequencies --   1274.0786              1292.5819              1333.3466
 Red. masses --      1.1327                 1.1564                 1.2881
 Frc consts  --      1.0833                 1.1383                 1.3492
 IR Inten    --      6.7204                36.1640                10.4449

                     49                     50                     51
                      A                      A                      A
 Frequencies --   1333.5105              1341.8205              1358.1995
 Red. masses --      1.1532                 1.1706                 1.1155
 Frc consts  --      1.2083                 1.2418                 1.2124
 IR Inten    --      7.1090                43.0501                 3.8082

                     52                     53                     54
                      A                      A                      A
 Frequencies --   1375.0276              1383.1323              1404.3905
 Red. masses --      1.2842                 1.3622                 1.4177
 Frc consts  --      1.4306                 1.5354                 1.6475
 IR Inten    --      6.4225                11.4971                 2.4267

                     55                     56                     57
                      A                      A                      A
 Frequencies --   1408.2526              1413.3838              1425.0173
 Red. masses --      1.2635                 1.3118                 1.2511
 Frc consts  --      1.4763                 1.5440                 1.4969
 IR Inten    --     22.5836                 8.8267                15.9254

                     58                     59                     60
                      A                      A                      A
 Frequencies --   1441.6881              1447.9554              1452.2893
 Red. masses --      1.3420                 1.3559                 1.4115
 Frc consts  --      1.6434                 1.6749                 1.7541
 IR Inten    --     14.6365                 6.9279                13.8462

                     61                     62                     63
                      A                      A                      A
 Frequencies --   1455.5929              1498.1015              1509.7401
 Red. masses --      1.6294                 1.1004                 1.0724
 Frc consts  --      2.0340                 1.4550                 1.4402
 IR Inten    --     14.8133                 6.4022                 5.2593

                     64                     65                     66
                      A                      A                      A
 Frequencies --   1519.1724              1522.3681              1530.2231
 Red. masses --      1.0818                 1.0564                 1.0691
 Frc consts  --      1.4710                 1.4425                 1.4750
 IR Inten    --      0.1834                 1.3240                 3.5626

                     67                     68                     69
                      A                      A                      A
 Frequencies --   1534.4108              1536.9683              1548.5340
 Red. masses --      1.1011                 1.0876                 1.0705
 Frc consts  --      1.5275                 1.5137                 1.5125
 IR Inten    --      4.4753                 9.9910                 1.2889

                     70                     71                     72
                      A                      A                      A
 Frequencies --   2995.1991              2997.0436              3012.0216
 Red. masses --      1.0712                 1.0761                 1.0797
 Frc consts  --      5.6619                 5.6951                 5.7715
 IR Inten    --     35.9408                40.2700                21.6145

                     73                     74                     75
                      A                      A                      A
 Frequencies --   3022.0195              3026.8900              3030.1739
 Red. masses --      1.0720                 1.0668                 1.0684
 Frc consts  --      5.7684                 5.7590                 5.7801
 IR Inten    --     69.1388                38.4612                44.4839

                     76                     77                     78
                      A                      A                      A
 Frequencies --   3046.4314              3054.4063              3058.6895
 Red. masses --      1.0646                 1.0425                 1.0914
 Frc consts  --      5.8214                 5.7304                 6.0157
 IR Inten    --     35.2422                 8.3577                54.5480

                     79                     80                     81
                      A                      A                      A
 Frequencies --   3061.4019              3098.8875              3101.0160
 Red. masses --      1.0613                 1.0999                 1.0974
 Frc consts  --      5.8602                 6.2235                 6.2176
 IR Inten    --     36.9745                18.5032                36.9141

                     82                     83                     84
                      A                      A                      A
 Frequencies --   3106.1306              3117.6974              3120.0233
 Red. masses --      1.1024                 1.0970                 1.0986
 Frc consts  --      6.2666                 6.2822                 6.3009
 IR Inten    --     29.8186                40.6088                38.5774

                     85                     86                     87
                      A                      A                      A
 Frequencies --   3121.2101              3133.9734              3723.2972
 Red. masses --      1.1007                 1.1037                 1.0650
 Frc consts  --      6.3177                 6.3869                 8.6991
 IR Inten    --     29.3619                56.5837                56.4757

 - Thermochemistry -
 -------------------
 Temperature   298.150 Kelvin.  Pressure   1.00000 Atm.
 Atom     1 has atomic number  6 and mass  12.00000

 Molecular mass:   190.12051 amu.
 Principal axes and moments of inertia in atomic units:
                           1         2         3
     Eigenvalues --  1221.724924252.817344701.98808
           X            0.99999   0.00519   0.00156
           Y           -0.00524   0.99947   0.03211
           Z           -0.00139  -0.03212   0.99948
 This molecule is an asymmetric top.
 Rotational symmetry number  1.
 Warning -- assumption of classical behavior for rotation
           may cause significant error
 Rotational temperatures (Kelvin)      0.07089     0.02037     0.01842
 Rotational constants (GHZ):           1.47721     0.42436     0.38383
 Zero-point vibrational energy     724197.0 (Joules/Mol)
                                  173.08723 (Kcal/Mol)
 Warning -- explicit consideration of  21 degrees of freedom as
           vibrations may cause significant error
 Vibrational temperatures:     29.33    60.34    87.38   141.35   166.82
          (Kelvin)            213.25   257.34   299.80   353.56   425.88
                              434.30   465.42   483.65   521.02   586.19
                              633.61   646.27   686.93   733.94   808.69
                              876.46  1020.96  1156.94  1177.95  1187.12
                             1259.33  1275.03  1321.87  1351.10  1422.51
                             1455.27  1478.96  1497.83  1516.65  1558.42
                             1595.48  1620.89  1627.83  1643.72  1656.67
                             1690.37  1702.18  1745.42  1774.32  1824.22
                             1833.11  1859.74  1918.39  1918.62  1930.58
                             1954.15  1978.36  1990.02  2020.60  2026.16
                             2033.54  2050.28  2074.27  2083.28  2089.52
                             2094.27  2155.43  2172.18  2185.75  2190.35
                             2201.65  2207.67  2211.35  2227.99  4309.42
                             4312.08  4333.63  4348.01  4355.02  4359.74
                             4383.14  4394.61  4400.77  4404.67  4458.61
                             4461.67  4469.03  4485.67  4489.02  4490.73
                             4509.09  5356.99

 Zero-point correction=                           0.275832 (Hartree/Particle)
 Thermal correction to Energy=                    0.289639
 Thermal correction to Enthalpy=                  0.290583
 Thermal correction to Gibbs Free Energy=         0.234021
 Sum of electronic and zero-point Energies=           -654.418940
 Sum of electronic and thermal Energies=              -654.405133
 Sum of electronic and thermal Enthalpies=            -654.404189
 Sum of electronic and thermal Free Energies=         -654.460752

                     E (Thermal)             CV                S
                      KCal/Mol        Cal/Mol-Kelvin    Cal/Mol-Kelvin
 Total                  181.751             51.483            119.046
 Electronic               0.000              0.000              0.000
 Translational            0.889              2.981             41.633
 Rotational               0.889              2.981             31.569
 Vibrational            179.974             45.521             45.844
 Vibration     1          0.593              1.986              6.597
 Vibration     2          0.595              1.980              5.165
 Vibration     3          0.597              1.973              4.433
 Vibration     4          0.604              1.950              3.489
 Vibration     5          0.608              1.936              3.167
 Vibration     6          0.618              1.905              2.695
 Vibration     7          0.629              1.868              2.340
 Vibration     8          0.642              1.828              2.058
 Vibration     9          0.660              1.770              1.761
 Vibration    10          0.690              1.681              1.439
 Vibration    11          0.694              1.670              1.407
 Vibration    12          0.708              1.628              1.292
 Vibration    13          0.717              1.603              1.230
 Vibration    14          0.736              1.550              1.113
 Vibration    15          0.772              1.454              0.936
 Vibration    16          0.800              1.382              0.825
 Vibration    17          0.808              1.363              0.798
 Vibration    18          0.834              1.300              0.717
 Vibration    19          0.865              1.228              0.633
 Vibration    20          0.918              1.113              0.520
 Vibration    21          0.968              1.012              0.434

                           ! Non-Optimized Parameters !

 1\1\GINC-NODE221\Freq\RB3LYP\6-31G(d)\C9H18O4\VSC10255\13-Dec-2020\0\\
 #N Geom=AllCheck Guess=TCheck SCRF=Check GenChk RB3LYP/6-31G(d) Freq\\
 CID_61772034_JID_3727_neutraal\\0,1\C,0.7795052101,0.0756020658,0.0272
 428474\C,1.0686201904,0.8977714721,-1.2253321178\O,2.2926824768,1.6297
 971382,-1.1780131319\C,2.4232345069,2.6014946095,-0.158104117\C,1.4507
 068913,3.7693285924,-0.254840357\O,0.1901655022,3.367527617,0.26833308
 86\C,-0.8182563349,4.372243679,0.3052837691\C,-1.3823312303,4.68077709
 39,-1.088885038\O,-2.472094714,5.5840227736,-0.9970326734\C,-3.5582580

 Normal termination of Gaussian 16 at Sun Dec 13 20:05:54 2020.

 ----------------------------------------------------------------------
 # B3LYP/6-311++G(d,p) empiricaldispersion=gd3bj scf=xqc pop=npa geom=c
 heck
 ----------------------------------------------------------------------

 --------------------------------------
 CID_61772034_JID_3727_Energie_neutraal
 --------------------------------------
 Structure from the checkpoint file:  "JID_3727.chk"
 Charge =  0 Multiplicity = 1

 SCF Done:  E(RB3LYP) =  -654.897069268     A.U. after   14 cycles
 Normal termination of Gaussian 16 at Sun Dec 13 20:09:31 2020.

 ----------------------------------------------------------------------
 # B3LYP/6-311++G(d,p) empiricaldispersion=gd3bj scf=xqc pop=npa geom=c
 heck
 ----------------------------------------------------------------------

 ------------------------------------
 CID_61772034_JID_3727_Energie_kation
 ------------------------------------
 Structure from the checkpoint file:  "JID_3727.chk"
 Charge =  1 Multiplicity = 2

 SCF Done:  E(UB3LYP) =  -654.578901658     A.U. after   24 cycles
 Normal termination of Gaussian 16 at Sun Dec 13 20:18:06 2020.
 Gaussian 16:  ES64L-G16RevA.03 25-Dec-2016

 -----------------------------------
 CID_61772034_JID_3727_Energie_anion
 -----------------------------------
 Structure from the checkpoint file:  "JID_3727.chk"
 Charge = -1 Multiplicity = 2

                         Standard orientation:
 ---------------------------------------------------------------------
 Center     Atomic      Atomic             Coordinates (Angstroms)
 Number     Number       Type             X           Y           Z
 ---------------------------------------------------------------------
      1          6           0        2.924160    1.838980    0.177437
      2          6           0        2.830014    0.596412    1.058150
      3          8           0        3.370308   -0.584827    0.467230
      4          6           0        2.773040   -1.035728   -0.733359
      5          6           0        1.321445   -1.477097   -0.602713
      6          8           0        0.485206   -0.326088   -0.601153
      7          6           0       -0.915996   -0.573725   -0.545982
      8          6           0       -1.370943   -1.029796    0.847612
      9          8           0       -2.784321   -1.136817    0.900361
     10          6           0       -3.413652    0.125782    0.688757
     11          6           0       -3.093005    0.671969   -0.702264
     12          6           0       -1.582360    0.759035   -0.912900
     13          8           0       -1.082090    1.796887   -0.076214
     14          1           0        3.951809    1.991481   -0.169320
     15          1           0        2.619984    2.722710    0.750417
     16          1           0        2.271291    1.766139   -0.698223
     17          1           0        3.426112    0.736538    1.965363
     18          1           0        1.788881    0.430987    1.364174
     19          1           0        2.840397   -0.284839   -1.534205
     20          1           0        3.371641   -1.901379   -1.036093
     21          1           0        1.054420   -2.123006   -1.455064
     22          1           0        1.202493   -2.061246    0.319948
     23          1           0       -1.196348   -1.337952   -1.287499
     24          1           0       -1.000869   -0.309239    1.592771
     25          1           0       -0.978508   -2.020082    1.093296
     26          1           0       -3.088462    0.840814    1.458298
     27          1           0       -4.486254   -0.050611    0.806730
     28          1           0       -3.532283    1.667182   -0.835322
     29          1           0       -3.523009    0.007153   -1.461056
     30          1           0       -1.354867    0.982393   -1.967203
     31          1           0       -0.115466    1.694722   -0.077233
 ---------------------------------------------------------------------

 SCF Done:  E(UB3LYP) =  -654.881567035     A.U. after   28 cycles

 The electronic state is 2-A.
 Alpha  occ. eigenvalues --  -19.03825 -19.03258 -19.02670 -19.02328 -10.12617
 Alpha  occ. eigenvalues --  -10.12421 -10.12235 -10.12025 -10.12008 -10.11935
 Alpha  occ. eigenvalues --  -10.11846 -10.07299 -10.06669  -0.96109  -0.94425
 Alpha  occ. eigenvalues --   -0.93503  -0.92162  -0.69710  -0.68086  -0.66468
 Alpha  occ. eigenvalues --   -0.62923  -0.56547  -0.55220  -0.52915  -0.48513
 Alpha  occ. eigenvalues --   -0.47266  -0.42594  -0.41836  -0.41469  -0.40494
 Alpha  occ. eigenvalues --   -0.38927  -0.37875  -0.36575  -0.34374  -0.34135
 Alpha  occ. eigenvalues --   -0.32389  -0.31536  -0.31051  -0.30111  -0.29640
 Alpha  occ. eigenvalues --   -0.28639  -0.28032  -0.26901  -0.26726  -0.25054
 Alpha  occ. eigenvalues --   -0.22770  -0.22093  -0.21052  -0.19111  -0.18481
 Alpha  occ. eigenvalues --   -0.16361  -0.15187   0.04591
 Alpha virt. eigenvalues --    0.06589   0.06932   0.07597   0.08624   0.09120
 Alpha virt. eigenvalues --    0.09396   0.10027   0.10208   0.11045   0.11359
 Alpha virt. eigenvalues --    0.12121   0.12733   0.13028   0.13389   0.14123

  Beta  occ. eigenvalues --  -19.03811 -19.03254 -19.02670 -19.02319 -10.12604
  Beta  occ. eigenvalues --  -10.12406 -10.12203 -10.12016 -10.12000 -10.11925
  Beta  occ. eigenvalues --  -10.11821 -10.07278 -10.06641  -0.96089  -0.94415
  Beta  occ. eigenvalues --   -0.93493  -0.92143  -0.69670  -0.68052  -0.66439
  Beta  occ. eigenvalues --   -0.62881  -0.56500  -0.55187  -0.52861  -0.48445
  Beta  occ. eigenvalues --   -0.47225  -0.42555  -0.41803  -0.41422  -0.40459
  Beta  occ. eigenvalues --   -0.38905  -0.37850  -0.36546  -0.34346  -0.34090
  Beta  occ. eigenvalues --   -0.32350  -0.31506  -0.31022  -0.30078  -0.29601
  Beta  occ. eigenvalues --   -0.28608  -0.27995  -0.26872  -0.26689  -0.24992
  Beta  occ. eigenvalues --   -0.22742  -0.22063  -0.21029  -0.19091  -0.18455
  Beta  occ. eigenvalues --   -0.16342  -0.15165
  Beta virt. eigenvalues --    0.06734   0.07315   0.07972   0.08090   0.09219
  Beta virt. eigenvalues --    0.09389   0.09755   0.10580   0.10670   0.11586
  Beta virt. eigenvalues --    0.11752   0.12486   0.12877   0.13203   0.13700

 Mulliken charges and spin densities:
               1          2
     1  C    0.538253  -0.966031
     2  C   -0.362979   0.132805
     3  O   -0.136373   0.038600
     4  C    0.431512  -0.938549
     5  C    0.611378  -0.668395
     6  O   -0.094865   0.036895
     7  C   -0.713946   0.388279
     8  C    0.484832  -0.923897
     9  O   -0.157091   0.044263
    10  C    0.062828  -0.330592
    11  C    0.747272  -1.120648
    12  C   -0.348514   0.250035
    13  O   -0.181823   0.016979
    14  H   -0.152795   0.307069
    15  H   -0.080655   0.209824
    16  H   -0.137251   0.300101
    17  H   -0.091012   0.264278
    18  H    0.151487  -0.025136
    19  H   -0.015030   0.177508
    20  H   -0.388798   0.574542
    21  H   -0.638775   0.778320
    22  H   -0.002549   0.160095
    23  H   -0.140701   0.342158
    24  H    0.090571   0.117139
    25  H    0.049711   0.143241
    26  H    0.162445  -0.042941
    27  H   -0.189595   0.385761
    28  H   -0.167769   0.342511
    29  H   -0.200654   0.356608
    30  H   -0.454185   0.663603
    31  H    0.325073  -0.014427
 Sum of Mulliken charges =  -1.00000   1.00000

 Dipole moment (field-independent basis, Debye):
    X=             -0.5396    Y=              1.6393    Z=              4.3305  Tot=              4.6617
 Quadrupole moment (field-independent basis, Debye-Ang):
   XX=           -152.2943   YY=           -126.2306   ZZ=           -118.9637
   XY=              1.2164   XZ=             -1.9315   YZ=             -3.6168

 Summary of Natural Population Analysis:

                                       Natural Population
                Natural  -----------------------------------------------
    Atom  No    Charge         Core      Valence    Rydberg      Total
 -----------------------------------------------------------------------
      C    1   -0.30640      0.99966     2.30190    0.00484     3.30640
      C    2   -0.01010      0.99958     1.99920    0.01131     3.01010
      O    3   -0.30213      0.99989     3.29246    0.00978     4.30213
      C    4   -0.01935      0.99956     2.00543    0.01435     3.01935
      C    5   -0.02266      0.99957     2.01075    0.01233     3.02266
      O    6   -0.31770      0.99987     3.30565    0.01218     4.31770
      C    7    0.04478      0.99952     1.94024    0.01546     2.95522
      C    8   -0.02250      0.99955     2.00970    0.01325     3.02250
      O    9   -0.29860      0.99989     3.28973    0.00898     4.29860
      C   10   -0.01086      0.99958     1.99850    0.01278     3.01086
      C   11   -0.21172      0.99961     2.20251    0.00960     3.21172
      C   12    0.05848      0.99954     1.92547    0.01651     2.94152
      O   13   -0.37876      0.99989     3.37269    0.00618     4.37876
      H   14    0.10010      0.00000     0.39865    0.00125     0.39990
      H   15    0.10128      0.00000     0.39761    0.00111     0.39872
      H   16    0.10180      0.00000     0.39654    0.00166     0.39820
      H   17    0.08509      0.00000     0.41351    0.00140     0.41491
      H   18    0.08123      0.00000     0.41684    0.00193     0.41877
      H   19    0.08500      0.00000     0.41324    0.00176     0.41500
      H   20    0.09538      0.00000     0.40296    0.00165     0.40462
      H   21    0.09047      0.00000     0.40633    0.00321     0.40953
      H   22    0.08266      0.00000     0.41580    0.00154     0.41734
      H   23    0.09153      0.00000     0.40579    0.00268     0.40847
      H   24    0.08251      0.00000     0.41573    0.00177     0.41749
      H   25    0.09247      0.00000     0.40604    0.00150     0.40753
      H   26    0.08239      0.00000     0.41625    0.00136     0.41761
      H   27    0.09100      0.00000     0.40778    0.00122     0.40900
      H   28    0.10613      0.00000     0.39271    0.00116     0.39387
      H   29    0.10472      0.00000     0.39348    0.00179     0.39528
      H   30    0.08752      0.00000     0.41036    0.00213     0.41248
      H   31    0.23623      0.00000     0.26014    0.00364     0.26377
 =======================================================================
   * Total *    0.00000     12.99571    38.82397    0.18032    52.00000

 Normal termination of Gaussian 16 at Sun Dec 13 20:28:10 2020.
