 Gaussian 16, Revision A.03,

 -----------------------------------------------------------
 # opt freq B3LYP/6-31G(d) empiricaldispersion=gd3bj scf=xqc
 -----------------------------------------------------------

 ------------------------------
 CID_54952708_JID_8493_neutraal
 ------------------------------
 Symbolic Z-matrix:
 Charge =  0 Multiplicity = 1

 SCF Done:  E(RB3LYP) =  -825.234957471     A.U. after   15 cycles
 SCF Done:  E(RB3LYP) =  -825.240630860     A.U. after   12 cycles
 SCF Done:  E(RB3LYP) =  -825.239721819     A.U. after   13 cycles
 SCF Done:  E(RB3LYP) =  -825.238708107     A.U. after   13 cycles
 SCF Done:  E(RB3LYP) =  -825.239902301     A.U. after   13 cycles
 SCF Done:  E(RB3LYP) =  -825.241277270     A.U. after   10 cycles
 SCF Done:  E(RB3LYP) =  -825.241501265     A.U. after   12 cycles
 SCF Done:  E(RB3LYP) =  -825.241837175     A.U. after   12 cycles
 SCF Done:  E(RB3LYP) =  -825.241898304     A.U. after   12 cycles
 SCF Done:  E(RB3LYP) =  -825.242024616     A.U. after   11 cycles
 SCF Done:  E(RB3LYP) =  -825.242064102     A.U. after    8 cycles
 SCF Done:  E(RB3LYP) =  -825.242064819     A.U. after    8 cycles
 SCF Done:  E(RB3LYP) =  -825.242064963     A.U. after    7 cycles
 SCF Done:  E(RB3LYP) =  -825.242065001     A.U. after    6 cycles
 SCF Done:  E(RB3LYP) =  -825.242065022     A.U. after    6 cycles
 Optimization completed.
    -- Stationary point found.
 Normal termination of Gaussian 16 at Fri Dec 11 20:23:48 2020.

 --------------------------------------------------------------------
 #N Geom=AllCheck Guess=TCheck SCRF=Check GenChk RB3LYP/6-31G(d) Freq
 --------------------------------------------------------------------

 Structure from the checkpoint file:  "JID_8493.chk"
 ------------------------------
 CID_54952708_JID_8493_neutraal
 ------------------------------
 Charge =  0 Multiplicity = 1

 SCF Done:  E(RB3LYP) =  -825.242065022     A.U. after    1 cycles

  Exact polarizability: 184.033  -2.478 146.654  -3.086  -1.099 144.653
 Approx polarizability: 239.858  -7.126 208.584 -12.724   5.441 229.397

                      1                      2                      3
                      A                      A                      A
 Frequencies --     28.3123                42.5700                53.8661
 Red. masses --      3.8347                 3.8420                 4.2126
 Frc consts  --      0.0018                 0.0041                 0.0072
 IR Inten    --      0.7643                 0.5035                 1.5186

                      4                      5                      6
                      A                      A                      A
 Frequencies --     55.4174                73.9662                76.3630
 Red. masses --      4.4031                 2.5192                 4.7652
 Frc consts  --      0.0080                 0.0081                 0.0164
 IR Inten    --      0.6490                 0.1899                 1.6983

                      7                      8                      9
                      A                      A                      A
 Frequencies --     93.6939               105.6183               154.5286
 Red. masses --      3.1896                 2.6036                 2.5818
 Frc consts  --      0.0165                 0.0171                 0.0363
 IR Inten    --      0.9308                 0.3358                 0.4322

                     10                     11                     12
                      A                      A                      A
 Frequencies --    170.6383               197.4196               220.7295
 Red. masses --      2.1773                 2.9965                 1.2770
 Frc consts  --      0.0374                 0.0688                 0.0367
 IR Inten    --      0.8586                 1.7564                 0.7525

                     13                     14                     15
                      A                      A                      A
 Frequencies --    226.9768               238.5567               247.0917
 Red. masses --      1.4304                 2.5750                 1.1599
 Frc consts  --      0.0434                 0.0863                 0.0417
 IR Inten    --      1.2919                 5.7667                 0.6774

                     16                     17                     18
                      A                      A                      A
 Frequencies --    276.8653               297.6081               305.5684
 Red. masses --      4.2271                 3.0686                 1.8610
 Frc consts  --      0.1909                 0.1601                 0.1024
 IR Inten    --      4.0684                 0.0955                 0.0965

                     19                     20                     21
                      A                      A                      A
 Frequencies --    336.4858               352.7374               372.7405
 Red. masses --      2.7322                 3.6482                 3.4774
 Frc consts  --      0.1823                 0.2674                 0.2847
 IR Inten    --     11.7910                 2.7014                 5.1971

                     22                     23                     24
                      A                      A                      A
 Frequencies --    385.5007               396.3689               398.8016
 Red. masses --      3.1308                 2.8429                 4.0420
 Frc consts  --      0.2741                 0.2632                 0.3788
 IR Inten    --      9.2532                 2.0990                13.9162

                     25                     26                     27
                      A                      A                      A
 Frequencies --    429.8043               457.7357               504.8566
 Red. masses --      3.4721                 2.1471                 2.8852
 Frc consts  --      0.3779                 0.2651                 0.4333
 IR Inten    --      0.3442                 3.6211                 2.3342

                     28                     29                     30
                      A                      A                      A
 Frequencies --    537.0342               562.8471               568.9067
 Red. masses --      2.1803                 1.6297                 3.2608
 Frc consts  --      0.3705                 0.3042                 0.6218
 IR Inten    --      4.8274                19.9096                 5.8336

                     31                     32                     33
                      A                      A                      A
 Frequencies --    628.0135               660.1366               696.7001
 Red. masses --      1.6110                 2.4982                 2.1300
 Frc consts  --      0.3744                 0.6414                 0.6091
 IR Inten    --     50.8243                37.6935               136.6967

                     34                     35                     36
                      A                      A                      A
 Frequencies --    706.8109               737.5559               764.3108
 Red. masses --      2.6730                 4.1716                 1.3644
 Frc consts  --      0.7868                 1.3370                 0.4696
 IR Inten    --      6.4724                40.5998                10.9102

                     37                     38                     39
                      A                      A                      A
 Frequencies --    772.5515               810.3080               844.9869
 Red. masses --      1.8596                 9.5070                 2.5169
 Frc consts  --      0.6539                 3.6778                 1.0588
 IR Inten    --     22.9655                 7.5192                15.7234

                     40                     41                     42
                      A                      A                      A
 Frequencies --    847.7194               873.4570               913.9659
 Red. masses --      1.6977                 2.9683                 1.8815
 Frc consts  --      0.7188                 1.3343                 0.9260
 IR Inten    --      7.1635                 3.0993                 4.9399

                     43                     44                     45
                      A                      A                      A
 Frequencies --    927.6347               946.3734               956.6192
 Red. masses --      2.1512                 1.1696                 2.2606
 Frc consts  --      1.0907                 0.6172                 1.2188
 IR Inten    --     12.3219                 2.2659                 9.5563

                     46                     47                     48
                      A                      A                      A
 Frequencies --    969.4005               976.2277               984.1565
 Red. masses --      1.7143                 1.8897                 1.4899
 Frc consts  --      0.9492                 1.0611                 0.8502
 IR Inten    --      5.1578                18.7410                 1.2032

                     49                     50                     51
                      A                      A                      A
 Frequencies --   1029.1400              1046.0251              1062.7572
 Red. masses --      2.6263                 2.2175                 1.7799
 Frc consts  --      1.6389                 1.4295                 1.1845
 IR Inten    --      0.3490                 4.6523                 0.7191

                     52                     53                     54
                      A                      A                      A
 Frequencies --   1067.1204              1075.5379              1088.5550
 Red. masses --      2.4277                 2.0726                 1.8107
 Frc consts  --      1.6288                 1.4126                 1.2642
 IR Inten    --     11.7026                 2.4847                 5.9924

                     55                     56                     57
                      A                      A                      A
 Frequencies --   1133.9362              1148.5575              1179.2893
 Red. masses --      1.9201                 1.8371                 3.7958
 Frc consts  --      1.4546                 1.4279                 3.1103
 IR Inten    --     11.9910                 7.8733                42.1120

                     58                     59                     60
                      A                      A                      A
 Frequencies --   1188.4703              1189.2409              1213.5970
 Red. masses --      2.4520                 2.1873                 2.0014
 Frc consts  --      2.0406                 1.8227                 1.7367
 IR Inten    --     12.4459                 2.8973                14.2451

                     61                     62                     63
                      A                      A                      A
 Frequencies --   1222.4071              1238.8006              1275.3744
 Red. masses --      1.9204                 1.6571                 1.4303
 Frc consts  --      1.6907                 1.4983                 1.3708
 IR Inten    --      3.3279                97.8146                70.5906

                     64                     65                     66
                      A                      A                      A
 Frequencies --   1294.6016              1302.0208              1332.0906
 Red. masses --      1.2556                 1.3791                 1.4205
 Frc consts  --      1.2399                 1.3775                 1.4851
 IR Inten    --      1.0389                35.3645                30.4441

                     67                     68                     69
                      A                      A                      A
 Frequencies --   1343.7795              1345.4545              1354.4072
 Red. masses --      1.2641                 1.2653                 1.2297
 Frc consts  --      1.3449                 1.3495                 1.3290
 IR Inten    --     14.0359                 2.5551                 1.1859

                     70                     71                     72
                      A                      A                      A
 Frequencies --   1374.4492              1378.8257              1390.3076
 Red. masses --      1.5360                 1.4602                 1.3443
 Frc consts  --      1.7096                 1.6356                 1.5309
 IR Inten    --     23.2265                19.6511                12.1192

                     73                     74                     75
                      A                      A                      A
 Frequencies --   1393.3967              1400.0762              1404.1633
 Red. masses --      1.3573                 1.5134                 1.2238
 Frc consts  --      1.5526                 1.7478                 1.4217
 IR Inten    --      3.4171                 9.6731                12.3741

                     76                     77                     78
                      A                      A                      A
 Frequencies --   1414.8730              1420.1720              1431.4736
 Red. masses --      1.8070                 1.3314                 1.3360
 Frc consts  --      2.1313                 1.5822                 1.6129
 IR Inten    --     49.7572                16.9892                16.1159

                     79                     80                     81
                      A                      A                      A
 Frequencies --   1435.7237              1444.1578              1456.7190
 Red. masses --      1.2717                 1.2476                 1.2341
 Frc consts  --      1.5444                 1.5330                 1.5430
 IR Inten    --      3.0229                 4.0637                 7.0827

                     82                     83                     84
                      A                      A                      A
 Frequencies --   1488.1039              1500.8337              1506.0213
 Red. masses --      1.6952                 1.2167                 1.2316
 Frc consts  --      2.2117                 1.6148                 1.6458
 IR Inten    --     50.3861                20.7181                14.9461

                     85                     86                     87
                      A                      A                      A
 Frequencies --   1508.1399              1511.4819              1516.0957
 Red. masses --      1.2593                 1.2956                 1.0950
 Frc consts  --      1.6876                 1.7439                 1.4829
 IR Inten    --     10.9311                13.6570                 9.6822

                     88                     89                     90
                      A                      A                      A
 Frequencies --   1519.3633              1521.3792              1526.0717
 Red. masses --      1.1617                 1.0634                 1.0591
 Frc consts  --      1.5800                 1.4502                 1.4533
 IR Inten    --      8.8947                 2.6435                 3.2676

                     91                     92                     93
                      A                      A                      A
 Frequencies --   1526.8807              1530.9040              1536.2903
 Red. masses --      1.0923                 1.0489                 1.0517
 Frc consts  --      1.5004                 1.4484                 1.4625
 IR Inten    --     13.3097                 4.2583                 9.6232

                     94                     95                     96
                      A                      A                      A
 Frequencies --   1541.8515              1545.3687              1546.2844
 Red. masses --      1.0582                 1.0679                 1.2867
 Frc consts  --      1.4822                 1.5027                 1.8126
 IR Inten    --      5.6853                14.4830                29.0495

                     97                     98                     99
                      A                      A                      A
 Frequencies --   1725.3366              1762.0239              3031.5761
 Red. masses --     10.4531                 8.1929                 1.0636
 Frc consts  --     18.3334                14.9869                 5.7595
 IR Inten    --    406.7262               342.0284                17.1673

                    100                    101                    102
                      A                      A                      A
 Frequencies --   3039.0148              3042.2398              3043.1310
 Red. masses --      1.0661                 1.0610                 1.0560
 Frc consts  --      5.8011                 5.7859                 5.7619
 IR Inten    --      6.3167                69.8372                 7.6569

                    103                    104                    105
                      A                      A                      A
 Frequencies --   3047.7267              3048.0535              3051.2496
 Red. masses --      1.0610                 1.0579                 1.0417
 Frc consts  --      5.8068                 5.7908                 5.7144
 IR Inten    --     38.5970                16.9390                46.1705

                    106                    107                    108
                      A                      A                      A
 Frequencies --   3055.3932              3055.6640              3066.1337
 Red. masses --      1.0677                 1.0398                 1.0990
 Frc consts  --      5.8726                 5.7204                 6.0874
 IR Inten    --     24.5861                26.5932                 3.5848

                    109                    110                    111
                      A                      A                      A
 Frequencies --   3078.5038              3084.6783              3092.4718
 Red. masses --      1.0995                 1.0877                 1.0902
 Frc consts  --      6.1394                 6.0978                 6.1427
 IR Inten    --     32.1847                13.3625                32.1151

                    112                    113                    114
                      A                      A                      A
 Frequencies --   3097.7915              3104.0630              3114.3904
 Red. masses --      1.0960                 1.0978                 1.1009
 Frc consts  --      6.1967                 6.2321                 6.2913
 IR Inten    --    111.2852                20.0077                26.9809

                    115                    116                    117
                      A                      A                      A
 Frequencies --   3116.5223              3121.0059              3126.1378
 Red. masses --      1.1015                 1.1017                 1.1010
 Frc consts  --      6.3033                 6.3229                 6.3396
 IR Inten    --     54.0232                45.7266                35.6454

                    118                    119                    120
                      A                      A                      A
 Frequencies --   3131.9368              3142.4810              3149.9605
 Red. masses --      1.0870                 1.0977                 1.1003
 Frc consts  --      6.2820                 6.3866                 6.4325
 IR Inten    --     11.8394                 7.7395                10.7932

                    121                    122                    123
                      A                      A                      A
 Frequencies --   3163.2662              3504.3887              3571.1642
 Red. masses --      1.0972                 1.0738                 1.0746
 Frc consts  --      6.4688                 7.7694                 8.0743
 IR Inten    --      1.8685                 0.9805                17.2546

 - Thermochemistry -
 -------------------
 Temperature   298.150 Kelvin.  Pressure   1.00000 Atm.
 Atom     1 has atomic number  6 and mass  12.00000

 Molecular mass:   255.19468 amu.
 Principal axes and moments of inertia in atomic units:
                           1         2         3
     Eigenvalues --  2919.345126297.715757091.66254
           X            0.99997  -0.00634  -0.00467
           Y            0.00617   0.99934  -0.03588
           Z            0.00489   0.03585   0.99935
 This molecule is an asymmetric top.
 Rotational symmetry number  1.
 Warning -- assumption of classical behavior for rotation
           may cause significant error
 Rotational temperatures (Kelvin)      0.02967     0.01375     0.01221
 Rotational constants (GHZ):           0.61820     0.28657     0.25449
 Zero-point vibrational energy    1014752.8 (Joules/Mol)
                                  242.53173 (Kcal/Mol)
 Warning -- explicit consideration of  30 degrees of freedom as
           vibrations may cause significant error
 Vibrational temperatures:     40.74    61.25    77.50    79.73   106.42
          (Kelvin)            109.87   134.80   151.96   222.33   245.51
                              284.04   317.58   326.57   343.23   355.51
                              398.35   428.19   439.64   484.13   507.51
                              536.29   554.65   570.29   573.79   618.39
                              658.58   726.38   772.67   809.81   818.53
                              903.57   949.79  1002.40  1016.94  1061.18
                             1099.67  1111.53  1165.85  1215.75  1219.68
                             1256.71  1314.99  1334.66  1361.62  1376.36
                             1394.75  1404.57  1415.98  1480.70  1505.00
                             1529.07  1535.35  1547.46  1566.19  1631.48
                             1652.52  1696.73  1709.94  1711.05  1746.10
                             1758.77  1782.36  1834.98  1862.64  1873.32
                             1916.58  1933.40  1935.81  1948.69  1977.53
                             1983.82  2000.34  2004.79  2014.40  2020.28
                             2035.69  2043.31  2059.57  2065.69  2077.82
                             2095.89  2141.05  2159.36  2166.83  2169.88
                             2174.69  2181.32  2186.02  2188.93  2195.68
                             2196.84  2202.63  2210.38  2218.38  2223.44
                             2224.76  2482.37  2535.16  4361.76  4372.46
                             4377.10  4378.39  4385.00  4385.47  4390.07
                             4396.03  4396.42  4411.48  4429.28  4438.16
                             4449.38  4457.03  4466.05  4480.91  4483.98
                             4490.43  4497.82  4506.16  4521.33  4532.09
                             4551.23  5042.03  5138.11

 Zero-point correction=                           0.386499 (Hartree/Particle)
 Thermal correction to Energy=                    0.406118
 Thermal correction to Enthalpy=                  0.407062
 Thermal correction to Gibbs Free Energy=         0.338036
 Sum of electronic and zero-point Energies=           -824.855566
 Sum of electronic and thermal Energies=              -824.835947
 Sum of electronic and thermal Enthalpies=            -824.835003
 Sum of electronic and thermal Free Energies=         -824.904029

                     E (Thermal)             CV                S
                      KCal/Mol        Cal/Mol-Kelvin    Cal/Mol-Kelvin
 Total                  254.843             74.006            145.277
 Electronic               0.000              0.000              0.000
 Translational            0.889              2.981             42.511
 Rotational               0.889              2.981             33.233
 Vibrational            253.065             68.044             69.534
 Vibration     1          0.593              1.984              5.944
 Vibration     2          0.595              1.980              5.136
 Vibration     3          0.596              1.976              4.670
 Vibration     4          0.596              1.975              4.614
 Vibration     5          0.599              1.966              4.045
 Vibration     6          0.599              1.965              3.982
 Vibration     7          0.603              1.954              3.581
 Vibration     8          0.605              1.945              3.348
 Vibration     9          0.620              1.898              2.616
 Vibration    10          0.626              1.879              2.428
 Vibration    11          0.637              1.843              2.157
 Vibration    12          0.647              1.810              1.953
 Vibration    13          0.651              1.800              1.903
 Vibration    14          0.657              1.782              1.814
 Vibration    15          0.661              1.768              1.751
 Vibration    16          0.678              1.716              1.553
 Vibration    17          0.691              1.678              1.430
 Vibration    18          0.696              1.663              1.386
 Vibration    19          0.717              1.603              1.229
 Vibration    20          0.729              1.570              1.154
 Vibration    21          0.744              1.528              1.068
 Vibration    22          0.754              1.501              1.018
 Vibration    23          0.763              1.478              0.976
 Vibration    24          0.765              1.473              0.967
 Vibration    25          0.791              1.405              0.859
 Vibration    26          0.816              1.344              0.773
 Vibration    27          0.860              1.239              0.646
 Vibration    28          0.892              1.168              0.572
 Vibration    29          0.919              1.112              0.518
 Vibration    30          0.925              1.099              0.506

                           ! Non-Optimized Parameters !
 Normal termination of Gaussian 16 at Fri Dec 11 20:46:07 2020.

 ----------------------------------------------------------------------
 # B3LYP/6-311++G(d,p) empiricaldispersion=gd3bj scf=xqc pop=npa geom=c
 heck
 ----------------------------------------------------------------------

 --------------------------------------
 CID_54952708_JID_8493_Energie_neutraal
 --------------------------------------
 Structure from the checkpoint file:  "JID_8493.chk"
 Charge =  0 Multiplicity = 1

 SCF Done:  E(RB3LYP) =  -825.481906844     A.U. after   14 cycles
 Normal termination of Gaussian 16 at Fri Dec 11 20:55:19 2020.

 ----------------------------------------------------------------------
 # B3LYP/6-311++G(d,p) empiricaldispersion=gd3bj scf=xqc pop=npa geom=c
 heck
 ----------------------------------------------------------------------

 ------------------------------------
 CID_54952708_JID_8493_Energie_kation
 ------------------------------------
 Structure from the checkpoint file:  "JID_8493.chk"
 Charge =  1 Multiplicity = 2

 SCF Done:  E(UB3LYP) =  -825.186096110     A.U. after   27 cycles
 Normal termination of Gaussian 16 at Fri Dec 11 21:19:15 2020.
 Gaussian 16:  ES64L-G16RevA.03 25-Dec-2016

 ----------------------------------------------------------------------
 # B3LYP/6-311++G(d,p) empiricaldispersion=gd3bj scf=xqc pop=npa geom=c
 heck
 ----------------------------------------------------------------------

 -----------------------------------
 CID_54952708_JID_8493_Energie_anion
 -----------------------------------
 Structure from the checkpoint file:  "JID_8493.chk"
 Charge = -1 Multiplicity = 2

                         Standard orientation:
 ---------------------------------------------------------------------
 Center     Atomic      Atomic             Coordinates (Angstroms)
 Number     Number       Type             X           Y           Z
 ---------------------------------------------------------------------
      1          6           0       -2.103507    2.949253    0.264804
      2          6           0       -1.754849    1.772630   -0.649625
      3          6           0       -1.809213    0.401993    0.048157
      4          6           0       -3.181477    0.049519    0.674714
      5          6           0       -4.339661    0.108910   -0.330617
      6          6           0       -3.133991   -1.315060    1.373561
      7          7           0       -1.380928   -0.637205   -0.892394
      8          6           0       -0.293085   -1.446962   -0.855135
      9          8           0       -0.071187   -2.300645   -1.710285
     10          6           0        0.649071   -1.281707    0.350771
     11          8           0        0.217432   -1.419448    1.497202
     12          7           0        1.957720   -1.053686    0.068078
     13          6           0        2.451430   -0.682384   -1.261589
     14          6           0        2.199314    0.791419   -1.626772
     15          6           0        2.279863    1.774831   -0.437158
     16          7           0        3.322358    1.561394    0.563740
     17          6           0        3.013379    0.593774    1.610298
     18          6           0        2.884968   -0.879304    1.186660
     19          1           0       -3.151433    2.925112    0.580847
     20          1           0       -1.934297    3.901989   -0.247814
     21          1           0       -1.482621    2.942242    1.168974
     22          1           0       -2.416464    1.769732   -1.525593
     23          1           0       -0.738625    1.902973   -1.040577
     24          1           0       -1.081018    0.398902    0.860900
     25          1           0       -3.364563    0.813561    1.441797
     26          1           0       -4.203237   -0.614914   -1.144732
     27          1           0       -5.282756   -0.146083    0.164472
     28          1           0       -4.458177    1.101863   -0.777020
     29          1           0       -2.270988   -1.392873    2.039818
     30          1           0       -4.049692   -1.479359    1.952630
     31          1           0       -3.050610   -2.125513    0.640900
     32          1           0       -1.984628   -0.828959   -1.684821
     33          1           0        2.005901   -1.347126   -2.001424
     34          1           0        3.526412   -0.883360   -1.248894
     35          1           0        2.925328    1.074739   -2.400387
     36          1           0        1.208000    0.895051   -2.087167
     37          1           0        2.383513    2.790242   -0.842421
     38          1           0        1.327460    1.761566    0.105619
     39          1           0        4.224216    1.372404    0.132211
     40          1           0        2.066107    0.900361    2.069164
     41          1           0        3.783080    0.666271    2.389448
     42          1           0        2.523445   -1.479765    2.023995
     43          1           0        3.858188   -1.273312    0.870376
 ---------------------------------------------------------------------

 SCF Done:  E(UB3LYP) =  -825.471890122     A.U. after   33 cycles
 SCF Done:  E(UB3LYP) =  -825.471890122     a.u. after    1 cycles

 The electronic state is 2-A.
 Alpha  occ. eigenvalues --  -18.99369 -18.98973 -14.24663 -14.24482 -14.20291
 Alpha  occ. eigenvalues --  -10.17627 -10.16947 -10.12173 -10.10677 -10.10347
 Alpha  occ. eigenvalues --  -10.10325 -10.10029 -10.08851 -10.08680 -10.08065
 Alpha  occ. eigenvalues --  -10.07746 -10.07326 -10.06062  -0.95548  -0.92999
 Alpha  occ. eigenvalues --   -0.84935  -0.83620  -0.80481  -0.72183  -0.69263
 Alpha  occ. eigenvalues --   -0.68144  -0.63733  -0.60493  -0.59699  -0.59468
 Alpha  occ. eigenvalues --   -0.57026  -0.52777  -0.52328  -0.50231  -0.48188
 Alpha  occ. eigenvalues --   -0.45207  -0.42121  -0.40450  -0.39158  -0.38673
 Alpha  occ. eigenvalues --   -0.37860  -0.37629  -0.37135  -0.35756  -0.34903
 Alpha  occ. eigenvalues --   -0.33901  -0.33486  -0.32875  -0.32440  -0.31502
 Alpha  occ. eigenvalues --   -0.31028  -0.30046  -0.29955  -0.29257  -0.28802
 Alpha  occ. eigenvalues --   -0.28280  -0.27877  -0.27291  -0.26765  -0.25870
 Alpha  occ. eigenvalues --   -0.25468  -0.24794  -0.24642  -0.23795  -0.23566
 Alpha  occ. eigenvalues --   -0.19852  -0.16406  -0.15712  -0.14218  -0.12580
 Alpha  occ. eigenvalues --    0.04073
 Alpha virt. eigenvalues --    0.05145   0.06703   0.06897   0.07179   0.07762
 Alpha virt. eigenvalues --    0.08407   0.09099   0.09637   0.09986   0.10185
 Alpha virt. eigenvalues --    0.10640   0.10724   0.11049   0.12047   0.12580

  Beta  occ. eigenvalues --  -18.99307 -18.98866 -14.24676 -14.24471 -14.20264
  Beta  occ. eigenvalues --  -10.17549 -10.16849 -10.12174 -10.10661 -10.10346
  Beta  occ. eigenvalues --  -10.10310 -10.10018 -10.08847 -10.08676 -10.08046
  Beta  occ. eigenvalues --  -10.07735 -10.07292 -10.06056  -0.95384  -0.92847
  Beta  occ. eigenvalues --   -0.84889  -0.83567  -0.80435  -0.72156  -0.69238
  Beta  occ. eigenvalues --   -0.68123  -0.63627  -0.60446  -0.59669  -0.59430
  Beta  occ. eigenvalues --   -0.56879  -0.52734  -0.52254  -0.50180  -0.48150
  Beta  occ. eigenvalues --   -0.45119  -0.42059  -0.40396  -0.39118  -0.38623
  Beta  occ. eigenvalues --   -0.37775  -0.37584  -0.37098  -0.35663  -0.34864
  Beta  occ. eigenvalues --   -0.33835  -0.33428  -0.32709  -0.32410  -0.31427
  Beta  occ. eigenvalues --   -0.30931  -0.29991  -0.29854  -0.29205  -0.28717
  Beta  occ. eigenvalues --   -0.28178  -0.27824  -0.27253  -0.26733  -0.25713
  Beta  occ. eigenvalues --   -0.25430  -0.24752  -0.24612  -0.23749  -0.23502
  Beta  occ. eigenvalues --   -0.19730  -0.16261  -0.15548  -0.14100  -0.12514
  Beta virt. eigenvalues --    0.05899   0.06644   0.07157   0.07368   0.07836
  Beta virt. eigenvalues --    0.08288   0.08833   0.09392   0.09795   0.10077
  Beta virt. eigenvalues --    0.10515   0.10904   0.11001   0.11261   0.12159

 Mulliken charges and spin densities:
               1          2
     1  C   -0.165199  -0.502708
     2  C   -0.162722   0.034183
     3  C    0.068618  -0.267859
     4  C   -0.715041   0.949257
     5  C    0.580398  -1.258292
     6  C   -0.365648  -0.321618
     7  N    0.038675   0.010208
     8  C    0.015658  -0.114051
     9  O   -0.286177   0.033584
    10  C   -0.506110   0.075483
    11  O   -0.260310   0.032669
    12  N    0.178858   0.033015
    13  C    0.139826  -0.571609
    14  C   -0.145666   0.084283
    15  C    0.135476  -0.704735
    16  N   -0.118913   0.025954
    17  C   -0.090269  -0.272615
    18  C    0.254207  -0.342128
    19  H   -0.114268   0.275482
    20  H    0.049941   0.094528
    21  H    0.084404   0.052464
    22  H    0.197927  -0.038239
    23  H    0.114596   0.017760
    24  H    0.267797  -0.008806
    25  H    0.020797   0.152337
    26  H   -0.007156   0.131250
    27  H   -0.318629   0.474284
    28  H   -0.213697   0.356791
    29  H    0.186055  -0.015177
    30  H    0.014828   0.134271
    31  H    0.137671   0.022495
    32  H    0.271067   0.031317
    33  H    0.203890   0.011506
    34  H   -0.312148   0.492279
    35  H   -0.403880   0.597854
    36  H    0.165911  -0.006574
    37  H    0.127310   0.056207
    38  H    0.216936   0.006013
    39  H   -0.060038   0.304301
    40  H    0.217711  -0.039394
    41  H   -0.304485   0.486548
    42  H    0.178388  -0.010293
    43  H   -0.316591   0.497777
 Sum of Mulliken charges =  -1.00000   1.00000

 Dipole moment (field-independent basis, Debye):
    X=             -2.9088    Y=              1.2742    Z=              0.0286  Tot=              3.1758
 Quadrupole moment (field-independent basis, Debye-Ang):
   XX=           -220.4601   YY=           -154.9835   ZZ=           -145.1470
   XY=              1.3428   XZ=              4.3213   YZ=             -3.9499

 Summary of Natural Population Analysis:

                                       Natural Population
                Natural  -----------------------------------------------
    Atom  No    Charge         Core      Valence    Rydberg      Total
 -----------------------------------------------------------------------
      C    1   -0.28841      0.99966     2.28362    0.00512     3.28841
      C    2   -0.19314      0.99961     2.18552    0.00800     3.19314
      C    3   -0.01259      0.99955     2.00035    0.01269     3.01259
      C    4   -0.11581      0.99959     2.10655    0.00966     3.11581
      C    5   -0.28968      0.99965     2.28366    0.00637     3.28968
      C    6   -0.28881      0.99965     2.28306    0.00611     3.28881
      N    7   -0.31155      0.99966     2.80179    0.01011     3.81155
      C    8    0.31944      0.99963     1.65726    0.02367     2.68056
      O    9   -0.31842      0.99988     3.31319    0.00535     4.31842
      C   10    0.32105      0.99959     1.65627    0.02310     2.67895
      O   11   -0.31969      0.99988     3.31497    0.00484     4.31969
      N   12   -0.24997      0.99964     2.73926    0.01106     3.74997
      C   13   -0.09244      0.99960     2.08133    0.01151     3.09244
      C   14   -0.20652      0.99962     2.19862    0.00829     3.20652
      C   15   -0.09097      0.99962     2.07922    0.01213     3.09097
      N   16   -0.34150      0.99975     2.82950    0.01225     3.84150
      C   17   -0.09222      0.99961     2.08066    0.01195     3.09222
      C   18   -0.09467      0.99960     2.08351    0.01155     3.09467
      H   19    0.10008      0.00000     0.39889    0.00103     0.39992
      H   20    0.09958      0.00000     0.39977    0.00065     0.40042
      H   21    0.09745      0.00000     0.40180    0.00075     0.40255
      H   22    0.09518      0.00000     0.40381    0.00101     0.40482
      H   23    0.09955      0.00000     0.39920    0.00125     0.40045
      H   24    0.11155      0.00000     0.38661    0.00185     0.38845
      H   25    0.09728      0.00000     0.40107    0.00165     0.40272
      H   26    0.09302      0.00000     0.40582    0.00116     0.40698
      H   27    0.10349      0.00000     0.39545    0.00106     0.39651
      H   28    0.10039      0.00000     0.39857    0.00104     0.39961
      H   29    0.11401      0.00000     0.38521    0.00077     0.38599
      H   30    0.09518      0.00000     0.40415    0.00066     0.40482
      H   31    0.09875      0.00000     0.40040    0.00085     0.40125
      H   32    0.19180      0.00000     0.30631    0.00189     0.30820
      H   33    0.11714      0.00000     0.38170    0.00115     0.38286
      H   34    0.09956      0.00000     0.39870    0.00175     0.40044
      H   35    0.09925      0.00000     0.39916    0.00159     0.40075
      H   36    0.09767      0.00000     0.40125    0.00108     0.40233
      H   37    0.09242      0.00000     0.40668    0.00090     0.40758
      H   38    0.09039      0.00000     0.40821    0.00139     0.40961
      H   39    0.17628      0.00000     0.31846    0.00527     0.32372
      H   40    0.09296      0.00000     0.40594    0.00109     0.40704
      H   41    0.09613      0.00000     0.40293    0.00094     0.40387
      H   42    0.11122      0.00000     0.38773    0.00104     0.38878
      H   43    0.09555      0.00000     0.40251    0.00194     0.40445
 =======================================================================
   * Total *    0.00000     17.99382    51.77866    0.22752    70.00000

 Normal termination of Gaussian 16 at Fri Dec 11 21:47:15 2020.
