 Gaussian 16, Revision A.03,

 -----------------------------------------------------------
 # opt freq B3LYP/6-31G(d) empiricaldispersion=gd3bj scf=xqc
 -----------------------------------------------------------

 --------------------------------
 CID_137192196_JID_10554_neutraal
 --------------------------------
 Symbolic Z-matrix:
 Charge =  0 Multiplicity = 1

 SCF Done:  E(RB3LYP) =  -948.359644717     A.U. after   14 cycles
 SCF Done:  E(RB3LYP) =  -948.371272956     A.U. after   12 cycles
 SCF Done:  E(RB3LYP) =  -948.372809866     A.U. after   11 cycles
 SCF Done:  E(RB3LYP) =  -948.373305256     A.U. after   12 cycles
 SCF Done:  E(RB3LYP) =  -948.373719424     A.U. after   12 cycles
 SCF Done:  E(RB3LYP) =  -948.373965009     A.U. after   11 cycles
 SCF Done:  E(RB3LYP) =  -948.374119930     A.U. after   11 cycles
 SCF Done:  E(RB3LYP) =  -948.374168848     A.U. after   10 cycles
 SCF Done:  E(RB3LYP) =  -948.374194625     A.U. after   10 cycles
 SCF Done:  E(RB3LYP) =  -948.374217269     A.U. after   10 cycles
 SCF Done:  E(RB3LYP) =  -948.374238752     A.U. after   10 cycles
 SCF Done:  E(RB3LYP) =  -948.374240416     A.U. after    9 cycles
 SCF Done:  E(RB3LYP) =  -948.374240803     A.U. after    7 cycles
 SCF Done:  E(RB3LYP) =  -948.374241008     A.U. after    7 cycles
 SCF Done:  E(RB3LYP) =  -948.374241101     A.U. after    7 cycles
 Optimization completed.
    -- Stationary point found.
 Normal termination of Gaussian 16 at Sat Dec 12 16:00:08 2020.

 --------------------------------------------------------------------
 #N Geom=AllCheck Guess=TCheck SCRF=Check GenChk RB3LYP/6-31G(d) Freq
 --------------------------------------------------------------------

 Structure from the checkpoint file:  "JID_10554.chk"
 --------------------------------
 CID_137192196_JID_10554_neutraal
 --------------------------------
 Charge =  0 Multiplicity = 1

 SCF Done:  E(RB3LYP) =  -948.374241101     A.U. after    1 cycles

  Exact polarizability: 197.117   1.033 153.440  -3.641   7.201 135.559
 Approx polarizability: 240.828  -2.843 240.738  -4.976  26.878 218.535

                      1                      2                      3
                      A                      A                      A
 Frequencies --     20.2192                25.7812                35.4979
 Red. masses --      4.8764                 5.1455                 6.8325
 Frc consts  --      0.0012                 0.0020                 0.0051
 IR Inten    --      2.3012                 3.6591                 1.2236

                      4                      5                      6
                      A                      A                      A
 Frequencies --     46.7741                50.2151                81.7562
 Red. masses --      4.7389                 4.0604                 4.0798
 Frc consts  --      0.0061                 0.0060                 0.0161
 IR Inten    --      0.4214                 1.9631                 0.0507

                      7                      8                      9
                      A                      A                      A
 Frequencies --    116.4625               149.4057               169.0432
 Red. masses --      4.8902                 4.3439                 3.9156
 Frc consts  --      0.0391                 0.0571                 0.0659
 IR Inten    --      4.4085                 3.3651                 2.4182

                     10                     11                     12
                      A                      A                      A
 Frequencies --    197.4574               216.9746               242.0846
 Red. masses --      5.1810                 4.1430                 3.4334
 Frc consts  --      0.1190                 0.1149                 0.1186
 IR Inten    --      5.0827                13.1549                 1.1770

                     13                     14                     15
                      A                      A                      A
 Frequencies --    245.6876               248.3840               269.2675
 Red. masses --      2.5491                 1.9685                 2.8834
 Frc consts  --      0.0907                 0.0716                 0.1232
 IR Inten    --      1.8634                 0.4522                13.0434

                     16                     17                     18
                      A                      A                      A
 Frequencies --    306.8838               335.1617               369.8470
 Red. masses --      3.6310                 2.7006                 2.2259
 Frc consts  --      0.2015                 0.1787                 0.1794
 IR Inten    --      3.1025                18.8236                 2.7400

                     19                     20                     21
                      A                      A                      A
 Frequencies --    401.0968               448.7207               458.7148
 Red. masses --      1.9456                 1.8604                 2.9655
 Frc consts  --      0.1844                 0.2207                 0.3676
 IR Inten    --      0.0900                 0.2193                 2.1199

                     22                     23                     24
                      A                      A                      A
 Frequencies --    472.6186               484.6597               500.0492
 Red. masses --      2.7304                 4.0780                 1.9266
 Frc consts  --      0.3593                 0.5644                 0.2838
 IR Inten    --     11.6021                 8.6504                31.7156

                     25                     26                     27
                      A                      A                      A
 Frequencies --    507.6946               530.9590               555.8267
 Red. masses --      1.4126                 3.4701                 1.4662
 Frc consts  --      0.2145                 0.5764                 0.2669
 IR Inten    --    170.8707                22.6545               137.6755

                     28                     29                     30
                      A                      A                      A
 Frequencies --    588.0091               658.6764               719.9916
 Red. masses --      2.6372                 2.8895                 6.4393
 Frc consts  --      0.5372                 0.7386                 1.9667
 IR Inten    --      5.3509                 0.9499                 0.5204

                     31                     32                     33
                      A                      A                      A
 Frequencies --    727.7805               734.3325               754.4685
 Red. masses --      5.0550                 3.0763                 7.2311
 Frc consts  --      1.5775                 0.9774                 2.4251
 IR Inten    --     15.6356                42.9187                 3.3183

                     34                     35                     36
                      A                      A                      A
 Frequencies --    756.1138               761.3143               781.5687
 Red. masses --      4.1954                 3.8480                 3.8546
 Frc consts  --      1.4132                 1.3141                 1.3873
 IR Inten    --      8.4757                21.1401                49.3692

                     37                     38                     39
                      A                      A                      A
 Frequencies --    806.2677               834.9301               880.8339
 Red. masses --      2.9267                 1.5050                 2.9215
 Frc consts  --      1.1210                 0.6181                 1.3355
 IR Inten    --      3.4369                 0.6442                 2.7925

                     40                     41                     42
                      A                      A                      A
 Frequencies --    916.3893               923.3667               936.6033
 Red. masses --      2.2192                 1.7064                 2.1809
 Frc consts  --      1.0980                 0.8572                 1.1272
 IR Inten    --      2.4436                 4.8177                 0.6259

                     43                     44                     45
                      A                      A                      A
 Frequencies --    958.0353               970.2744              1004.0427
 Red. masses --      2.2789                 1.9964                 3.0975
 Frc consts  --      1.2324                 1.1073                 1.8398
 IR Inten    --      3.0133                 2.8678                 1.3908

                     46                     47                     48
                      A                      A                      A
 Frequencies --   1011.4005              1019.5623              1030.7239
 Red. masses --      1.5365                 3.4166                 2.7904
 Frc consts  --      0.9261                 2.0925                 1.7467
 IR Inten    --      2.6681                33.5920                 8.8373

                     49                     50                     51
                      A                      A                      A
 Frequencies --   1052.3835              1059.5178              1082.2409
 Red. masses --      2.2471                 2.2896                 3.2467
 Frc consts  --      1.4663                 1.5144                 2.2405
 IR Inten    --      8.6273                29.0218                20.4658

                     52                     53                     54
                      A                      A                      A
 Frequencies --   1093.5720              1112.5108              1133.2310
 Red. masses --      2.1415                 2.8954                 2.4299
 Frc consts  --      1.5089                 2.1114                 1.8386
 IR Inten    --     10.7905                 2.2714                25.9062

                     55                     56                     57
                      A                      A                      A
 Frequencies --   1136.7978              1144.6287              1183.3483
 Red. masses --      2.5189                 1.7945                 2.1377
 Frc consts  --      1.9179                 1.3852                 1.7637
 IR Inten    --     26.6386                 4.1445                40.0957

                     58                     59                     60
                      A                      A                      A
 Frequencies --   1187.0571              1207.0177              1225.9641
 Red. masses --      1.4819                 1.6155                 1.3184
 Frc consts  --      1.2303                 1.3867                 1.1675
 IR Inten    --     11.2169                 6.1990                 0.6034

                     61                     62                     63
                      A                      A                      A
 Frequencies --   1247.2915              1257.6558              1258.6281
 Red. masses --      1.5084                 2.4044                 1.5987
 Frc consts  --      1.3826                 2.2407                 1.4922
 IR Inten    --      7.2168                11.7130                23.6600

                     64                     65                     66
                      A                      A                      A
 Frequencies --   1279.0488              1283.7512              1302.1191
 Red. masses --      1.5686                 2.6776                 1.5040
 Frc consts  --      1.5120                 2.5999                 1.5024
 IR Inten    --     34.1313                37.4994                 3.1194

                     67                     68                     69
                      A                      A                      A
 Frequencies --   1307.9038              1316.9013              1329.3938
 Red. masses --      2.0793                 1.4047                 1.3171
 Frc consts  --      2.0956                 1.4353                 1.3714
 IR Inten    --     86.5359                11.8018                 7.1558

                     70                     71                     72
                      A                      A                      A
 Frequencies --   1341.1558              1359.4777              1364.6322
 Red. masses --      1.2719                 1.4535                 1.4103
 Frc consts  --      1.3479                 1.5827                 1.5474
 IR Inten    --      6.8534                30.8480                12.2694

                     73                     74                     75
                      A                      A                      A
 Frequencies --   1371.9615              1388.5551              1397.5425
 Red. masses --      1.4449                 1.3500                 1.4327
 Frc consts  --      1.6024                 1.5336                 1.6486
 IR Inten    --     13.3466                 0.3610                18.3375

                     76                     77                     78
                      A                      A                      A
 Frequencies --   1398.9090              1410.1644              1416.8281
 Red. masses --      1.5681                 1.4277                 1.5950
 Frc consts  --      1.8081                 1.6727                 1.8864
 IR Inten    --      5.2054                74.2207                 9.7348

                     79                     80                     81
                      A                      A                      A
 Frequencies --   1423.2019              1444.1795              1448.3867
 Red. masses --      1.3693                 1.4723                 1.6006
 Frc consts  --      1.6341                 1.8092                 1.9783
 IR Inten    --     25.9047                20.2744                21.4520

                     82                     83                     84
                      A                      A                      A
 Frequencies --   1467.8525              1487.3498              1502.6272
 Red. masses --      1.9139                 3.8864                 1.0961
 Frc consts  --      2.4296                 5.0655                 1.4582
 IR Inten    --    105.3150                53.0774                 1.2166

                     85                     86                     87
                      A                      A                      A
 Frequencies --   1509.6089              1516.4851              1521.2189
 Red. masses --      1.0952                 1.1114                 1.1160
 Frc consts  --      1.4706                 1.5059                 1.5217
 IR Inten    --     21.6934                 9.3502                 4.2306

                     88                     89                     90
                      A                      A                      A
 Frequencies --   1527.9593              1541.8599              1552.5373
 Red. masses --      1.0893                 1.1099                 1.1508
 Frc consts  --      1.4984                 1.5546                 1.6343
 IR Inten    --      2.4603                 7.0000                24.1179

                     91                     92                     93
                      A                      A                      A
 Frequencies --   1556.6650              1653.8233              1825.2839
 Red. masses --      1.1019                 7.4425                 9.6109
 Frc consts  --      1.5732                11.9936                18.8657
 IR Inten    --      5.0209                34.9680               359.1041

                     94                     95                     96
                      A                      A                      A
 Frequencies --   1864.2237              2899.1305              2952.9923
 Red. masses --      9.7721                 1.0729                 1.0723
 Frc consts  --     20.0093                 5.3128                 5.5093
 IR Inten    --    768.7603                69.3043                70.6895

                     97                     98                     99
                      A                      A                      A
 Frequencies --   3001.3008              3008.7500              3016.2464
 Red. masses --      1.0722                 1.0709                 1.0695
 Frc consts  --      5.6906                 5.7120                 5.7328
 IR Inten    --     38.1927                41.9361                65.8041

                    100                    101                    102
                      A                      A                      A
 Frequencies --   3031.9036              3046.2967              3047.3569
 Red. masses --      1.0731                 1.0624                 1.0667
 Frc consts  --      5.8120                 5.8089                 5.8362
 IR Inten    --     81.1139                16.2612                13.5743

                    103                    104                    105
                      A                      A                      A
 Frequencies --   3058.8241              3071.7397              3093.0778
 Red. masses --      1.0779                 1.0850                 1.0928
 Frc consts  --      5.9420                 6.0318                 6.1601
 IR Inten    --     24.2356                48.6498                 6.5756

                    106                    107                    108
                      A                      A                      A
 Frequencies --   3095.7252              3097.6510              3099.6727
 Red. masses --      1.1030                 1.0926                 1.1035
 Frc consts  --      6.2281                 6.1767                 6.2467
 IR Inten    --     23.1744                36.2822                46.8465

                    109                    110                    111
                      A                      A                      A
 Frequencies --   3113.3323              3113.8497              3149.6526
 Red. masses --      1.0953                 1.0899                 1.0927
 Frc consts  --      6.2554                 6.2262                 6.3867
 IR Inten    --     43.8089                13.6392                 8.3335

                    112                    113                    114
                      A                      A                      A
 Frequencies --   3621.8950              3680.2082              3695.7030
 Red. masses --      1.0773                 1.0807                 1.0815
 Frc consts  --      8.3267                 8.6236                 8.7031
 IR Inten    --     26.5817                53.0029                83.9421

 - Thermochemistry -
 -------------------
 Temperature   298.150 Kelvin.  Pressure   1.00000 Atm.
 Atom     1 has atomic number  6 and mass  12.00000

 Molecular mass:   280.16477 amu.
 Principal axes and moments of inertia in atomic units:
                           1         2         3
     Eigenvalues --  2143.05507********************
           X            0.99998  -0.00354  -0.00505
           Y            0.00343   0.99975  -0.02221
           Z            0.00513   0.02219   0.99974
 This molecule is an asymmetric top.
 Rotational symmetry number  1.
 Warning -- assumption of classical behavior for rotation
           may cause significant error
 Rotational temperatures (Kelvin)      0.04042     0.00643     0.00620
 Rotational constants (GHZ):           0.84213     0.13408     0.12916
 Zero-point vibrational energy     901091.2 (Joules/Mol)
                                  215.36597 (Kcal/Mol)
 Warning -- explicit consideration of  28 degrees of freedom as
           vibrations may cause significant error
 Vibrational temperatures:     29.09    37.09    51.07    67.30    72.25
          (Kelvin)            117.63   167.56   214.96   243.22   284.10
                              312.18   348.31   353.49   357.37   387.42
                              441.54   482.22   532.13   577.09   645.61
                              659.99   679.99   697.32   719.46   730.46
                              763.93   799.71   846.01   947.69  1035.91
                             1047.11  1056.54  1085.51  1087.88  1095.36
                             1124.50  1160.04  1201.28  1267.32  1318.48
                             1328.52  1347.56  1378.40  1396.01  1444.59
                             1455.18  1466.92  1482.98  1514.15  1524.41
                             1557.10  1573.41  1600.65  1630.47  1635.60
                             1646.87  1702.57  1707.91  1736.63  1763.89
                             1794.57  1809.49  1810.89  1840.27  1847.03
                             1873.46  1881.78  1894.73  1912.70  1929.62
                             1955.99  1963.40  1973.95  1997.82  2010.75
                             2012.72  2028.91  2038.50  2047.67  2077.85
                             2083.91  2111.91  2139.96  2161.95  2171.99
                             2181.88  2188.69  2198.39  2218.39  2233.75
                             2239.69  2379.48  2626.18  2682.20  4171.20
                             4248.70  4318.20  4328.92  4339.71  4362.23
                             4382.94  4384.47  4400.97  4419.55  4450.25
                             4454.06  4456.83  4459.74  4479.39  4480.14
                             4531.65  5211.10  5295.00  5317.29

 Zero-point correction=                           0.343208 (Hartree/Particle)
 Thermal correction to Energy=                    0.361457
 Thermal correction to Enthalpy=                  0.362401
 Thermal correction to Gibbs Free Energy=         0.294110
 Sum of electronic and zero-point Energies=           -948.031034
 Sum of electronic and thermal Energies=              -948.012784
 Sum of electronic and thermal Enthalpies=            -948.011840
 Sum of electronic and thermal Free Energies=         -948.080131

                     E (Thermal)             CV                S
                      KCal/Mol        Cal/Mol-Kelvin    Cal/Mol-Kelvin
 Total                  226.817             69.736            143.730
 Electronic               0.000              0.000              0.000
 Translational            0.889              2.981             42.789
 Rotational               0.889              2.981             34.354
 Vibrational            225.040             63.774             66.586
 Vibration     1          0.593              1.986              6.613
 Vibration     2          0.593              1.985              6.130
 Vibration     3          0.594              1.982              5.496
 Vibration     4          0.595              1.979              4.949
 Vibration     5          0.595              1.978              4.809
 Vibration     6          0.600              1.962              3.848
 Vibration     7          0.608              1.936              3.158
 Vibration     8          0.618              1.903              2.680
 Vibration     9          0.625              1.881              2.446
 Vibration    10          0.637              1.843              2.157
 Vibration    11          0.646              1.815              1.984
 Vibration    12          0.658              1.776              1.788
 Vibration    13          0.660              1.770              1.761
 Vibration    14          0.662              1.765              1.742
 Vibration    15          0.674              1.730              1.601
 Vibration    16          0.697              1.661              1.379
 Vibration    17          0.716              1.605              1.235
 Vibration    18          0.742              1.534              1.080
 Vibration    19          0.767              1.468              0.959
 Vibration    20          0.808              1.364              0.800
 Vibration    21          0.817              1.342              0.770
 Vibration    22          0.829              1.311              0.730
 Vibration    23          0.841              1.284              0.698
 Vibration    24          0.855              1.250              0.658
 Vibration    25          0.863              1.233              0.639
 Vibration    26          0.886              1.182              0.585
 Vibration    27          0.911              1.127              0.532
 Vibration    28          0.945              1.057              0.471

 Optimization completed.
    -- Stationary point found.
 Normal termination of Gaussian 16 at Sat Dec 12 16:20:56 2020.

 ----------------------------------------------------------------------
 # B3LYP/6-311++G(d,p) empiricaldispersion=gd3bj scf=xqc pop=npa geom=c
 heck
 ----------------------------------------------------------------------

 ----------------------------------------
 CID_137192196_JID_10554_Energie_neutraal
 ----------------------------------------
 Structure from the checkpoint file:  "JID_10554.chk"
 Charge =  0 Multiplicity = 1

 SCF Done:  E(RB3LYP) =  -948.647763391     A.U. after   15 cycles
 Normal termination of Gaussian 16 at Sat Dec 12 16:30:55 2020.

 ----------------------------------------------------------------------
 # B3LYP/6-311++G(d,p) empiricaldispersion=gd3bj scf=xqc pop=npa geom=c
 heck
 ----------------------------------------------------------------------

 --------------------------------------
 CID_137192196_JID_10554_Energie_kation
 --------------------------------------
 Structure from the checkpoint file:  "JID_10554.chk"
 Charge =  1 Multiplicity = 2

 SCF Done:  E(UB3LYP) =  -948.368470770     A.U. after   29 cycles
 Normal termination of Gaussian 16 at Sat Dec 12 16:58:54 2020.
 Gaussian 16:  ES64L-G16RevA.03 25-Dec-2016

 ----------------------------------------------------------------------
 # B3LYP/6-311++G(d,p) empiricaldispersion=gd3bj scf=xqc pop=npa geom=c
 heck
 ----------------------------------------------------------------------

 -------------------------------------
 CID_137192196_JID_10554_Energie_anion
 -------------------------------------
 Structure from the checkpoint file:  "JID_10554.chk"
 Charge = -1 Multiplicity = 2

                         Standard orientation:
 ---------------------------------------------------------------------
 Center     Atomic      Atomic             Coordinates (Angstroms)
 Number     Number       Type             X           Y           Z
 ---------------------------------------------------------------------
      1          6           0        0.965240    0.050302   -1.055852
      2          6           0       -0.525781   -0.235048   -0.869872
      3          7           0       -0.703516   -1.444390   -0.071630
      4          6           0       -0.145096   -1.305501    1.262567
      5          6           0        1.360584   -1.039941    1.185530
      6          6           0        1.651423    0.201254    0.317120
      7          6           0        3.114289    0.470819    0.196555
      8          7           0        3.713201    1.536203    0.647236
      9          7           0        5.042707    1.347454    0.317027
     10          6           0        5.301611    0.165733   -0.346873
     11          8           0        6.350670   -0.287265   -0.769729
     12          7           0        4.013013   -0.386465   -0.406170
     13          6           0       -2.016745   -2.068048   -0.131809
     14          6           0       -3.144377   -1.430563    0.702174
     15          7           0       -3.411919   -0.040202    0.364793
     16          6           0       -3.826015    0.922957    1.376072
     17          6           0       -4.062679    2.184240    0.526760
     18          7           0       -4.475330    1.587108   -0.738208
     19          6           0       -3.916632    0.319022   -0.874879
     20          8           0       -3.884190   -0.349251   -1.897684
     21          1           0        1.106684    0.963192   -1.645733
     22          1           0        1.419236   -0.779882   -1.611826
     23          1           0       -0.999121    0.646100   -0.398992
     24          1           0       -1.016977   -0.380805   -1.835873
     25          1           0       -0.328978   -2.232593    1.818753
     26          1           0       -0.622842   -0.483670    1.836084
     27          1           0        1.847734   -1.920091    0.747443
     28          1           0        1.773617   -0.897609    2.190678
     29          1           0        1.229526    1.081127    0.819077
     30          1           0        5.728656    2.045683    0.553841
     31          1           0        3.816241   -1.272343   -0.845099
     32          1           0       -2.332496   -2.097468   -1.175944
     33          1           0       -1.917551   -3.106583    0.215436
     34          1           0       -4.051744   -2.043530    0.585475
     35          1           0       -2.876832   -1.449313    1.763555
     36          1           0       -3.049796    1.065335    2.134228
     37          1           0       -4.753768    0.606531    1.878539
     38          1           0       -3.132391    2.763688    0.428306
     39          1           0       -4.837707    2.831137    0.946442
     40          1           0       -4.515342    2.143914   -1.581378
 ---------------------------------------------------------------------

 SCF Done:  E(UB3LYP) =  -948.642243926     A.U. after   33 cycles
 SCF Done:  E(UB3LYP) =  -948.642243926     a.u. after    1 cycles

 The electronic state is 2-A.
 Alpha  occ. eigenvalues --  -19.01912 -18.99472 -14.30439 -14.29423 -14.26879
 Alpha  occ. eigenvalues --  -14.24467 -14.23937 -14.21574 -10.23216 -10.19884
 Alpha  occ. eigenvalues --  -10.17437 -10.12064 -10.12041 -10.11621 -10.11311
 Alpha  occ. eigenvalues --  -10.10800 -10.10357 -10.10341 -10.09221 -10.09188
 Alpha  occ. eigenvalues --   -1.01596  -0.96153  -0.94902  -0.87761  -0.85380
 Alpha  occ. eigenvalues --   -0.84505  -0.80712  -0.76980  -0.72440  -0.67545
 Alpha  occ. eigenvalues --   -0.67131  -0.64606  -0.60143  -0.59330  -0.55791
 Alpha  occ. eigenvalues --   -0.55119  -0.54553  -0.52503  -0.49289  -0.47483
 Alpha  occ. eigenvalues --   -0.46087  -0.43684  -0.42497  -0.42118  -0.41166
 Alpha  occ. eigenvalues --   -0.41010  -0.38996  -0.38675  -0.37555  -0.36917
 Alpha  occ. eigenvalues --   -0.36170  -0.35730  -0.34478  -0.33620  -0.32876
 Alpha  occ. eigenvalues --   -0.32307  -0.31390  -0.30932  -0.30602  -0.29380
 Alpha  occ. eigenvalues --   -0.29047  -0.28112  -0.27750  -0.26400  -0.26161
 Alpha  occ. eigenvalues --   -0.26019  -0.25411  -0.24672  -0.23706  -0.20062
 Alpha  occ. eigenvalues --   -0.18286  -0.17003  -0.15704  -0.15694  -0.12321
 Alpha  occ. eigenvalues --    0.03561
 Alpha virt. eigenvalues --    0.05224   0.05857   0.06432   0.07281   0.07419
 Alpha virt. eigenvalues --    0.07953   0.08697   0.08763   0.09462   0.09779
 Alpha virt. eigenvalues --    0.09989   0.10489   0.11345   0.11412   0.11800

  Beta  occ. eigenvalues --  -19.01910 -18.99470 -14.30432 -14.29405 -14.26876
  Beta  occ. eigenvalues --  -14.24466 -14.23919 -14.21568 -10.23216 -10.19883
  Beta  occ. eigenvalues --  -10.17434 -10.12025 -10.12002 -10.11606 -10.11305
  Beta  occ. eigenvalues --  -10.10774 -10.10351 -10.10332 -10.09206 -10.09178
  Beta  occ. eigenvalues --   -1.01589  -0.96145  -0.94898  -0.87747  -0.85358
  Beta  occ. eigenvalues --   -0.84485  -0.80688  -0.76967  -0.72421  -0.67517
  Beta  occ. eigenvalues --   -0.67091  -0.64556  -0.60117  -0.59308  -0.55761
  Beta  occ. eigenvalues --   -0.55078  -0.54474  -0.52481  -0.49251  -0.47449
  Beta  occ. eigenvalues --   -0.46054  -0.43664  -0.42442  -0.42072  -0.41135
  Beta  occ. eigenvalues --   -0.40998  -0.38972  -0.38650  -0.37506  -0.36892
  Beta  occ. eigenvalues --   -0.36152  -0.35712  -0.34439  -0.33599  -0.32853
  Beta  occ. eigenvalues --   -0.32279  -0.31361  -0.30878  -0.30567  -0.29359
  Beta  occ. eigenvalues --   -0.29023  -0.28068  -0.27725  -0.26366  -0.26138
  Beta  occ. eigenvalues --   -0.26007  -0.25389  -0.24650  -0.23687  -0.20054
  Beta  occ. eigenvalues --   -0.18268  -0.16986  -0.15693  -0.15671  -0.12283
  Beta virt. eigenvalues --    0.05388   0.06198   0.06428   0.06890   0.07855
  Beta virt. eigenvalues --    0.08032   0.08345   0.08770   0.09175   0.09856
  Beta virt. eigenvalues --    0.10089   0.10191   0.10727   0.11344   0.11677

 Mulliken charges and spin densities:
               1          2
     1  C   -0.196257  -0.676046
     2  C   -0.677786   0.448799
     3  N    0.232722   0.024578
     4  C   -0.384339   0.069364
     5  C    0.670036  -1.210125
     6  C   -0.019419  -0.291853
     7  C   -0.093994   0.200197
     8  N   -0.064682   0.004768
     9  N   -0.223356  -0.024053
    10  C    0.354809   0.088931
    11  O   -0.428035  -0.007674
    12  N   -0.198524  -0.031763
    13  C   -0.498976   0.287474
    14  C    0.134550  -0.368085
    15  N    0.045351   0.071277
    16  C    0.348868  -0.619489
    17  C    1.312962  -1.674738
    18  N   -0.254324   0.109051
    19  C    0.040391   0.017414
    20  O   -0.402287   0.014717
    21  H   -0.015461   0.194191
    22  H    0.050281   0.091553
    23  H    0.628326  -0.470690
    24  H    0.103420   0.073064
    25  H   -0.356638   0.533831
    26  H    0.192397  -0.067500
    27  H    0.032370   0.112941
    28  H   -0.126074   0.308511
    29  H    0.014686   0.201873
    30  H    0.255547   0.086443
    31  H    0.228172   0.102859
    32  H    0.207229   0.008978
    33  H   -0.045854   0.196127
    34  H   -0.056495   0.242057
    35  H   -0.243562   0.400775
    36  H   -0.381372   0.541920
    37  H   -0.191479   0.373012
    38  H   -0.290774   0.458939
    39  H   -0.748038   0.935302
    40  H    0.045608   0.243066
 Sum of Mulliken charges =  -1.00000   1.00000

 Dipole moment (field-independent basis, Debye):
    X=              4.6303    Y=             -1.7695    Z=             -2.3507  Tot=              5.4860
 Quadrupole moment (field-independent basis, Debye-Ang):
   XX=           -243.9053   YY=           -163.6355   ZZ=           -165.3905
   XY=             17.9660   XZ=             10.2867   YZ=             -4.6844

 Summary of Natural Population Analysis:

                                       Natural Population
                Natural  -----------------------------------------------
    Atom  No    Charge         Core      Valence    Rydberg      Total
 -----------------------------------------------------------------------
      C    1   -0.18527      0.99961     2.17797    0.00768     3.18527
      C    2   -0.08584      0.99961     2.07535    0.01088     3.08584
      N    3   -0.28197      0.99970     2.76997    0.01230     3.78197
      C    4   -0.08567      0.99961     2.07394    0.01211     3.08567
      C    5   -0.18598      0.99961     2.17635    0.01002     3.18598
      C    6   -0.13595      0.99955     2.12597    0.01043     3.13595
      C    7    0.20749      0.99961     1.77467    0.01824     2.79251
      N    8   -0.15796      0.99967     2.64692    0.01136     3.65796
      N    9   -0.22456      0.99968     2.71404    0.01084     3.72456
      C   10    0.37951      0.99972     1.59747    0.02330     2.62049
      O   11   -0.33150      0.99987     3.32633    0.00529     4.33150
      N   12   -0.31041      0.99963     2.80385    0.00692     3.81041
      C   13   -0.08507      0.99960     2.07364    0.01182     3.08507
      C   14   -0.09075      0.99961     2.07962    0.01152     3.09075
      N   15   -0.27536      0.99964     2.76439    0.01133     3.77536
      C   16   -0.07717      0.99963     2.06696    0.01058     3.07717
      C   17   -0.08658      0.99964     2.07602    0.01093     3.08658
      N   18   -0.33109      0.99969     2.82149    0.00990     3.83109
      C   19    0.41149      0.99967     1.56442    0.02442     2.58851
      O   20   -0.33733      0.99987     3.33261    0.00485     4.33733
      H   21    0.10316      0.00000     0.39596    0.00088     0.39684
      H   22    0.09402      0.00000     0.40434    0.00164     0.40598
      H   23    0.08497      0.00000     0.41261    0.00243     0.41503
      H   24    0.10548      0.00000     0.39337    0.00114     0.39452
      H   25    0.09999      0.00000     0.39863    0.00138     0.40001
      H   26    0.08292      0.00000     0.41489    0.00218     0.41708
      H   27    0.09479      0.00000     0.40352    0.00169     0.40521
      H   28    0.10442      0.00000     0.39456    0.00103     0.39558
      H   29    0.11428      0.00000     0.38302    0.00270     0.38572
      H   30    0.20215      0.00000     0.29625    0.00160     0.29785
      H   31    0.21051      0.00000     0.28726    0.00223     0.28949
      H   32    0.10979      0.00000     0.38903    0.00118     0.39021
      H   33    0.09288      0.00000     0.40615    0.00097     0.40712
      H   34    0.09447      0.00000     0.40440    0.00113     0.40553
      H   35    0.09896      0.00000     0.39934    0.00170     0.40104
      H   36    0.10240      0.00000     0.39519    0.00241     0.39760
      H   37    0.08931      0.00000     0.40893    0.00176     0.41069
      H   38    0.08994      0.00000     0.40743    0.00263     0.41006
      H   39    0.10026      0.00000     0.39691    0.00284     0.39974
      H   40    0.19525      0.00000     0.30289    0.00186     0.30475
 =======================================================================
   * Total *    0.00000     19.99322    54.73667    0.27010    75.00000

 Normal termination of Gaussian 16 at Sat Dec 12 17:30:43 2020.
