 Gaussian 16, Revision A.03,

 -----------------------------------------------------------
 # opt freq B3LYP/6-31G(d) empiricaldispersion=gd3bj scf=xqc
 -----------------------------------------------------------

 -------------------------------
 CID_106101287_JID_8512_neutraal
 -------------------------------
 Symbolic Z-matrix:
 Charge =  0 Multiplicity = 1

 SCF Done:  E(RB3LYP) =  -845.069887637     A.U. after   14 cycles
 SCF Done:  E(RB3LYP) =  -845.075273580     A.U. after   12 cycles
 SCF Done:  E(RB3LYP) =  -845.075745981     A.U. after   12 cycles
 SCF Done:  E(RB3LYP) =  -845.076444238     A.U. after   12 cycles
 SCF Done:  E(RB3LYP) =  -845.077068375     A.U. after   11 cycles
 SCF Done:  E(RB3LYP) =  -845.077046946     A.U. after   12 cycles
 SCF Done:  E(RB3LYP) =  -845.077204848     A.U. after   11 cycles
 SCF Done:  E(RB3LYP) =  -845.077438054     A.U. after   11 cycles
 SCF Done:  E(RB3LYP) =  -845.077590474     A.U. after   11 cycles
 SCF Done:  E(RB3LYP) =  -845.077666447     A.U. after   11 cycles
 SCF Done:  E(RB3LYP) =  -845.077725264     A.U. after    8 cycles
 SCF Done:  E(RB3LYP) =  -845.077725414     A.U. after    8 cycles
 SCF Done:  E(RB3LYP) =  -845.077725500     A.U. after    7 cycles
 SCF Done:  E(RB3LYP) =  -845.077725526     A.U. after    7 cycles
 Optimization completed.
    -- Stationary point found.
 Normal termination of Gaussian 16 at Fri Dec 11 21:07:04 2020.

 --------------------------------------------------------------------
 #N Geom=AllCheck Guess=TCheck SCRF=Check GenChk RB3LYP/6-31G(d) Freq
 --------------------------------------------------------------------

 Structure from the checkpoint file:  "JID_8512.chk"
 -------------------------------
 CID_106101287_JID_8512_neutraal
 -------------------------------
 Charge =  0 Multiplicity = 1

 SCF Done:  E(RB3LYP) =  -845.077725526     A.U. after    1 cycles

  Exact polarizability: 180.970   6.437 153.472  -4.479   3.327 132.155
 Approx polarizability: 219.243   5.424 220.338  -2.368  17.929 209.571

                      1                      2                      3
                      A                      A                      A
 Frequencies --     14.0944                30.0046                36.2340
 Red. masses --      4.2495                 4.2133                 3.5400
 Frc consts  --      0.0005                 0.0022                 0.0027
 IR Inten    --      0.6107                 2.4468                 0.1451

                      4                      5                      6
                      A                      A                      A
 Frequencies --     50.2337                65.8749                78.9360
 Red. masses --      4.6814                 3.9881                 4.0178
 Frc consts  --      0.0070                 0.0102                 0.0148
 IR Inten    --      1.0586                 0.5414                 0.9726

                      7                      8                      9
                      A                      A                      A
 Frequencies --    112.0645               161.6106               179.6532
 Red. masses --      3.6209                 3.1765                 2.7075
 Frc consts  --      0.0268                 0.0489                 0.0515
 IR Inten    --      0.7003                 2.2780                 1.2583

                     10                     11                     12
                      A                      A                      A
 Frequencies --    203.6611               230.3287               239.0886
 Red. masses --      2.5412                 1.7057                 1.4365
 Frc consts  --      0.0621                 0.0533                 0.0484
 IR Inten    --      2.1541                 0.3571                 2.0046

                     13                     14                     15
                      A                      A                      A
 Frequencies --    257.8038               265.3681               297.6218
 Red. masses --      3.6022                 2.1930                 3.1468
 Frc consts  --      0.1411                 0.0910                 0.1642
 IR Inten    --      3.5180                 1.7301                 3.0446

                     16                     17                     18
                      A                      A                      A
 Frequencies --    326.9272               346.0906               378.2976
 Red. masses --      2.4088                 3.2931                 4.1290
 Frc consts  --      0.1517                 0.2324                 0.3481
 IR Inten    --      2.1262                 3.6130                 3.7867

                     19                     20                     21
                      A                      A                      A
 Frequencies --    398.3812               408.1351               415.9857
 Red. masses --      3.5165                 2.6632                 1.7944
 Frc consts  --      0.3288                 0.2614                 0.1829
 IR Inten    --      2.1550                 1.5400                 2.6504

                     22                     23                     24
                      A                      A                      A
 Frequencies --    446.7328               454.0717               483.9048
 Red. masses --      2.7676                 2.7313                 2.6963
 Frc consts  --      0.3254                 0.3318                 0.3720
 IR Inten    --      1.3350                 6.0327                 7.9410

                     25                     26                     27
                      A                      A                      A
 Frequencies --    536.7781               552.1928               582.7418
 Red. masses --      3.1136                 2.0444                 1.1882
 Frc consts  --      0.5286                 0.3673                 0.2377
 IR Inten    --      2.3788                 0.7179                58.7940

                     28                     29                     30
                      A                      A                      A
 Frequencies --    596.7918               647.7153               685.2545
 Red. masses --      3.1234                 2.4482                 3.6407
 Frc consts  --      0.6554                 0.6052                 1.0072
 IR Inten    --     24.4447                 1.4128                 7.2273

                     31                     32                     33
                      A                      A                      A
 Frequencies --    718.9192               753.1957               763.6647
 Red. masses --      4.2418                 3.1011                 2.9318
 Frc consts  --      1.2917                 1.0365                 1.0074
 IR Inten    --     27.7111                 5.6744                 5.5760

                     34                     35                     36
                      A                      A                      A
 Frequencies --    811.3702               826.9442               846.1923
 Red. masses --      1.2534                 1.5000                 2.7756
 Frc consts  --      0.4861                 0.6043                 1.1710
 IR Inten    --     56.7729                 2.4825                 0.4423

                     37                     38                     39
                      A                      A                      A
 Frequencies --    863.9437               870.6587               882.8896
 Red. masses --      2.4796                 1.4413                 2.2515
 Frc consts  --      1.0904                 0.6437                 1.0340
 IR Inten    --     11.3986                 9.9714                15.5484

                     40                     41                     42
                      A                      A                      A
 Frequencies --    909.4319               943.6179               970.8971
 Red. masses --      2.4449                 2.2895                 2.7691
 Frc consts  --      1.1914                 1.2011                 1.5379
 IR Inten    --      1.7711                10.7961                 2.2060

                     43                     44                     45
                      A                      A                      A
 Frequencies --    975.6125               980.2030              1001.2669
 Red. masses --      1.9516                 1.3441                 1.8271
 Frc consts  --      1.0944                 0.7609                 1.0792
 IR Inten    --     15.1259                 4.1421                20.7393

                     46                     47                     48
                      A                      A                      A
 Frequencies --   1014.9731              1033.5902              1045.2027
 Red. masses --      2.0342                 2.5582                 2.5472
 Frc consts  --      1.2346                 1.6102                 1.6395
 IR Inten    --     21.4836                24.0797                26.8504

                     49                     50                     51
                      A                      A                      A
 Frequencies --   1051.4793              1062.7972              1068.1210
 Red. masses --      2.3686                 1.5347                 1.8753
 Frc consts  --      1.5429                 1.0213                 1.2606
 IR Inten    --      8.4640                12.5686                19.4057

                     52                     53                     54
                      A                      A                      A
 Frequencies --   1087.3879              1091.8237              1128.8883
 Red. masses --      1.6854                 2.6706                 3.1011
 Frc consts  --      1.1742                 1.8757                 2.3285
 IR Inten    --      0.7018                46.0743                12.3613

                     55                     56                     57
                      A                      A                      A
 Frequencies --   1141.6608              1151.5079              1160.5187
 Red. masses --      2.4997                 3.2795                 2.0706
 Frc consts  --      1.9196                 2.5621                 1.6431
 IR Inten    --    133.3117                11.0221                22.0525

                     58                     59                     60
                      A                      A                      A
 Frequencies --   1168.1924              1185.0371              1196.1437
 Red. masses --      1.7875                 2.1646                 1.2792
 Frc consts  --      1.4372                 1.7910                 1.0783
 IR Inten    --      9.3314                 7.7929                 1.5142

                     61                     62                     63
                      A                      A                      A
 Frequencies --   1202.4565              1217.1582              1257.2782
 Red. masses --      2.2243                 1.2988                 1.4285
 Frc consts  --      1.8949                 1.1336                 1.3305
 IR Inten    --     12.6089                54.7517                 8.4129

                     64                     65                     66
                      A                      A                      A
 Frequencies --   1270.1687              1281.6943              1295.6503
 Red. masses --      1.6134                 1.9895                 1.5324
 Frc consts  --      1.5336                 1.9256                 1.5156
 IR Inten    --     28.9440                 5.2523                52.5512

                     67                     68                     69
                      A                      A                      A
 Frequencies --   1305.0293              1319.0980              1325.2167
 Red. masses --      1.3213                 1.2145                 1.3217
 Frc consts  --      1.3258                 1.2451                 1.3676
 IR Inten    --     20.3533                22.2667                51.3003

                     70                     71                     72
                      A                      A                      A
 Frequencies --   1331.6872              1346.5278              1369.9326
 Red. masses --      1.3584                 1.3322                 1.2757
 Frc consts  --      1.4193                 1.4231                 1.4105
 IR Inten    --      8.2672                18.3158                 0.0944

                     73                     74                     75
                      A                      A                      A
 Frequencies --   1374.8742              1388.1957              1398.5645
 Red. masses --      1.2932                 1.3599                 1.3772
 Frc consts  --      1.4402                 1.5441                 1.5872
 IR Inten    --      2.5302                 8.8103                 1.8682

                     76                     77                     78
                      A                      A                      A
 Frequencies --   1400.0902              1403.6352              1406.3737
 Red. masses --      1.4088                 1.5030                 1.3097
 Frc consts  --      1.6271                 1.7447                 1.5262
 IR Inten    --      2.7164                 3.8884                13.1431

                     79                     80                     81
                      A                      A                      A
 Frequencies --   1412.7146              1420.9458              1434.7254
 Red. masses --      1.3984                 1.3761                 1.3158
 Frc consts  --      1.6443                 1.6370                 1.5958
 IR Inten    --      5.7454                10.1786                 9.4957

                     82                     83                     84
                      A                      A                      A
 Frequencies --   1450.8452              1480.7386              1502.3545
 Red. masses --      1.6681                 2.9551                 1.1164
 Frc consts  --      2.0687                 3.8175                 1.4847
 IR Inten    --     64.5677               150.1276                 5.7667

                     85                     86                     87
                      A                      A                      A
 Frequencies --   1505.4342              1510.8331              1514.2570
 Red. masses --      1.1087                 1.1231                 1.0863
 Frc consts  --      1.4804                 1.5105                 1.4675
 IR Inten    --      1.3607                 7.5312                 4.6491

                     88                     89                     90
                      A                      A                      A
 Frequencies --   1517.0061              1519.9252              1523.7667
 Red. masses --      1.0734                 1.1007                 1.0896
 Frc consts  --      1.4554                 1.4982                 1.4906
 IR Inten    --      7.4544                11.1272                 5.5572

                     91                     92                     93
                      A                      A                      A
 Frequencies --   1526.1776              1531.7672              1539.8700
 Red. masses --      1.0686                 1.1059                 1.1125
 Frc consts  --      1.4665                 1.5288                 1.5542
 IR Inten    --      2.1339                46.5447                 1.2939

                     94                     95                     96
                      A                      A                      A
 Frequencies --   1548.4976              1552.2165              1769.1045
 Red. masses --      1.0746                 1.0950                10.5090
 Frc consts  --      1.5182                 1.5544                19.3784
 IR Inten    --     12.5816                 0.7716               316.7536

                     97                     98                     99
                      A                      A                      A
 Frequencies --   2955.7824              2971.9311              2990.3813
 Red. masses --      1.0733                 1.0728                 1.0830
 Frc consts  --      5.5248                 5.5826                 5.7060
 IR Inten    --     58.5000                39.6248                84.9079

                    100                    101                    102
                      A                      A                      A
 Frequencies --   3007.9647              3013.9919              3026.2695
 Red. masses --      1.0745                 1.0737                 1.0693
 Frc consts  --      5.7278                 5.7465                 5.7699
 IR Inten    --     19.8162                55.8604                55.7736

                    103                    104                    105
                      A                      A                      A
 Frequencies --   3028.2592              3038.6772              3048.0752
 Red. masses --      1.0696                 1.0619                 1.0614
 Frc consts  --      5.7789                 5.7771                 5.8098
 IR Inten    --     20.1410                46.8457                26.2048

                    106                    107                    108
                      A                      A                      A
 Frequencies --   3056.7240              3064.7439              3085.5835
 Red. masses --      1.0403                 1.0652                 1.0910
 Frc consts  --      5.7269                 5.8949                 6.1197
 IR Inten    --     27.3373                23.6489                23.4119

                    109                    110                    111
                      A                      A                      A
 Frequencies --   3086.4158              3088.7321              3095.0965
 Red. masses --      1.0949                 1.0999                 1.1049
 Frc consts  --      6.1452                 6.1823                 6.2361
 IR Inten    --     43.5523                35.9407                68.6808

                    112                    113                    114
                      A                      A                      A
 Frequencies --   3108.3677              3122.1548              3134.2136
 Red. masses --      1.0970                 1.0972                 1.0890
 Frc consts  --      6.2446                 6.3015                 6.3029
 IR Inten    --     53.7390                35.9638                10.4971

                    115                    116                    117
                      A                      A                      A
 Frequencies --   3139.3927              3150.8563              3158.5419
 Red. masses --      1.1006                 1.0889                 1.1018
 Frc consts  --      6.3913                 6.3693                 6.4762
 IR Inten    --     17.7605                26.3448                13.5395

                    118                    119                    120
                      A                      A                      A
 Frequencies --   3169.9087              3526.5066              3618.6792
 Red. masses --      1.0906                 1.0731                 1.0649
 Frc consts  --      6.4567                 7.8627                 8.2157
 IR Inten    --      3.7440                 1.8574               100.0077

 - Thermochemistry -
 -------------------
 Temperature   298.150 Kelvin.  Pressure   1.00000 Atm.
 Atom     1 has atomic number  6 and mass  12.00000

 Molecular mass:   256.17869 amu.
 Principal axes and moments of inertia in atomic units:
                           1         2         3
     Eigenvalues --  2457.211488235.108379536.52096
           X            0.99981   0.01923  -0.00054
           Y           -0.01924   0.99938  -0.02939
           Z           -0.00003   0.02939   0.99957
 This molecule is an asymmetric top.
 Rotational symmetry number  1.
 Warning -- assumption of classical behavior for rotation
           may cause significant error
 Rotational temperatures (Kelvin)      0.03525     0.01052     0.00908
 Rotational constants (GHZ):           0.73447     0.21915     0.18925
 Zero-point vibrational energy     987103.2 (Joules/Mol)
                                  235.92333 (Kcal/Mol)
 Warning -- explicit consideration of  28 degrees of freedom as
           vibrations may cause significant error
 Vibrational temperatures:     20.28    43.17    52.13    72.28    94.78
          (Kelvin)            113.57   161.24   232.52   258.48   293.02
                              331.39   344.00   370.92   381.81   428.21
                              470.38   497.95   544.29   573.18   587.22
                              598.51   642.75   653.31   696.23   772.30
                              794.48   838.44   858.65   931.92   985.93
                             1034.36  1083.68  1098.74  1167.38  1189.79
                             1217.48  1243.02  1252.68  1270.28  1308.47
                             1357.66  1396.90  1403.69  1410.29  1440.60
                             1460.32  1487.11  1503.81  1512.84  1529.13
                             1536.79  1564.51  1570.89  1624.22  1642.60
                             1656.76  1669.73  1680.77  1705.00  1720.98
                             1730.07  1751.22  1808.94  1827.49  1844.07
                             1864.15  1877.65  1897.89  1906.69  1916.00
                             1937.35  1971.03  1978.14  1997.30  2012.22
                             2014.42  2019.52  2023.46  2032.58  2044.42
                             2064.25  2087.44  2130.45  2161.55  2165.98
                             2173.75  2178.68  2182.63  2186.83  2192.36
                             2195.83  2203.87  2215.53  2227.94  2233.29
                             2545.35  4252.71  4275.95  4302.49  4327.79
                             4336.46  4354.13  4356.99  4371.98  4385.50
                             4397.94  4409.48  4439.47  4440.66  4444.00
                             4453.15  4472.25  4492.08  4509.43  4516.89
                             4533.38  4544.44  4560.79  5073.86  5206.47

 Zero-point correction=                           0.375968 (Hartree/Particle)
 Thermal correction to Energy=                    0.394040
 Thermal correction to Enthalpy=                  0.394984
 Thermal correction to Gibbs Free Energy=         0.327625
 Sum of electronic and zero-point Energies=           -844.701758
 Sum of electronic and thermal Energies=              -844.683685
 Sum of electronic and thermal Enthalpies=            -844.682741
 Sum of electronic and thermal Free Energies=         -844.750100

                     E (Thermal)             CV                S
                      KCal/Mol        Cal/Mol-Kelvin    Cal/Mol-Kelvin
 Total                  247.264             69.559            141.769
 Electronic               0.000              0.000              0.000
 Translational            0.889              2.981             42.522
 Rotational               0.889              2.981             33.622
 Vibrational            245.486             63.597             65.625
 Vibration     1          0.593              1.986              7.329
 Vibration     2          0.594              1.984              5.829
 Vibration     3          0.594              1.982              5.455
 Vibration     4          0.595              1.978              4.808
 Vibration     5          0.597              1.971              4.273
 Vibration     6          0.600              1.963              3.917
 Vibration     7          0.607              1.939              3.233
 Vibration     8          0.622              1.889              2.531
 Vibration     9          0.629              1.867              2.332
 Vibration    10          0.639              1.835              2.100
 Vibration    11          0.652              1.795              1.876
 Vibration    12          0.657              1.781              1.810
 Vibration    13          0.667              1.750              1.677
 Vibration    14          0.671              1.737              1.626
 Vibration    15          0.691              1.678              1.430
 Vibration    16          0.711              1.622              1.275
 Vibration    17          0.724              1.583              1.184
 Vibration    18          0.749              1.516              1.046
 Vibration    19          0.765              1.474              0.969
 Vibration    20          0.773              1.453              0.933
 Vibration    21          0.779              1.436              0.906
 Vibration    22          0.806              1.368              0.806
 Vibration    23          0.813              1.352              0.784
 Vibration    24          0.840              1.286              0.700
 Vibration    25          0.892              1.169              0.572
 Vibration    26          0.908              1.135              0.540
 Vibration    27          0.940              1.069              0.480
 Vibration    28          0.955              1.039              0.455

 Optimization completed.
    -- Stationary point found.
 Normal termination of Gaussian 16 at Fri Dec 11 21:27:41 2020.

 ----------------------------------------------------------------------
 # B3LYP/6-311++G(d,p) empiricaldispersion=gd3bj scf=xqc pop=npa geom=c
 heck
 ----------------------------------------------------------------------

 ---------------------------------------
 CID_106101287_JID_8512_Energie_neutraal
 ---------------------------------------
 Structure from the checkpoint file:  "JID_8512.chk"
 Charge =  0 Multiplicity = 1

 SCF Done:  E(RB3LYP) =  -845.328717807     A.U. after   14 cycles
 Normal termination of Gaussian 16 at Fri Dec 11 21:35:51 2020.

 ----------------------------------------------------------------------
 # B3LYP/6-311++G(d,p) empiricaldispersion=gd3bj scf=xqc pop=npa geom=c
 heck
 ----------------------------------------------------------------------

 -------------------------------------
 CID_106101287_JID_8512_Energie_kation
 -------------------------------------
 Structure from the checkpoint file:  "JID_8512.chk"
 Charge =  1 Multiplicity = 2

 SCF Done:  E(UB3LYP) =  -845.020860749     A.U. after   33 cycles
 SCF Done:  E(UB3LYP) =  -845.020860750     a.u. after    1 cycles
 Normal termination of Gaussian 16 at Fri Dec 11 22:02:09 2020.
 Gaussian 16:  ES64L-G16RevA.03 25-Dec-2016

 ----------------------------------------------------------------------
 # B3LYP/6-311++G(d,p) empiricaldispersion=gd3bj scf=xqc pop=npa geom=c
 heck
 ----------------------------------------------------------------------

 ------------------------------------
 CID_106101287_JID_8512_Energie_anion
 ------------------------------------
 Structure from the checkpoint file:  "JID_8512.chk"
 Charge = -1 Multiplicity = 2

                         Standard orientation:
 ---------------------------------------------------------------------
 Center     Atomic      Atomic             Coordinates (Angstroms)
 Number     Number       Type             X           Y           Z
 ---------------------------------------------------------------------
      1          6           0        1.743058   -1.710263    1.117911
      2          6           0        2.438834   -1.069473   -0.076263
      3          6           0        2.597856    0.487977    0.013580
      4          6           0        4.020912    0.691926   -0.515803
      5          6           0        4.721376   -0.569535   -0.022250
      6          8           0        3.762220   -1.611219   -0.207301
      7          6           0        1.533295    1.246498   -0.784964
      8          7           0        0.239193    1.088699   -0.122002
      9          6           0       -0.796578    2.009947   -0.594013
     10          6           0       -2.130222    1.695055    0.087365
     11          8           0       -2.577074    2.435682    0.955247
     12          7           0       -2.761917    0.533083   -0.286598
     13          6           0       -3.970918    0.115917    0.424323
     14          6           0       -3.795697   -1.297890    0.988313
     15          6           0       -3.396060   -2.286020   -0.115826
     16          6           0       -2.158172   -1.786779   -0.872695
     17          6           0       -2.374916   -0.354573   -1.379987
     18          8           0        2.564472    0.949601    1.358430
     19          1           0        0.704901   -1.369274    1.213689
     20          1           0        2.268374   -1.450881    2.039626
     21          1           0        1.739259   -2.798142    1.001631
     22          1           0        1.898738   -1.328360   -1.001015
     23          1           0        4.449304    1.622399   -0.135561
     24          1           0        4.016058    0.715467   -1.612105
     25          1           0        4.992016   -0.471485    1.038932
     26          1           0        5.617113   -0.835461   -0.591323
     27          1           0        1.784492    2.313122   -0.771851
     28          1           0        1.529230    0.918441   -1.839243
     29          1           0       -0.078408    0.129156   -0.230096
     30          1           0       -0.530445    3.022548   -0.285279
     31          1           0       -0.903478    2.013870   -1.693988
     32          1           0       -4.819556    0.137781   -0.276501
     33          1           0       -4.155491    0.851162    1.206630
     34          1           0       -4.727018   -1.616021    1.471626
     35          1           0       -3.018821   -1.273015    1.763551
     36          1           0       -3.209730   -3.280950    0.304073
     37          1           0       -4.229559   -2.392433   -0.825320
     38          1           0       -1.287188   -1.805896   -0.202965
     39          1           0       -1.927964   -2.442175   -1.721198
     40          1           0       -1.481401    0.024050   -1.876639
     41          1           0       -3.180157   -0.355623   -2.130973
     42          1           0        1.615236    1.090010    1.545337
 ---------------------------------------------------------------------

 SCF Done:  E(UB3LYP) =  -845.321270949     A.U. after   33 cycles
 SCF Done:  E(UB3LYP) =  -845.321270949     a.u. after    1 cycles

 The electronic state is 2-A.
 Alpha  occ. eigenvalues --  -19.03340 -19.03192 -18.99641 -14.25246 -14.23205
 Alpha  occ. eigenvalues --  -10.18207 -10.14621 -10.13272 -10.13181 -10.11883
 Alpha  occ. eigenvalues --  -10.11626 -10.11545 -10.10896 -10.08799 -10.08116
 Alpha  occ. eigenvalues --  -10.07956 -10.07683 -10.07280  -0.95861  -0.94958
 Alpha  occ. eigenvalues --   -0.93537  -0.85331  -0.83343  -0.71357  -0.70274
 Alpha  occ. eigenvalues --   -0.68486  -0.67645  -0.64536  -0.60424  -0.58155
 Alpha  occ. eigenvalues --   -0.55798  -0.54490  -0.51167  -0.50269  -0.48519
 Alpha  occ. eigenvalues --   -0.45775  -0.44504  -0.41982  -0.40873  -0.40345
 Alpha  occ. eigenvalues --   -0.39152  -0.38180  -0.37680  -0.36434  -0.36108
 Alpha  occ. eigenvalues --   -0.35484  -0.34933  -0.34131  -0.33838  -0.32544
 Alpha  occ. eigenvalues --   -0.31744  -0.31301  -0.30866  -0.30204  -0.29337
 Alpha  occ. eigenvalues --   -0.28651  -0.28170  -0.27231  -0.26716  -0.26111
 Alpha  occ. eigenvalues --   -0.25369  -0.25008  -0.24076  -0.23834  -0.23622
 Alpha  occ. eigenvalues --   -0.18893  -0.17490  -0.16880  -0.15816  -0.15318
 Alpha  occ. eigenvalues --    0.03897
 Alpha virt. eigenvalues --    0.05883   0.06708   0.07186   0.07610   0.08139
 Alpha virt. eigenvalues --    0.08521   0.09298   0.09552   0.09832   0.09998
 Alpha virt. eigenvalues --    0.10272   0.10545   0.11361   0.11590   0.12327

  Beta  occ. eigenvalues --  -19.03340 -19.03185 -18.99631 -14.25250 -14.23196
  Beta  occ. eigenvalues --  -10.18200 -10.14620 -10.13258 -10.13177 -10.11868
  Beta  occ. eigenvalues --  -10.11587 -10.11520 -10.10884 -10.08788 -10.08105
  Beta  occ. eigenvalues --  -10.07928 -10.07657 -10.07274  -0.95852  -0.94942
  Beta  occ. eigenvalues --   -0.93526  -0.85318  -0.83325  -0.71321  -0.70255
  Beta  occ. eigenvalues --   -0.68468  -0.67603  -0.64506  -0.60396  -0.58114
  Beta  occ. eigenvalues --   -0.55756  -0.54434  -0.51140  -0.50221  -0.48493
  Beta  occ. eigenvalues --   -0.45720  -0.44472  -0.41963  -0.40826  -0.40313
  Beta  occ. eigenvalues --   -0.39111  -0.38146  -0.37656  -0.36398  -0.36077
  Beta  occ. eigenvalues --   -0.35451  -0.34918  -0.34106  -0.33792  -0.32524
  Beta  occ. eigenvalues --   -0.31724  -0.31277  -0.30837  -0.30177  -0.29309
  Beta  occ. eigenvalues --   -0.28633  -0.28123  -0.27210  -0.26676  -0.26093
  Beta  occ. eigenvalues --   -0.25357  -0.24971  -0.24029  -0.23816  -0.23577
  Beta  occ. eigenvalues --   -0.18880  -0.17466  -0.16870  -0.15791  -0.15290
  Beta virt. eigenvalues --    0.06145   0.06515   0.07249   0.07649   0.08025
  Beta virt. eigenvalues --    0.08423   0.08901   0.09518   0.09836   0.10108
  Beta virt. eigenvalues --    0.10257   0.10460   0.10639   0.11600   0.11889

 Mulliken charges and spin densities:
               1          2
     1  C   -0.253178  -0.190141
     2  C   -0.168860  -0.266811
     3  C   -0.624593   0.791715
     4  C    0.132889  -0.343767
     5  C   -0.283066   0.107787
     6  O   -0.106276   0.017148
     7  C    0.266451  -1.099339
     8  N   -0.161214   0.149100
     9  C    0.554456  -0.812876
    10  C   -0.514060   0.365334
    11  O   -0.323320  -0.001813
    12  N    0.086188  -0.008225
    13  C    0.333204  -0.662606
    14  C   -0.461355   0.284960
    15  C    1.001594  -1.413017
    16  C    0.061140  -0.158341
    17  C   -0.210758  -0.165791
    18  O   -0.113946  -0.005444
    19  H    0.068247   0.043196
    20  H    0.150184   0.045087
    21  H    0.063962   0.101842
    22  H   -0.385940   0.639429
    23  H    0.111038   0.052034
    24  H   -0.121454   0.273274
    25  H    0.137875  -0.001588
    26  H    0.029541   0.151706
    27  H    0.149766   0.029557
    28  H   -0.225643   0.422468
    29  H    0.860071  -0.675791
    30  H    0.164554   0.020522
    31  H   -0.181916   0.360700
    32  H   -0.095080   0.262060
    33  H    0.162298   0.026937
    34  H   -0.099322   0.272016
    35  H    0.088326   0.050989
    36  H   -0.448873   0.617686
    37  H   -0.096282   0.250462
    38  H    0.808708  -0.776905
    39  H   -0.602584   0.804387
    40  H   -0.250062   0.433659
    41  H   -0.743555   0.951089
    42  H    0.240846   0.057313
 Sum of Mulliken charges =  -1.00000   1.00000

 Dipole moment (field-independent basis, Debye):
    X=              4.6393    Y=              2.8893    Z=              4.5792  Tot=              7.1302
 Quadrupole moment (field-independent basis, Debye-Ang):
   XX=           -188.4446   YY=           -164.2788   ZZ=           -162.2153
   XY=             -2.0752   XZ=             -4.3090   YZ=            -12.3509

 Summary of Natural Population Analysis:

                                       Natural Population
                Natural  -----------------------------------------------
    Atom  No    Charge         Core      Valence    Rydberg      Total
 -----------------------------------------------------------------------
      C    1   -0.29766      0.99963     2.29081    0.00722     3.29766
      C    2    0.05475      0.99951     1.92976    0.01598     2.94525
      C    3    0.12024      0.99950     1.86304    0.01723     2.87976
      C    4   -0.20943      0.99958     2.20072    0.00912     3.20943
      C    5   -0.00794      0.99960     1.99733    0.01101     3.00794
      O    6   -0.30500      0.99989     3.29653    0.00858     4.30500
      C    7   -0.09366      0.99956     2.08262    0.01148     3.09366
      N    8   -0.35312      0.99973     2.84317    0.01022     3.85312
      C    9   -0.12269      0.99959     2.11229    0.01080     3.12269
      C   10    0.34484      0.99964     1.63236    0.02316     2.65516
      O   11   -0.32438      0.99988     3.31950    0.00501     4.32438
      N   12   -0.25746      0.99964     2.74684    0.01098     3.75746
      C   13   -0.08731      0.99960     2.07759    0.01012     3.08731
      C   14   -0.19380      0.99962     2.18617    0.00801     3.19380
      C   15   -0.19006      0.99963     2.18205    0.00839     3.19006
      C   16   -0.19515      0.99962     2.18581    0.00972     3.19515
      C   17   -0.08810      0.99960     2.07613    0.01238     3.08810
      O   18   -0.38453      0.99989     3.37852    0.00612     4.38453
      H   19    0.09735      0.00000     0.40153    0.00111     0.40265
      H   20    0.10568      0.00000     0.39327    0.00105     0.39432
      H   21    0.10449      0.00000     0.39452    0.00098     0.39551
      H   22    0.08984      0.00000     0.40770    0.00246     0.41016
      H   23    0.10847      0.00000     0.39059    0.00094     0.39153
      H   24    0.10396      0.00000     0.39474    0.00129     0.39604
      H   25    0.08008      0.00000     0.41856    0.00137     0.41992
      H   26    0.08795      0.00000     0.41078    0.00127     0.41205
      H   27    0.09721      0.00000     0.40157    0.00122     0.40279
      H   28    0.09368      0.00000     0.40418    0.00214     0.40632
      H   29    0.17958      0.00000     0.31540    0.00502     0.32042
      H   30    0.10579      0.00000     0.39314    0.00107     0.39421
      H   31    0.09106      0.00000     0.40753    0.00141     0.40894
      H   32    0.09189      0.00000     0.40698    0.00113     0.40811
      H   33    0.11603      0.00000     0.38287    0.00110     0.38397
      H   34    0.10088      0.00000     0.39823    0.00089     0.39912
      H   35    0.09529      0.00000     0.40336    0.00134     0.40471
      H   36    0.10163      0.00000     0.39717    0.00120     0.39837
      H   37    0.09717      0.00000     0.40089    0.00194     0.40283
      H   38    0.09027      0.00000     0.40764    0.00209     0.40973
      H   39    0.10854      0.00000     0.38882    0.00264     0.39146
      H   40    0.10519      0.00000     0.39207    0.00275     0.39481
      H   41    0.09809      0.00000     0.39948    0.00242     0.40191
      H   42    0.24032      0.00000     0.25692    0.00275     0.25968
 =======================================================================
   * Total *    0.00000     17.99371    51.76917    0.23712    70.00000

 Normal termination of Gaussian 16 at Fri Dec 11 22:30:22 2020.
