 Gaussian 16, Revision A.03,

 -----------------------------------------------------------
 # opt freq B3LYP/6-31G(d) empiricaldispersion=gd3bj scf=xqc
 -----------------------------------------------------------

 -------------------------------
 CID_110254194_JID_5951_neutraal
 -------------------------------
 Symbolic Z-matrix:
 Charge =  0 Multiplicity = 1

 SCF Done:  E(RB3LYP) =  -649.080529870     A.U. after   14 cycles
 SCF Done:  E(RB3LYP) =  -649.085749723     A.U. after   12 cycles
 SCF Done:  E(RB3LYP) =  -649.086391977     A.U. after   11 cycles
 SCF Done:  E(RB3LYP) =  -649.086748635     A.U. after   12 cycles
 SCF Done:  E(RB3LYP) =  -649.086892991     A.U. after   12 cycles
 SCF Done:  E(RB3LYP) =  -649.086995112     A.U. after   12 cycles
 SCF Done:  E(RB3LYP) =  -649.087026701     A.U. after   10 cycles
 SCF Done:  E(RB3LYP) =  -649.087031479     A.U. after    9 cycles
 SCF Done:  E(RB3LYP) =  -649.087036169     A.U. after    9 cycles
 SCF Done:  E(RB3LYP) =  -649.087038206     A.U. after    8 cycles
 SCF Done:  E(RB3LYP) =  -649.087038640     A.U. after    7 cycles
 Optimization completed.
    -- Stationary point found.
 Normal termination of Gaussian 16 at Thu Dec 10 17:45:16 2020.

 --------------------------------------------------------------------
 #N Geom=AllCheck Guess=TCheck SCRF=Check GenChk RB3LYP/6-31G(d) Freq
 --------------------------------------------------------------------

 Structure from the checkpoint file:  "JID_5951.chk"
 -------------------------------
 CID_110254194_JID_5951_neutraal
 -------------------------------
 Charge =  0 Multiplicity = 1

 SCF Done:  E(RB3LYP) =  -649.087038640     A.U. after    1 cycles

  Exact polarizability: 174.545   1.546 137.894  -9.561   7.436 104.004
 Approx polarizability: 224.471  -1.634 228.510 -21.609  19.216 152.411

                      1                      2                      3
                      A                      A                      A
 Frequencies --     14.9038                27.7082                57.3880
 Red. masses --      2.7046                 4.1029                 3.9294
 Frc consts  --      0.0004                 0.0019                 0.0076
 IR Inten    --      0.0185                 0.1613                 0.0011

                      4                      5                      6
                      A                      A                      A
 Frequencies --     91.2321               129.5300               178.6604
 Red. masses --      2.3853                 2.5034                 3.0318
 Frc consts  --      0.0117                 0.0247                 0.0570
 IR Inten    --      0.3633                 1.4855                 0.1964

                      7                      8                      9
                      A                      A                      A
 Frequencies --    182.3359               191.9412               234.3738
 Red. masses --      3.0640                 3.0595                 1.5457
 Frc consts  --      0.0600                 0.0664                 0.0500
 IR Inten    --      2.4785                 6.3089                 1.1514

                     10                     11                     12
                      A                      A                      A
 Frequencies --    252.4030               283.5298               327.7709
 Red. masses --      1.3239                 2.5002                 2.3930
 Frc consts  --      0.0497                 0.1184                 0.1515
 IR Inten    --      0.3590                 0.5663                 4.2425

                     13                     14                     15
                      A                      A                      A
 Frequencies --    336.4258               390.4121               408.9802
 Red. masses --      3.2822                 2.2841                 1.2679
 Frc consts  --      0.2189                 0.2051                 0.1250
 IR Inten    --      1.9685                 2.8468               327.6716

                     16                     17                     18
                      A                      A                      A
 Frequencies --    420.1149               447.5093               472.8067
 Red. masses --      2.2180                 3.2387                 2.7315
 Frc consts  --      0.2306                 0.3821                 0.3598
 IR Inten    --     10.9753                 3.8341                 4.1170

                     19                     20                     21
                      A                      A                      A
 Frequencies --    487.0583               508.8325               561.4473
 Red. masses --      2.9373                 1.1785                 2.3320
 Frc consts  --      0.4105                 0.1798                 0.4331
 IR Inten    --      6.7016                 5.7135                 0.5689

                     22                     23                     24
                      A                      A                      A
 Frequencies --    609.3133               615.4222               662.7424
 Red. masses --      5.9721                 3.1622                 5.4028
 Frc consts  --      1.3063                 0.7057                 1.3982
 IR Inten    --      5.5272                 4.6684                14.4388

                     25                     26                     27
                      A                      A                      A
 Frequencies --    716.5190               780.1396               815.4095
 Red. masses --      5.9225                 2.5272                 2.2970
 Frc consts  --      1.7915                 0.9062                 0.8999
 IR Inten    --      9.2924                 1.8016                 2.4808

                     28                     29                     30
                      A                      A                      A
 Frequencies --    832.3471               846.4181               866.7838
 Red. masses --      2.1237                 3.0692                 1.8710
 Frc consts  --      0.8669                 1.2955                 0.8282
 IR Inten    --     28.3661                 1.4231                 4.4090

                     31                     32                     33
                      A                      A                      A
 Frequencies --    911.8991               930.5477               943.1661
 Red. masses --      2.8389                 2.7401                 1.1625
 Frc consts  --      1.3909                 1.3979                 0.6093
 IR Inten    --     10.7592                 2.5901                 0.7358

                     34                     35                     36
                      A                      A                      A
 Frequencies --    972.0942               993.3243               996.9544
 Red. masses --      1.4647                 1.4377                 4.1811
 Frc consts  --      0.8155                 0.8358                 2.4484
 IR Inten    --      0.0056                 0.6094                 2.8273

                     37                     38                     39
                      A                      A                      A
 Frequencies --   1001.8748              1017.9693              1028.4682
 Red. masses --      1.9768                 2.2479                 2.4782
 Frc consts  --      1.1690                 1.3724                 1.5444
 IR Inten    --      0.2990                 2.1666                13.3558

                     40                     41                     42
                      A                      A                      A
 Frequencies --   1062.6720              1083.3022              1097.5531
 Red. masses --      2.1320                 2.4260                 2.2101
 Frc consts  --      1.4185                 1.6774                 1.5686
 IR Inten    --      9.8820                 0.8682                 8.4198

                     43                     44                     45
                      A                      A                      A
 Frequencies --   1114.4466              1134.9222              1165.0617
 Red. masses --      2.0442                 2.2558                 1.5228
 Frc consts  --      1.4959                 1.7119                 1.2179
 IR Inten    --      2.8878                 4.3035                 1.0214

                     46                     47                     48
                      A                      A                      A
 Frequencies --   1199.0395              1210.0756              1219.7816
 Red. masses --      1.9905                 2.4958                 1.5729
 Frc consts  --      1.6860                 2.1532                 1.3788
 IR Inten    --      5.4870                13.8620                33.9561

                     49                     50                     51
                      A                      A                      A
 Frequencies --   1222.7695              1253.0292              1258.5452
 Red. masses --      1.7076                 1.4690                 1.5331
 Frc consts  --      1.5043                 1.3589                 1.4307
 IR Inten    --     28.5911                12.6834                 4.6231

                     52                     53                     54
                      A                      A                      A
 Frequencies --   1284.1383              1298.6884              1327.9224
 Red. masses --      2.5053                 1.6538                 1.3383
 Frc consts  --      2.4340                 1.6434                 1.3904
 IR Inten    --      3.2984                28.8537                 1.6971

                     55                     56                     57
                      A                      A                      A
 Frequencies --   1339.9214              1361.4465              1376.1299
 Red. masses --      1.2475                 1.3168                 1.4563
 Frc consts  --      1.3196                 1.4381                 1.6248
 IR Inten    --      3.8327                13.7370                37.6036

                     58                     59                     60
                      A                      A                      A
 Frequencies --   1380.4405              1387.1863              1406.1882
 Red. masses --      1.5765                 1.4768                 1.7606
 Frc consts  --      1.7701                 1.6743                 2.0511
 IR Inten    --     27.3294                 6.4121                21.9320

                     61                     62                     63
                      A                      A                      A
 Frequencies --   1424.5741              1428.8918              1444.8376
 Red. masses --      1.5713                 1.3480                 1.2444
 Frc consts  --      1.8788                 1.6215                 1.5305
 IR Inten    --      1.1769                10.6006                13.1797

                     64                     65                     66
                      A                      A                      A
 Frequencies --   1494.2298              1504.7868              1516.0833
 Red. masses --      3.1338                 2.7225                 1.0547
 Frc consts  --      4.1224                 3.6322                 1.4284
 IR Inten    --    118.9844                91.1616                 0.2965

                     67                     68                     69
                      A                      A                      A
 Frequencies --   1521.2855              1525.5678              1531.1491
 Red. masses --      1.1082                 1.0428                 1.0610
 Frc consts  --      1.5111                 1.4299                 1.4655
 IR Inten    --      4.6751                 1.4173                 5.9190

                     70                     71                     72
                      A                      A                      A
 Frequencies --   1538.2264              1549.0554              1557.9252
 Red. masses --      1.0826                 1.0500                 1.1044
 Frc consts  --      1.5092                 1.4844                 1.5794
 IR Inten    --      3.5991                 5.0563                 6.7827

                     73                     74                     75
                      A                      A                      A
 Frequencies --   1619.5747              1636.6387              1665.7458
 Red. masses --      5.4306                 3.4530                 1.8522
 Frc consts  --      8.3927                 5.4495                 3.0280
 IR Inten    --    168.6791               111.5719               495.4265

                     76                     77                     78
                      A                      A                      A
 Frequencies --   2886.0984              2931.8057              2948.7271
 Red. masses --      1.0808                 1.0741                 1.0720
 Frc consts  --      5.3044                 5.4397                 5.4917
 IR Inten    --     56.7872                57.2515                59.0498

                     79                     80                     81
                      A                      A                      A
 Frequencies --   3052.6232              3057.7738              3076.9407
 Red. masses --      1.0357                 1.0365                 1.0819
 Frc consts  --      5.6863                 5.7098                 6.0351
 IR Inten    --     17.7185                19.6825                 8.2587

                     82                     83                     84
                      A                      A                      A
 Frequencies --   3087.1062              3100.7432              3112.0201
 Red. masses --      1.0707                 1.0839                 1.0913
 Frc consts  --      6.0118                 6.1399                 6.2269
 IR Inten    --     25.8169                48.5083                31.0881

                     85                     86                     87
                      A                      A                      A
 Frequencies --   3119.8319              3127.1706              3132.3630
 Red. masses --      1.1027                 1.1020                 1.1002
 Frc consts  --      6.3236                 6.3492                 6.3600
 IR Inten    --      0.8398                59.1808                39.9635

                     88                     89                     90
                      A                      A                      A
 Frequencies --   3133.7089              3141.4728              3167.1224
 Red. masses --      1.1005                 1.1039                 1.0904
 Frc consts  --      6.3675                 6.4189                 6.4439
 IR Inten    --     32.4932                18.7734                36.1153

                     91                     92                     93
                      A                      A                      A
 Frequencies --   3224.5967              3601.0717              3723.7160
 Red. masses --      1.0937                 1.0453                 1.1034
 Frc consts  --      6.7006                 7.9868                 9.0141
 IR Inten    --      8.2724                58.1867                37.0630

 - Thermochemistry -
 -------------------
 Temperature   298.150 Kelvin.  Pressure   1.00000 Atm.
 Atom     1 has atomic number  6 and mass  12.00000

 Molecular mass:   206.15315 amu.
 Principal axes and moments of inertia in atomic units:
                           1         2         3
     Eigenvalues --  1323.596416519.246946665.06974
           X            0.99999   0.00237   0.00488
           Y           -0.00214   0.99894  -0.04599
           Z           -0.00499   0.04598   0.99893
 This molecule is an asymmetric top.
 Rotational symmetry number  1.
 Warning -- assumption of classical behavior for rotation
           may cause significant error
 Rotational temperatures (Kelvin)      0.06544     0.01329     0.01300
 Rotational constants (GHZ):           1.36351     0.27683     0.27078
 Zero-point vibrational energy     761503.7 (Joules/Mol)
                                  182.00376 (Kcal/Mol)
 Warning -- explicit consideration of  23 degrees of freedom as
           vibrations may cause significant error
 Vibrational temperatures:     21.44    39.87    82.57   131.26   186.36
          (Kelvin)            257.05   262.34   276.16   337.21   363.15
                              407.94   471.59   484.04   561.72   588.43
                              604.45   643.87   680.26   700.77   732.10
                              807.80   876.67   885.46   953.54  1030.91
                             1122.45  1173.19  1197.56  1217.81  1247.11
                             1312.02  1338.85  1357.01  1398.63  1429.17
                             1434.40  1441.47  1464.63  1479.74  1528.95
                             1558.63  1579.13  1603.44  1632.90  1676.26
                             1725.15  1741.03  1754.99  1759.29  1802.83
                             1810.77  1847.59  1868.52  1910.58  1927.85
                             1958.82  1979.94  1986.15  1995.85  2023.19
                             2049.64  2055.86  2078.80  2149.86  2165.05
                             2181.31  2188.79  2194.95  2202.98  2213.16
                             2228.75  2241.51  2330.21  2354.76  2396.64
                             4152.45  4218.21  4242.56  4392.04  4399.45
                             4427.03  4441.66  4461.28  4477.50  4488.74
                             4499.30  4506.77  4508.71  4519.88  4556.78
                             4639.48  5181.14  5357.60

 Zero-point correction=                           0.290041 (Hartree/Particle)
 Thermal correction to Energy=                    0.304574
 Thermal correction to Enthalpy=                  0.305518
 Thermal correction to Gibbs Free Energy=         0.246805
 Sum of electronic and zero-point Energies=           -648.796997
 Sum of electronic and thermal Energies=              -648.782465
 Sum of electronic and thermal Enthalpies=            -648.781520
 Sum of electronic and thermal Free Energies=         -648.840234

                     E (Thermal)             CV                S
                      KCal/Mol        Cal/Mol-Kelvin    Cal/Mol-Kelvin
 Total                  191.123             55.835            123.573
 Electronic               0.000              0.000              0.000
 Translational            0.889              2.981             41.874
 Rotational               0.889              2.981             32.420
 Vibrational            189.346             49.874             49.279
 Vibration     1          0.593              1.986              7.218
 Vibration     2          0.593              1.984              5.987
 Vibration     3          0.596              1.975              4.545
 Vibration     4          0.602              1.955              3.633
 Vibration     5          0.612              1.924              2.953
 Vibration     6          0.629              1.869              2.342
 Vibration     7          0.630              1.864              2.304
 Vibration     8          0.634              1.851              2.209
 Vibration     9          0.654              1.788              1.845
 Vibration    10          0.664              1.759              1.714
 Vibration    11          0.682              1.704              1.512
 Vibration    12          0.711              1.620              1.271
 Vibration    13          0.717              1.603              1.229
 Vibration    14          0.758              1.491              0.999
 Vibration    15          0.773              1.451              0.930
 Vibration    16          0.783              1.427              0.892
 Vibration    17          0.807              1.366              0.803
 Vibration    18          0.830              1.310              0.730
 Vibration    19          0.843              1.279              0.691
 Vibration    20          0.864              1.230              0.636
 Vibration    21          0.917              1.115              0.521
 Vibration    22          0.968              1.012              0.434
 Vibration    23          0.975              0.999              0.424

                           ! Non-Optimized Parameters !
 Normal termination of Gaussian 16 at Thu Dec 10 17:56:56 2020.

 ----------------------------------------------------------------------
 # B3LYP/6-311++G(d,p) empiricaldispersion=gd3bj scf=xqc pop=npa geom=c
 heck
 ----------------------------------------------------------------------

 ---------------------------------------
 CID_110254194_JID_5951_Energie_neutraal
 ---------------------------------------
 Structure from the checkpoint file:  "JID_5951.chk"
 Charge =  0 Multiplicity = 1

 SCF Done:  E(RB3LYP) =  -649.267572251     A.U. after   15 cycles
 Normal termination of Gaussian 16 at Thu Dec 10 18:02:28 2020.

 ----------------------------------------------------------------------
 # B3LYP/6-311++G(d,p) empiricaldispersion=gd3bj scf=xqc pop=npa geom=c
 heck
 ----------------------------------------------------------------------

 -------------------------------------
 CID_110254194_JID_5951_Energie_kation
 -------------------------------------
 Structure from the checkpoint file:  "JID_5951.chk"
 Charge =  1 Multiplicity = 2

 SCF Done:  E(UB3LYP) =  -648.983766703     A.U. after   26 cycles
 Normal termination of Gaussian 16 at Thu Dec 10 18:16:00 2020.
 Gaussian 16:  ES64L-G16RevA.03 25-Dec-2016

 ----------------------------------------------------------------------
 # B3LYP/6-311++G(d,p) empiricaldispersion=gd3bj scf=xqc pop=npa geom=c
 heck
 ----------------------------------------------------------------------

 ------------------------------------
 CID_110254194_JID_5951_Energie_anion
 ------------------------------------
 Structure from the checkpoint file:  "JID_5951.chk"
 Charge = -1 Multiplicity = 2

                         Standard orientation:
 ---------------------------------------------------------------------
 Center     Atomic      Atomic             Coordinates (Angstroms)
 Number     Number       Type             X           Y           Z
 ---------------------------------------------------------------------
      1          6           0        3.616238   -0.785128    1.735208
      2          6           0        3.319936    0.266740    0.661097
      3          6           0        4.596839    0.579884   -0.126283
      4          7           0        2.262195   -0.194472   -0.242605
      5          6           0        1.894604    0.781353   -1.278290
      6          6           0        0.519674    0.318075   -1.802443
      7          6           0        0.025143   -0.721462   -0.759597
      8          6           0        0.997206   -0.516929    0.417107
      9          6           0       -1.417933   -0.563417   -0.356264
     10          7           0       -1.806541    0.658348    0.030703
     11          6           0       -3.088136    0.794637    0.411788
     12          7           0       -4.022547   -0.177140    0.461311
     13          6           0       -3.607548   -1.382045    0.070444
     14          6           0       -2.307584   -1.641862   -0.358254
     15          7           0       -3.496898    2.053116    0.757596
     16          1           0        3.865852   -1.743123    1.264791
     17          1           0        2.767669   -0.942666    2.407289
     18          1           0        4.467232   -0.468174    2.347181
     19          1           0        2.992437    1.198372    1.170837
     20          1           0        4.915660   -0.303746   -0.690935
     21          1           0        4.456076    1.404715   -0.830735
     22          1           0        5.402773    0.863334    0.558817
     23          1           0        2.653168    0.814552   -2.065041
     24          1           0        1.812224    1.799769   -0.851876
     25          1           0       -0.176474    1.157073   -1.863276
     26          1           0        0.592116   -0.136583   -2.794401
     27          1           0        0.172034   -1.732338   -1.151994
     28          1           0        0.634032    0.310766    1.055881
     29          1           0        1.084844   -1.414559    1.034365
     30          1           0       -4.352052   -2.176514    0.104558
     31          1           0       -1.997739   -2.632653   -0.670213
     32          1           0       -4.362310    2.120869    1.272203
     33          1           0       -2.771621    2.722872    0.966424
 ---------------------------------------------------------------------

 SCF Done:  E(UB3LYP) =  -649.255843690     A.U. after   33 cycles
 SCF Done:  E(UB3LYP) =  -649.255843690     a.u. after    1 cycles

 The electronic state is 2-A.
 Alpha  occ. eigenvalues --  -14.21277 -14.19252 -14.16760 -14.16572 -10.14416
 Alpha  occ. eigenvalues --  -10.09388 -10.08035 -10.07801 -10.07428 -10.07273
 Alpha  occ. eigenvalues --  -10.06079 -10.05405 -10.05319 -10.05241 -10.04368
 Alpha  occ. eigenvalues --   -0.87044  -0.82584  -0.78397  -0.75699  -0.69588
 Alpha  occ. eigenvalues --   -0.65214  -0.62467  -0.61587  -0.57915  -0.53245
 Alpha  occ. eigenvalues --   -0.51681  -0.49909  -0.46430  -0.45164  -0.42309
 Alpha  occ. eigenvalues --   -0.40444  -0.39322  -0.36227  -0.35822  -0.34700
 Alpha  occ. eigenvalues --   -0.34424  -0.32961  -0.31183  -0.30355  -0.29854
 Alpha  occ. eigenvalues --   -0.28607  -0.28372  -0.27964  -0.27239  -0.24856
 Alpha  occ. eigenvalues --   -0.24199  -0.22951  -0.22722  -0.22536  -0.21476
 Alpha  occ. eigenvalues --   -0.20529  -0.18308  -0.17481  -0.12319  -0.11421
 Alpha  occ. eigenvalues --   -0.10958   0.05061
 Alpha virt. eigenvalues --    0.06513   0.07511   0.07996   0.08089   0.09125
 Alpha virt. eigenvalues --    0.09346   0.10295   0.10578   0.11195   0.11439
 Alpha virt. eigenvalues --    0.11741   0.11966   0.12428   0.13395   0.13527

  Beta  occ. eigenvalues --  -14.21280 -14.19243 -14.16550 -14.16365 -10.14451
  Beta  occ. eigenvalues --  -10.09380 -10.08026 -10.07515 -10.07386 -10.06985
  Beta  occ. eigenvalues --  -10.06102 -10.05386 -10.05290 -10.05210 -10.04464
  Beta  occ. eigenvalues --   -0.86800  -0.82554  -0.78246  -0.75205  -0.69512
  Beta  occ. eigenvalues --   -0.65001  -0.62382  -0.61490  -0.57840  -0.52803
  Beta  occ. eigenvalues --   -0.51622  -0.49819  -0.46361  -0.45105  -0.42141
  Beta  occ. eigenvalues --   -0.40349  -0.39268  -0.36116  -0.35741  -0.34622
  Beta  occ. eigenvalues --   -0.34354  -0.32874  -0.30620  -0.30244  -0.29772
  Beta  occ. eigenvalues --   -0.28531  -0.28203  -0.27907  -0.27197  -0.24575
  Beta  occ. eigenvalues --   -0.24120  -0.22894  -0.22648  -0.22456  -0.21427
  Beta  occ. eigenvalues --   -0.19913  -0.18021  -0.16141  -0.12093  -0.11142
  Beta  occ. eigenvalues --   -0.10667
  Beta virt. eigenvalues --    0.07133   0.07581   0.08124   0.08487   0.09262
  Beta virt. eigenvalues --    0.09475   0.09906   0.10567   0.10695   0.11281
  Beta virt. eigenvalues --    0.11535   0.11947   0.12059   0.12602   0.13437

 Mulliken charges and spin densities:
               1          2
     1  C    0.300939  -0.801733
     2  C   -0.706074   0.756004
     3  C    0.645267  -1.143012
     4  N    0.267652   0.066962
     5  C    0.088658  -0.288651
     6  C   -0.562973  -0.115540
     7  C    0.024717  -0.032808
     8  C   -0.471053  -0.447190
     9  C    0.141559  -0.016640
    10  N   -0.107135   0.102152
    11  C    0.028613   0.056253
    12  N   -0.227722   0.079628
    13  C   -0.364515   0.016617
    14  C   -0.094705   0.288770
    15  N   -0.277079   0.013419
    16  H    0.017988   0.126514
    17  H   -0.136739   0.281263
    18  H   -0.343988   0.483003
    19  H    0.181993  -0.100448
    20  H    0.033700   0.112695
    21  H   -0.357718   0.507473
    22  H   -0.370850   0.504208
    23  H    0.084207   0.065212
    24  H    0.001876   0.121875
    25  H    0.150956   0.029231
    26  H    0.097689   0.021727
    27  H    0.144931   0.036073
    28  H    0.121215   0.044213
    29  H    0.125989   0.034090
    30  H    0.107879   0.003707
    31  H    0.031378   0.119872
    32  H    0.206932   0.046438
    33  H    0.216409   0.028624
 Sum of Mulliken charges =  -1.00000   1.00000

 Dipole moment (field-independent basis, Debye):
    X=             -3.4503    Y=              0.1123    Z=             -1.1497  Tot=              3.6386
 Quadrupole moment (field-independent basis, Debye-Ang):
   XX=           -190.2686   YY=           -110.6030   ZZ=           -115.6879
   XY=             -7.3357   XZ=             -9.9099   YZ=              4.8571

 Summary of Natural Population Analysis:

                                       Natural Population
                Natural  -----------------------------------------------
    Atom  No    Charge         Core      Valence    Rydberg      Total
 -----------------------------------------------------------------------
      C    1   -0.28874      0.99964     2.28321    0.00589     3.28874
      C    2   -0.00515      0.99962     1.99246    0.01307     3.00515
      C    3   -0.28780      0.99964     2.28203    0.00613     3.28780
      N    4   -0.28336      0.99970     2.77222    0.01145     3.78336
      C    5   -0.08630      0.99964     2.07598    0.01068     3.08630
      C    6   -0.18533      0.99962     2.17862    0.00708     3.18533
      C    7   -0.12672      0.99957     2.11505    0.01210     3.12672
      C    8   -0.07561      0.99961     2.06528    0.01072     3.07561
      C    9    0.17942      0.99953     1.80756    0.01349     2.82058
      N   10   -0.26540      0.99964     2.75521    0.01055     3.76540
      C   11    0.28793      0.99964     1.69408    0.01835     2.71207
      N   12   -0.26028      0.99968     2.74853    0.01207     3.76028
      C   13    0.09508      0.99961     1.88948    0.01583     2.90492
      C   14   -0.18692      0.99950     2.17970    0.00772     3.18692
      N   15   -0.40104      0.99970     2.89145    0.00989     3.90104
      H   16    0.09925      0.00000     0.39950    0.00126     0.40075
      H   17    0.10004      0.00000     0.39897    0.00099     0.39996
      H   18    0.10037      0.00000     0.39858    0.00105     0.39963
      H   19    0.07540      0.00000     0.42238    0.00222     0.42460
      H   20    0.09873      0.00000     0.39993    0.00134     0.40127
      H   21    0.09977      0.00000     0.39898    0.00124     0.40023
      H   22    0.09997      0.00000     0.39890    0.00114     0.40003
      H   23    0.09431      0.00000     0.40441    0.00128     0.40569
      H   24    0.08010      0.00000     0.41851    0.00139     0.41990
      H   25    0.10793      0.00000     0.39071    0.00136     0.39207
      H   26    0.09402      0.00000     0.40503    0.00095     0.40598
      H   27    0.09843      0.00000     0.39982    0.00175     0.40157
      H   28    0.08629      0.00000     0.41207    0.00163     0.41371
      H   29    0.09682      0.00000     0.40200    0.00118     0.40318
      H   30    0.07887      0.00000     0.41995    0.00119     0.42113
      H   31    0.10000      0.00000     0.39892    0.00108     0.40000
      H   32    0.18938      0.00000     0.30837    0.00225     0.31062
      H   33    0.19054      0.00000     0.30789    0.00157     0.30946
 =======================================================================
   * Total *   -0.00000     14.99432    40.81579    0.18989    56.00000

 Normal termination of Gaussian 16 at Thu Dec 10 18:33:26 2020.
