 Gaussian 16, Revision A.03,

 -----------------------------------------------------------
 # opt freq B3LYP/6-31G(d) empiricaldispersion=gd3bj scf=xqc
 -----------------------------------------------------------

 -----------------------------
 CID_3403159_JID_1747_neutraal
 -----------------------------
 Symbolic Z-matrix:
 Charge =  0 Multiplicity = 1

 SCF Done:  E(RB3LYP) =  -548.726137485     A.U. after   15 cycles
 SCF Done:  E(RB3LYP) =  -548.730172868     A.U. after   13 cycles
 SCF Done:  E(RB3LYP) =  -548.730826913     A.U. after   13 cycles
 SCF Done:  E(RB3LYP) =  -548.730885123     A.U. after   12 cycles
 SCF Done:  E(RB3LYP) =  -548.730966465     A.U. after   11 cycles
 SCF Done:  E(RB3LYP) =  -548.731012142     A.U. after   11 cycles
 SCF Done:  E(RB3LYP) =  -548.731024198     A.U. after   10 cycles
 SCF Done:  E(RB3LYP) =  -548.731028511     A.U. after   10 cycles
 SCF Done:  E(RB3LYP) =  -548.731031015     A.U. after    9 cycles
 SCF Done:  E(RB3LYP) =  -548.731034110     A.U. after   10 cycles
 SCF Done:  E(RB3LYP) =  -548.731034889     A.U. after    9 cycles
 SCF Done:  E(RB3LYP) =  -548.731035374     A.U. after    9 cycles
 SCF Done:  E(RB3LYP) =  -548.731035475     A.U. after    8 cycles
 Optimization completed.
    -- Stationary point found.
 Normal termination of Gaussian 16 at Tue Dec  8 20:59:52 2020.

 --------------------------------------------------------------------
 #N Geom=AllCheck Guess=TCheck SCRF=Check GenChk RB3LYP/6-31G(d) Freq
 --------------------------------------------------------------------

 Structure from the checkpoint file:  "JID_1747.chk"
 -----------------------------
 CID_3403159_JID_1747_neutraal
 -----------------------------
 Charge =  0 Multiplicity = 1

 SCF Done:  E(RB3LYP) =  -548.731035475     A.U. after    1 cycles

  Exact polarizability: 108.030  -0.782  89.855   7.358  -5.045  55.018
 Approx polarizability: 144.440  -9.761 159.165  12.288 -13.737  83.346

                      1                      2                      3
                      A                      A                      A
 Frequencies --     34.2637                60.6037                79.0398
 Red. masses --      4.5126                 5.6474                 7.1220
 Frc consts  --      0.0031                 0.0122                 0.0262
 IR Inten    --      6.3851                 1.7393                 5.8991

                      4                      5                      6
                      A                      A                      A
 Frequencies --    124.9884               166.6503               200.8161
 Red. masses --      2.7901                 4.5324                 4.5817
 Frc consts  --      0.0257                 0.0742                 0.1089
 IR Inten    --      1.6826                 5.2036                23.2279

                      7                      8                      9
                      A                      A                      A
 Frequencies --    252.4662               306.3483               350.9206
 Red. masses --      4.6137                 1.2862                 2.2366
 Frc consts  --      0.1733                 0.0711                 0.1623
 IR Inten    --      6.9876               131.3920                40.2871

                     10                     11                     12
                      A                      A                      A
 Frequencies --    368.4333               428.1313               515.1306
 Red. masses --      1.7491                 3.7254                 3.9554
 Frc consts  --      0.1399                 0.4023                 0.6184
 IR Inten    --      7.8600                 8.2207                 2.1830

                     13                     14                     15
                      A                      A                      A
 Frequencies --    526.9033               552.2572               609.0371
 Red. masses --      3.3564                 4.5646                 1.2269
 Frc consts  --      0.5490                 0.8202                 0.2681
 IR Inten    --      6.4450                 1.4540                24.7222

                     16                     17                     18
                      A                      A                      A
 Frequencies --    644.6417               716.8866               794.3393
 Red. masses --      4.3316                 3.2404                 1.5067
 Frc consts  --      1.0606                 0.9812                 0.5601
 IR Inten    --     14.4762                45.9943                 1.8982

                     19                     20                     21
                      A                      A                      A
 Frequencies --    873.2228               889.3769               901.5921
 Red. masses --      1.8488                 7.1503                 3.5335
 Frc consts  --      0.8306                 3.3323                 1.6923
 IR Inten    --     26.9116                 2.1071                14.3804

                     22                     23                     24
                      A                      A                      A
 Frequencies --    904.4712               936.5628               966.0447
 Red. masses --      6.4543                 4.3652                 2.1475
 Frc consts  --      3.1109                 2.2560                 1.1808
 IR Inten    --      4.2731                 5.1339                 1.9159

                     25                     26                     27
                      A                      A                      A
 Frequencies --    974.7727              1048.4325              1089.2302
 Red. masses --      1.6885                 1.8133                 3.6644
 Frc consts  --      0.9453                 1.1743                 2.5615
 IR Inten    --      9.0718                20.1887               119.8432

                     28                     29                     30
                      A                      A                      A
 Frequencies --   1120.0058              1134.5146              1182.8658
 Red. masses --      1.2429                 2.5087                 2.6475
 Frc consts  --      0.9186                 1.9025                 2.1825
 IR Inten    --      1.9273                 2.6338                31.3349

                     31                     32                     33
                      A                      A                      A
 Frequencies --   1222.1818              1288.6678              1299.7107
 Red. masses --      1.2486                 1.4997                 1.6798
 Frc consts  --      1.0989                 1.4673                 1.6719
 IR Inten    --     23.3785                11.8014                39.4421

                     34                     35                     36
                      A                      A                      A
 Frequencies --   1325.6724              1399.0166              1406.0382
 Red. masses --      1.7466                 1.4328                 1.1949
 Frc consts  --      1.8085                 1.6523                 1.3917
 IR Inten    --     46.3073                23.8503                38.1361

                     37                     38                     39
                      A                      A                      A
 Frequencies --   1424.0317              1426.9091              1450.1007
 Red. masses --      1.1205                 1.3032                 2.1339
 Frc consts  --      1.3387                 1.5633                 2.6438
 IR Inten    --     35.6298                35.9224                33.2682

                     40                     41                     42
                      A                      A                      A
 Frequencies --   1493.4718              1512.8855              1532.9888
 Red. masses --      1.4474                 1.5608                 1.0983
 Frc consts  --      1.9021                 2.1048                 1.5207
 IR Inten    --     30.6391                71.5224                 3.1934

                     43                     44                     45
                      A                      A                      A
 Frequencies --   1603.3152              1621.9613              1754.5551
 Red. masses --      7.7110                 9.8752                 7.9209
 Frc consts  --     11.6788                15.3065                14.3667
 IR Inten    --     32.8558                 2.6816               318.0444

                     46                     47                     48
                      A                      A                      A
 Frequencies --   3055.2407              3073.5368              3084.1420
 Red. masses --      1.0621                 1.0630                 1.0669
 Frc consts  --      5.8413                 5.9164                 5.9791
 IR Inten    --     24.1412                 1.8190                21.5840

                     49                     50                     51
                      A                      A                      A
 Frequencies --   3106.1473              3116.9279              3160.4531
 Red. masses --      1.0990                 1.1031                 1.1005
 Frc consts  --      6.2471                 6.3140                 6.4764
 IR Inten    --      0.5958                50.0710                 7.8063

                     52                     53                     54
                      A                      A                      A
 Frequencies --   3228.5530              3596.3807              3743.6572
 Red. masses --      1.0951                 1.0758                 1.0659
 Frc consts  --      6.7252                 8.1981                 8.8017
 IR Inten    --      5.9796                37.0697                 9.8883

 - Thermochemistry -
 -------------------
 Temperature   298.150 Kelvin.  Pressure   1.00000 Atm.
 Atom     1 has atomic number  6 and mass  12.00000

 Molecular mass:   155.06948 amu.
 Principal axes and moments of inertia in atomic units:
                           1         2         3
     Eigenvalues --   955.304462498.269143174.90235
           X            0.99982  -0.01736   0.00727
           Y            0.01738   0.99985  -0.00269
           Z           -0.00723   0.00281   0.99997
 This molecule is an asymmetric top.
 Rotational symmetry number  1.
 Warning -- assumption of classical behavior for rotation
           may cause significant error
 Rotational temperatures (Kelvin)      0.09067     0.03467     0.02728
 Rotational constants (GHZ):           1.88918     0.72240     0.56844
 Zero-point vibrational energy     416775.9 (Joules/Mol)
                                   99.61184 (Kcal/Mol)
 Warning -- explicit consideration of  15 degrees of freedom as
           vibrations may cause significant error
 Vibrational temperatures:     49.30    87.20   113.72   179.83   239.77
          (Kelvin)            288.93   363.24   440.77   504.90   530.09
                              615.99   741.16   758.10   794.57   876.27
                              927.50  1031.44  1142.88  1256.37  1279.62
                             1297.19  1301.33  1347.50  1389.92  1402.48
                             1508.46  1567.16  1611.44  1632.31  1701.88
                             1758.45  1854.11  1869.99  1907.35  2012.87
                             2022.98  2048.86  2053.00  2086.37  2148.77
                             2176.70  2205.63  2306.81  2333.64  2524.41
                             4395.81  4422.13  4437.39  4469.05  4484.56
                             4547.19  4645.17  5174.39  5386.29

 Zero-point correction=                           0.158742 (Hartree/Particle)
 Thermal correction to Energy=                    0.169433
 Thermal correction to Enthalpy=                  0.170377
 Thermal correction to Gibbs Free Energy=         0.121104
 Sum of electronic and zero-point Energies=           -548.572294
 Sum of electronic and thermal Energies=              -548.561602
 Sum of electronic and thermal Enthalpies=            -548.560658
 Sum of electronic and thermal Free Energies=         -548.609931

                     E (Thermal)             CV                S
                      KCal/Mol        Cal/Mol-Kelvin    Cal/Mol-Kelvin
 Total                  106.321             38.555            103.704
 Electronic               0.000              0.000              0.000
 Translational            0.889              2.981             41.026
 Rotational               0.889              2.981             30.406
 Vibrational            104.544             32.593             32.273
 Vibration     1          0.594              1.983              5.566
 Vibration     2          0.597              1.973              4.437
 Vibration     3          0.600              1.963              3.915
 Vibration     4          0.610              1.928              3.022
 Vibration     5          0.624              1.883              2.473
 Vibration     6          0.638              1.839              2.126
 Vibration     7          0.664              1.759              1.713
 Vibration     8          0.697              1.662              1.382
 Vibration     9          0.728              1.573              1.162
 Vibration    10          0.741              1.537              1.086
 Vibration    11          0.790              1.409              0.865
 Vibration    12          0.870              1.216              0.621
 Vibration    13          0.882              1.190              0.594
 Vibration    14          0.908              1.135              0.540
 Vibration    15          0.968              1.013              0.434

                           ! Non-Optimized Parameters !
 Normal termination of Gaussian 16 at Tue Dec  8 21:04:04 2020.

 ----------------------------------------------------------------------
 # B3LYP/6-311++G(d,p) empiricaldispersion=gd3bj scf=xqc pop=npa geom=c
 heck
 ----------------------------------------------------------------------

 -------------------------------------
 CID_3403159_JID_1747_Energie_neutraal
 -------------------------------------
 Structure from the checkpoint file:  "JID_1747.chk"
 Charge =  0 Multiplicity = 1

 SCF Done:  E(RB3LYP) =  -548.901333607     A.U. after   15 cycles
 Normal termination of Gaussian 16 at Tue Dec  8 21:06:26 2020.

 ----------------------------------------------------------------------
 # B3LYP/6-311++G(d,p) empiricaldispersion=gd3bj scf=xqc pop=npa geom=c
 heck
 ----------------------------------------------------------------------

 -----------------------------------
 CID_3403159_JID_1747_Energie_kation
 -----------------------------------
 Structure from the checkpoint file:  "JID_1747.chk"
 Charge =  1 Multiplicity = 2

 SCF Done:  E(UB3LYP) =  -548.558115596     A.U. after   30 cycles
 Normal termination of Gaussian 16 at Tue Dec  8 21:11:46 2020.
 Gaussian 16:  ES64L-G16RevA.03 25-Dec-2016

 ----------------------------------------------------------------------
 # B3LYP/6-311++G(d,p) empiricaldispersion=gd3bj scf=xqc pop=npa geom=c
 heck
 ----------------------------------------------------------------------

 ----------------------------------
 CID_3403159_JID_1747_Energie_anion
 ----------------------------------
 Structure from the checkpoint file:  "JID_1747.chk"
 Charge = -1 Multiplicity = 2

                         Standard orientation:
 ---------------------------------------------------------------------
 Center     Atomic      Atomic             Coordinates (Angstroms)
 Number     Number       Type             X           Y           Z
 ---------------------------------------------------------------------
      1          6           0       -2.517627    0.573603   -0.153770
      2          6           0       -3.077512   -0.809245   -0.168277
      3          7           0       -2.177612   -1.721049   -0.023516
      4          7           0       -0.900048   -1.066062    0.103923
      5          6           0       -1.077431    0.211975    0.045222
      6          6           0       -0.013967    1.262959    0.076759
      7          8           0       -0.314214    2.401461   -0.282477
      8          7           0        1.242108    0.945573    0.496406
      9          6           0        1.797686   -0.315246    0.991821
     10          6           0        2.393679   -1.161759   -0.133924
     11          8           0        3.396545   -0.453940   -0.852534
     12          1           0       -2.676183    1.129468   -1.086249
     13          1           0       -2.917539    1.203695    0.651178
     14          1           0       -4.123311   -1.077450   -0.280546
     15          1           0        1.862620    1.745578    0.470439
     16          1           0        2.584657   -0.051870    1.705397
     17          1           0        1.022749   -0.877975    1.513631
     18          1           0        2.882667   -2.041254    0.297136
     19          1           0        1.586943   -1.508991   -0.791772
     20          1           0        2.938651    0.215673   -1.383792
 ---------------------------------------------------------------------

 SCF Done:  E(UB3LYP) =  -548.925820490     A.U. after   23 cycles

 The electronic state is 2-A.
 Alpha  occ. eigenvalues --  -19.01259 -18.92158 -14.18955 -14.16010 -14.14109
 Alpha  occ. eigenvalues --  -10.10343 -10.09310 -10.07761 -10.02904 -10.02133
 Alpha  occ. eigenvalues --  -10.01873  -0.91325  -0.87769  -0.82988  -0.77540
 Alpha  occ. eigenvalues --   -0.64667  -0.61787  -0.59516  -0.51657  -0.47911
 Alpha  occ. eigenvalues --   -0.41409  -0.40444  -0.38729  -0.36629  -0.33800
 Alpha  occ. eigenvalues --   -0.33192  -0.30481  -0.29602  -0.28758  -0.26841
 Alpha  occ. eigenvalues --   -0.25317  -0.24466  -0.22354  -0.22048  -0.19859
 Alpha  occ. eigenvalues --   -0.17196  -0.13484  -0.11607  -0.11221  -0.10123
 Alpha  occ. eigenvalues --   -0.09472   0.04457
 Alpha virt. eigenvalues --    0.08949   0.10253   0.10349   0.11002   0.12588
 Alpha virt. eigenvalues --    0.13428   0.13780   0.14305   0.15120   0.15534
 Alpha virt. eigenvalues --    0.17284   0.17872   0.18240   0.19008   0.19979

  Beta  occ. eigenvalues --  -19.01254 -18.91896 -14.18889 -14.16086 -14.13655
  Beta  occ. eigenvalues --  -10.10172 -10.09302 -10.07766 -10.02487 -10.02207
  Beta  occ. eigenvalues --  -10.01518  -0.91313  -0.87312  -0.82445  -0.77330
  Beta  occ. eigenvalues --   -0.64063  -0.61728  -0.58971  -0.51523  -0.47376
  Beta  occ. eigenvalues --   -0.40838  -0.40211  -0.38478  -0.36503  -0.33396
  Beta  occ. eigenvalues --   -0.33055  -0.29663  -0.29176  -0.28443  -0.26737
  Beta  occ. eigenvalues --   -0.24797  -0.23628  -0.22120  -0.21863  -0.18417
  Beta  occ. eigenvalues --   -0.17079  -0.13299  -0.10806  -0.09647  -0.09295
  Beta  occ. eigenvalues --   -0.08754
  Beta virt. eigenvalues --    0.08876   0.10213   0.10298   0.10833   0.11642
  Beta virt. eigenvalues --    0.12603   0.13465   0.13743   0.14265   0.15164
  Beta virt. eigenvalues --    0.17165   0.17279   0.17880   0.18239   0.18999

 Mulliken charges and spin densities:
               1          2
     1  C   -0.354835  -0.086460
     2  C   -0.242300   0.339961
     3  N   -0.044143  -0.068835
     4  N   -0.190585   0.237927
     5  C   -0.111085   0.279274
     6  C    0.091827   0.061389
     7  O   -0.449879   0.098315
     8  N   -0.390736   0.026342
     9  C   -0.233018   0.024927
    10  C   -0.239603  -0.072901
    11  O   -0.310063   0.009231
    12  H    0.119355   0.067729
    13  H    0.116132   0.048020
    14  H    0.104561  -0.018252
    15  H    0.308426  -0.004533
    16  H    0.130353   0.007770
    17  H    0.183270  -0.005118
    18  H    0.122026  -0.003269
    19  H    0.153967   0.040713
    20  H    0.236331   0.017769
 Sum of Mulliken charges =  -1.00000   1.00000

 Dipole moment (field-independent basis, Debye):
    X=              2.9401    Y=              0.4580    Z=              1.0554  Tot=              3.1572
 Quadrupole moment (field-independent basis, Debye-Ang):
   XX=            -91.0171   YY=            -94.0478   ZZ=            -69.3849
   XY=             -2.6060   XZ=              2.8628   YZ=              0.6150

 Summary of Natural Population Analysis:

                                       Natural Population
                Natural  -----------------------------------------------
    Atom  No    Charge         Core      Valence    Rydberg      Total
 -----------------------------------------------------------------------
      C    1   -0.25913      0.99961     2.25238    0.00714     3.25913
      C    2    0.11205      0.99967     1.87227    0.01601     2.88795
      N    3   -0.18376      0.99970     2.66835    0.01571     3.68376
      N    4   -0.10495      0.99964     2.59066    0.01465     3.60495
      C    5    0.12754      0.99956     1.85790    0.01499     2.87246
      C    6    0.34415      0.99961     1.63491    0.02133     2.65585
      O    7   -0.31724      0.99988     3.31115    0.00621     4.31724
      N    8   -0.32396      0.99967     2.80926    0.01503     3.82396
      C    9   -0.10299      0.99963     2.09379    0.00958     3.10299
      C   10   -0.01881      0.99960     2.00615    0.01307     3.01881
      O   11   -0.37916      0.99990     3.37228    0.00698     4.37916
      H   12    0.12699      0.00000     0.37167    0.00134     0.37301
      H   13    0.12107      0.00000     0.37762    0.00131     0.37893
      H   14    0.07475      0.00000     0.42387    0.00138     0.42525
      H   15    0.18459      0.00000     0.31313    0.00228     0.31541
      H   16    0.08455      0.00000     0.41440    0.00105     0.41545
      H   17    0.11655      0.00000     0.38215    0.00130     0.38345
      H   18    0.07534      0.00000     0.42251    0.00215     0.42466
      H   19    0.09387      0.00000     0.40352    0.00260     0.40613
      H   20    0.22854      0.00000     0.26819    0.00327     0.27146
 =======================================================================
   * Total *    0.00000     10.99647    29.84616    0.15737    41.00000

 Normal termination of Gaussian 16 at Tue Dec  8 21:16:42 2020.
