 Gaussian 16, Revision A.03,

 -----------------------------------------------------------
 # opt freq B3LYP/6-31G(d) empiricaldispersion=gd3bj scf=xqc
 -----------------------------------------------------------

 -------------------------------
 CID_131069937_JID_3723_neutraal
 -------------------------------
 Symbolic Z-matrix:
 Charge =  0 Multiplicity = 1

 SCF Done:  E(RB3LYP) =  -594.107624784     A.U. after   14 cycles
 SCF Done:  E(RB3LYP) =  -594.116380878     A.U. after   12 cycles
 SCF Done:  E(RB3LYP) =  -594.117096840     A.U. after   12 cycles
 SCF Done:  E(RB3LYP) =  -594.117185025     A.U. after   11 cycles
 SCF Done:  E(RB3LYP) =  -594.117230023     A.U. after   10 cycles
 SCF Done:  E(RB3LYP) =  -594.117242454     A.U. after    9 cycles
 SCF Done:  E(RB3LYP) =  -594.117246790     A.U. after   10 cycles
 SCF Done:  E(RB3LYP) =  -594.117248066     A.U. after    8 cycles
 SCF Done:  E(RB3LYP) =  -594.117248498     A.U. after    8 cycles
 SCF Done:  E(RB3LYP) =  -594.117248629     A.U. after    8 cycles
 SCF Done:  E(RB3LYP) =  -594.117248673     A.U. after    7 cycles
 SCF Done:  E(RB3LYP) =  -594.117248687     A.U. after    7 cycles
 Optimization completed.
    -- Stationary point found.
 Normal termination of Gaussian 16 at Mon Dec 14 16:29:57 2020.

 --------------------------------------------------------------------
 #N Geom=AllCheck Guess=TCheck SCRF=Check GenChk RB3LYP/6-31G(d) Freq
 --------------------------------------------------------------------

 Structure from the checkpoint file:  "JID_3723.chk"
 -------------------------------
 CID_131069937_JID_3723_neutraal
 -------------------------------
 Charge =  0 Multiplicity = 1

 SCF Done:  E(RB3LYP) =  -594.117248687     A.U. after    1 cycles

  Exact polarizability: 116.530  -2.272 117.581  -4.593  -5.336  83.679
 Approx polarizability: 148.654  -4.729 231.268  -7.455 -22.608 121.395

                      1                      2                      3
                      A                      A                      A
 Frequencies --     33.1471                58.9890                86.4018
 Red. masses --      2.5633                 5.1308                 4.2806
 Frc consts  --      0.0017                 0.0105                 0.0188
 IR Inten    --      0.1612                 0.0899                 3.2609

                      4                      5                      6
                      A                      A                      A
 Frequencies --    144.7736               158.2109               214.5096
 Red. masses --      8.9128                 4.9564                 1.2140
 Frc consts  --      0.1101                 0.0731                 0.0329
 IR Inten    --      7.7813                 2.2322                 0.0445

                      7                      8                      9
                      A                      A                      A
 Frequencies --    240.4125               251.0370               277.2548
 Red. masses --      1.3239                 3.0052                 1.9423
 Frc consts  --      0.0451                 0.1116                 0.0880
 IR Inten    --      0.1902                 1.7024                 0.1202

                     10                     11                     12
                      A                      A                      A
 Frequencies --    292.2936               313.8186               357.4268
 Red. masses --      4.1221                 3.1582                 2.2216
 Frc consts  --      0.2075                 0.1833                 0.1672
 IR Inten    --      0.0035                 3.1171                 2.1515

                     13                     14                     15
                      A                      A                      A
 Frequencies --    374.6072               431.4199               461.5108
 Red. masses --      3.0859                 3.5505                 3.7706
 Frc consts  --      0.2551                 0.3893                 0.4732
 IR Inten    --      2.2561                 7.0822                 6.4815

                     16                     17                     18
                      A                      A                      A
 Frequencies --    512.5817               578.6300               597.8517
 Red. masses --      3.9179                 3.4703                 3.4594
 Frc consts  --      0.6065                 0.6846                 0.7285
 IR Inten    --      0.3523                 2.0539                 2.0837

                     19                     20                     21
                      A                      A                      A
 Frequencies --    634.8897               666.1773               706.7195
 Red. masses --      2.1734                 5.4683                 7.9930
 Frc consts  --      0.5162                 1.4298                 2.3521
 IR Inten    --      0.0506                 4.8364                38.3179

                     22                     23                     24
                      A                      A                      A
 Frequencies --    758.4276               768.3137               809.1505
 Red. masses --      1.3801                 7.8146                 1.6408
 Frc consts  --      0.4677                 2.7179                 0.6329
 IR Inten    --      1.4788                 0.0758                 0.0582

                     25                     26                     27
                      A                      A                      A
 Frequencies --    838.3826               900.9067               929.6799
 Red. masses --      2.1412                 2.5027                 1.7824
 Frc consts  --      0.8867                 1.1968                 0.9076
 IR Inten    --     61.5955                 0.8898                 0.0291

                     28                     29                     30
                      A                      A                      A
 Frequencies --    943.1590               951.0377               966.6035
 Red. masses --      1.8403                 1.3087                 1.2759
 Frc consts  --      0.9645                 0.6974                 0.7024
 IR Inten    --      2.0013                 4.4081                 0.0062

                     31                     32                     33
                      A                      A                      A
 Frequencies --    967.9206               989.1682              1031.9943
 Red. masses --      1.7013                 1.7365                 2.3789
 Frc consts  --      0.9391                 1.0011                 1.4927
 IR Inten    --      1.2426                 0.7111                30.7754

                     34                     35                     36
                      A                      A                      A
 Frequencies --   1066.9314              1075.4244              1088.5741
 Red. masses --      2.5468                 1.4754                 1.3962
 Frc consts  --      1.7081                 1.0053                 0.9748
 IR Inten    --      1.7655                 9.5208                 0.3956

                     37                     38                     39
                      A                      A                      A
 Frequencies --   1102.4220              1133.7872              1156.5619
 Red. masses --      1.2911                 1.9524                 2.1096
 Frc consts  --      0.9245                 1.4787                 1.6626
 IR Inten    --      0.6009                 6.8000                 6.4168

                     40                     41                     42
                      A                      A                      A
 Frequencies --   1190.5542              1201.5106              1202.9869
 Red. masses --      2.1471                 2.0036                 2.2209
 Frc consts  --      1.7930                 1.7042                 1.8936
 IR Inten    --     23.8218                28.0188                14.9456

                     43                     44                     45
                      A                      A                      A
 Frequencies --   1269.8055              1336.8916              1349.1026
 Red. masses --      2.4198                 1.7833                 2.8064
 Frc consts  --      2.2988                 1.8778                 3.0094
 IR Inten    --      4.7093                 2.4859                 1.7965

                     46                     47                     48
                      A                      A                      A
 Frequencies --   1368.1395              1392.3020              1425.5298
 Red. masses --      1.4830                 1.5632                 6.2066
 Frc consts  --      1.6355                 1.7854                 7.4312
 IR Inten    --      7.6861                31.2089               282.3148

                     49                     50                     51
                      A                      A                      A
 Frequencies --   1432.4596              1452.0052              1492.1668
 Red. masses --      1.2688                 1.2357                 1.0865
 Frc consts  --      1.5340                 1.5349                 1.4254
 IR Inten    --      6.8471                 8.0932                 3.5642

                     52                     53                     54
                      A                      A                      A
 Frequencies --   1515.1858              1527.3060              1532.4995
 Red. masses --      1.0608                 1.0453                 1.2262
 Frc consts  --      1.4349                 1.4366                 1.6968
 IR Inten    --      2.6158                 3.3129                 9.5224

                     55                     56                     57
                      A                      A                      A
 Frequencies --   1539.7984              1546.5833              1662.3344
 Red. masses --      1.1303                 1.0561                 6.7485
 Frc consts  --      1.5790                 1.4884                10.9875
 IR Inten    --      8.3715                 8.7175                 1.7947

                     58                     59                     60
                      A                      A                      A
 Frequencies --   1803.7587              1859.1546              3036.7599
 Red. masses --     12.3017                12.2462                 1.0835
 Frc consts  --     23.5816                24.9391                 5.8870
 IR Inten    --    488.7747                 2.9115                 9.5292

                     61                     62                     63
                      A                      A                      A
 Frequencies --   3052.1173              3057.0914              3114.0620
 Red. masses --      1.0365                 1.0370                 1.1015
 Frc consts  --      5.6888                 5.7102                 6.2934
 IR Inten    --     23.6344                22.3835                 4.0845

                     64                     65                     66
                      A                      A                      A
 Frequencies --   3121.3722              3130.7301              3134.1603
 Red. masses --      1.1017                 1.1015                 1.1004
 Frc consts  --      6.3241                 6.3612                 6.3685
 IR Inten    --     55.4067                21.9042                32.4926

                     67                     68                     69
                      A                      A                      A
 Frequencies --   3172.0700              3173.8341              3249.0725
 Red. masses --      1.0527                 1.0596                 1.1186
 Frc consts  --      6.2409                 6.2889                 6.9572
 IR Inten    --     11.1561                 5.8733                 0.8534

                     70                     71                     72
                      A                      A                      A
 Frequencies --   3254.6920              3260.7693              3275.4920
 Red. masses --      1.0888                 1.1152                 1.1081
 Frc consts  --      6.7952                 6.9861                 7.0046
 IR Inten    --      0.4010                12.6102                 0.9012

 - Thermochemistry -
 -------------------
 Temperature   298.150 Kelvin.  Pressure   1.00000 Atm.
 Atom     1 has atomic number  6 and mass  12.00000

 Molecular mass:   179.09463 amu.
 Principal axes and moments of inertia in atomic units:
                           1         2         3
     Eigenvalues --  1482.908292594.148362976.68174
           X            0.99997   0.00083   0.00708
           Y           -0.00123   0.99836   0.05726
           Z           -0.00702  -0.05727   0.99833
 This molecule is an asymmetric top.
 Rotational symmetry number  1.
 Warning -- assumption of classical behavior for rotation
           may cause significant error
 Rotational temperatures (Kelvin)      0.05841     0.03339     0.02910
 Rotational constants (GHZ):           1.21703     0.69570     0.60629
 Zero-point vibrational energy     568246.6 (Joules/Mol)
                                  135.81419 (Kcal/Mol)
 Warning -- explicit consideration of  18 degrees of freedom as
           vibrations may cause significant error
 Vibrational temperatures:     47.69    84.87   124.31   208.30   227.63
          (Kelvin)            308.63   345.90   361.19   398.91   420.55
                              451.51   514.26   538.98   620.72   664.01
                              737.49   832.52   860.18   913.46   958.48
                             1016.81  1091.21  1105.43  1164.19  1206.25
                             1296.20  1337.60  1357.00  1368.33  1390.73
                             1392.62  1423.19  1484.81  1535.08  1547.30
                             1566.22  1586.14  1631.27  1664.03  1712.94
                             1728.71  1730.83  1826.97  1923.49  1941.06
                             1968.45  2003.21  2051.02  2060.99  2089.11
                             2146.90  2180.01  2197.45  2204.92  2215.43
                             2225.19  2391.73  2595.21  2674.91  4369.22
                             4391.32  4398.47  4480.44  4490.96  4504.42
                             4509.36  4563.90  4566.44  4674.69  4682.78
                             4691.52  4712.70

 Zero-point correction=                           0.216434 (Hartree/Particle)
 Thermal correction to Energy=                    0.228918
 Thermal correction to Enthalpy=                  0.229862
 Thermal correction to Gibbs Free Energy=         0.177492
 Sum of electronic and zero-point Energies=           -593.900815
 Sum of electronic and thermal Energies=              -593.888331
 Sum of electronic and thermal Enthalpies=            -593.887386
 Sum of electronic and thermal Free Energies=         -593.939757

                     E (Thermal)             CV                S
                      KCal/Mol        Cal/Mol-Kelvin    Cal/Mol-Kelvin
 Total                  143.648             47.678            110.222
 Electronic               0.000              0.000              0.000
 Translational            0.889              2.981             41.455
 Rotational               0.889              2.981             30.816
 Vibrational            141.871             41.716             37.951
 Vibration     1          0.594              1.983              5.632
 Vibration     2          0.596              1.974              4.491
 Vibration     3          0.601              1.959              3.740
 Vibration     4          0.616              1.908              2.740
 Vibration     5          0.621              1.893              2.571
 Vibration     6          0.644              1.819              2.005
 Vibration     7          0.657              1.779              1.800
 Vibration     8          0.663              1.761              1.723
 Vibration     9          0.678              1.716              1.551
 Vibration    10          0.688              1.688              1.461
 Vibration    11          0.702              1.647              1.342
 Vibration    12          0.733              1.560              1.133
 Vibration    13          0.746              1.524              1.061
 Vibration    14          0.792              1.402              0.854
 Vibration    15          0.819              1.335              0.762
 Vibration    16          0.868              1.222              0.627
 Vibration    17          0.935              1.077              0.488
 Vibration    18          0.956              1.036              0.453

 Optimization completed.
    -- Stationary point found.
 Normal termination of Gaussian 16 at Mon Dec 14 16:37:04 2020.

 ----------------------------------------------------------------------
 # B3LYP/6-311++G(d,p) empiricaldispersion=gd3bj scf=xqc pop=npa geom=c
 heck
 ----------------------------------------------------------------------

 ---------------------------------------
 CID_131069937_JID_3723_Energie_neutraal
 ---------------------------------------
 Structure from the checkpoint file:  "JID_3723.chk"
 Charge =  0 Multiplicity = 1

 SCF Done:  E(RB3LYP) =  -594.283846378     A.U. after   14 cycles
 Normal termination of Gaussian 16 at Mon Dec 14 16:39:53 2020.

 ----------------------------------------------------------------------
 # B3LYP/6-311++G(d,p) empiricaldispersion=gd3bj scf=xqc pop=npa geom=c
 heck
 ----------------------------------------------------------------------

 -------------------------------------
 CID_131069937_JID_3723_Energie_kation
 -------------------------------------
 Structure from the checkpoint file:  "JID_3723.chk"
 Charge =  1 Multiplicity = 2

 SCF Done:  E(UB3LYP) =  -593.940713884     A.U. after   31 cycles
 Normal termination of Gaussian 16 at Mon Dec 14 16:48:32 2020.
 Gaussian 16:  ES64L-G16RevA.03 25-Dec-2016

 ----------------------------------------------------------------------
 # B3LYP/6-311++G(d,p) empiricaldispersion=gd3bj scf=xqc pop=npa geom=c
 heck
 ----------------------------------------------------------------------

 ------------------------------------
 CID_131069937_JID_3723_Energie_anion
 ------------------------------------
 Structure from the checkpoint file:  "JID_3723.chk"
 Charge = -1 Multiplicity = 2

                         Standard orientation:
 ---------------------------------------------------------------------
 Center     Atomic      Atomic             Coordinates (Angstroms)
 Number     Number       Type             X           Y           Z
 ---------------------------------------------------------------------
      1          6           0       -1.489641   -1.249721   -1.561150
      2          6           0       -1.645037    0.098875   -0.842937
      3          6           0       -3.127107    0.413393   -0.609785
      4          6           0       -0.796715    0.131385    0.433256
      5          6           0       -1.166907    0.953648    1.645685
      6          6           0       -1.232612   -0.549066    1.706426
      7          7           0        0.623490    0.075940    0.161983
      8          6           0        1.432800   -1.068751    0.186155
      9          8           0        1.086246   -2.194554    0.476491
     10          6           0        2.807025   -0.612655   -0.218906
     11          6           0        2.768863    0.696999   -0.478081
     12          6           0        1.367347    1.189127   -0.256361
     13          8           0        0.939854    2.314660   -0.404915
     14          1           0       -1.853042   -2.069254   -0.931196
     15          1           0       -0.445797   -1.464013   -1.807709
     16          1           0       -2.062151   -1.254903   -2.495347
     17          1           0       -1.242608    0.888227   -1.492446
     18          1           0       -3.597260   -0.313130    0.063552
     19          1           0       -3.274966    1.414852   -0.195291
     20          1           0       -3.666478    0.368353   -1.561707
     21          1           0       -0.356147    1.455274    2.163447
     22          1           0       -2.093181    1.515738    1.619167
     23          1           0       -2.208882   -1.023228    1.701849
     24          1           0       -0.481872   -1.088066    2.271945
     25          1           0        3.639319   -1.302514   -0.271154
     26          1           0        3.561737    1.360827   -0.797418
 ---------------------------------------------------------------------

 SCF Done:  E(UB3LYP) =  -594.319557719     A.U. after   19 cycles

 The electronic state is 2-A.
 Alpha  occ. eigenvalues --  -18.91856 -18.91801 -14.18201 -10.09025 -10.08857
 Alpha  occ. eigenvalues --  -10.08748 -10.06021 -10.05689 -10.04921 -10.04885
 Alpha  occ. eigenvalues --  -10.03868  -9.99417  -9.99335  -0.88512  -0.86444
 Alpha  occ. eigenvalues --   -0.79384  -0.72973  -0.66949  -0.62184  -0.57386
 Alpha  occ. eigenvalues --   -0.51312  -0.49025  -0.47731  -0.45073  -0.41363
 Alpha  occ. eigenvalues --   -0.39411  -0.37253  -0.33755  -0.32235  -0.30770
 Alpha  occ. eigenvalues --   -0.30175  -0.28525  -0.28010  -0.27494  -0.27031
 Alpha  occ. eigenvalues --   -0.25272  -0.24649  -0.24007  -0.23230  -0.22990
 Alpha  occ. eigenvalues --   -0.22814  -0.21436  -0.18595  -0.16078  -0.12726
 Alpha  occ. eigenvalues --   -0.10780  -0.10011  -0.08297   0.03687
 Alpha virt. eigenvalues --    0.07982   0.09685   0.10574   0.10844   0.11543
 Alpha virt. eigenvalues --    0.12442   0.12624   0.13217   0.13816   0.14565
 Alpha virt. eigenvalues --    0.14903   0.16079   0.16671   0.17957   0.18121

  Beta  occ. eigenvalues --  -18.91375 -18.91318 -14.18300 -10.09023 -10.08649
  Beta  occ. eigenvalues --  -10.08539 -10.06025 -10.05689 -10.04923 -10.04886
  Beta  occ. eigenvalues --  -10.03868  -9.99113  -9.99029  -0.87884  -0.85605
  Beta  occ. eigenvalues --   -0.79140  -0.72787  -0.66952  -0.61591  -0.57367
  Beta  occ. eigenvalues --   -0.51223  -0.48809  -0.46760  -0.44957  -0.40859
  Beta  occ. eigenvalues --   -0.39369  -0.37216  -0.33731  -0.32033  -0.30416
  Beta  occ. eigenvalues --   -0.29804  -0.28322  -0.27897  -0.26930  -0.26224
  Beta  occ. eigenvalues --   -0.24857  -0.24533  -0.23912  -0.23036  -0.22708
  Beta  occ. eigenvalues --   -0.22513  -0.19307  -0.18387  -0.16032  -0.10346
  Beta  occ. eigenvalues --   -0.09962  -0.09020  -0.07821
  Beta virt. eigenvalues --    0.07978   0.09678   0.10563   0.10826   0.11294
  Beta virt. eigenvalues --    0.11525   0.12446   0.12638   0.13218   0.13812
  Beta virt. eigenvalues --    0.14560   0.14892   0.16094   0.16684   0.17983

 Mulliken charges and spin densities:
               1          2
     1  C   -0.604681   0.008853
     2  C    0.151741   0.014795
     3  C   -0.638115  -0.005146
     4  C   -0.075981  -0.043091
     5  C   -0.166170   0.009022
     6  C   -0.342561   0.000456
     7  N    0.337410  -0.053190
     8  C   -0.232065   0.137753
     9  O   -0.400230   0.163595
    10  C   -0.133675   0.253561
    11  C   -0.181471   0.256031
    12  C   -0.164577   0.131974
    13  O   -0.394748   0.164559
    14  H    0.147061  -0.000078
    15  H    0.184067  -0.001822
    16  H    0.108341  -0.000351
    17  H    0.212508   0.000145
    18  H    0.128881   0.000419
    19  H    0.124720  -0.000030
    20  H    0.125553   0.000229
    21  H    0.175159  -0.000392
    22  H    0.109901   0.000147
    23  H    0.111610  -0.000898
    24  H    0.192862   0.000760
    25  H    0.113030  -0.018785
    26  H    0.111431  -0.018521
 Sum of Mulliken charges =  -1.00000   1.00000

 Dipole moment (field-independent basis, Debye):
    X=             -5.7850    Y=             -0.1850    Z=              0.1968  Tot=              5.7913
 Quadrupole moment (field-independent basis, Debye-Ang):
   XX=            -97.0911   YY=           -109.5764   ZZ=            -86.1631
   XY=              0.1891   XZ=              0.6462   YZ=              4.1597

 Summary of Natural Population Analysis:

                                       Natural Population
                Natural  -----------------------------------------------
    Atom  No    Charge         Core      Valence    Rydberg      Total
 -----------------------------------------------------------------------
      C    1   -0.28298      0.99965     2.27815    0.00518     3.28298
      C    2   -0.11488      0.99956     2.10763    0.00769     3.11488
      C    3   -0.28468      0.99966     2.28030    0.00472     3.28468
      C    4    0.07173      0.99953     1.91110    0.01763     2.92827
      C    5   -0.19479      0.99959     2.18727    0.00792     3.19479
      C    6   -0.19800      0.99959     2.19016    0.00825     3.19800
      N    7   -0.30124      0.99958     2.78991    0.01175     3.80124
      C    8    0.36020      0.99968     1.61798    0.02214     2.63980
      O    9   -0.27141      0.99987     3.26510    0.00644     4.27141
      C   10   -0.07615      0.99950     2.06755    0.00910     3.07615
      C   11   -0.07756      0.99950     2.06904    0.00902     3.07756
      C   12    0.36208      0.99968     1.61631    0.02194     2.63792
      O   13   -0.27124      0.99987     3.26497    0.00640     4.27124
      H   14    0.09726      0.00000     0.40186    0.00088     0.40274
      H   15    0.11172      0.00000     0.38757    0.00071     0.38828
      H   16    0.08752      0.00000     0.41156    0.00092     0.41248
      H   17    0.10540      0.00000     0.39298    0.00162     0.39460
      H   18    0.09238      0.00000     0.40667    0.00095     0.40762
      H   19    0.09838      0.00000     0.40082    0.00080     0.40162
      H   20    0.09497      0.00000     0.40413    0.00090     0.40503
      H   21    0.10897      0.00000     0.39008    0.00095     0.39103
      H   22    0.09559      0.00000     0.40341    0.00100     0.40441
      H   23    0.09493      0.00000     0.40406    0.00101     0.40507
      H   24    0.11481      0.00000     0.38416    0.00103     0.38519
      H   25    0.08846      0.00000     0.41037    0.00117     0.41154
      H   26    0.08853      0.00000     0.41029    0.00117     0.41147
 =======================================================================
   * Total *   -0.00000     12.99527    34.85343    0.15130    48.00000

 Normal termination of Gaussian 16 at Mon Dec 14 16:53:54 2020.
