 Gaussian 16, Revision A.03,

 -----------------------------------------------------------
 # opt freq B3LYP/6-31G(d) empiricaldispersion=gd3bj scf=xqc
 -----------------------------------------------------------

 -------------------------------
 CID_130442701_JID_1647_neutraal
 -------------------------------
 Symbolic Z-matrix:
 Charge =  0 Multiplicity = 1

 SCF Done:  E(RB3LYP) =  -511.599273576     A.U. after   15 cycles
 SCF Done:  E(RB3LYP) =  -511.606074519     A.U. after   12 cycles
 SCF Done:  E(RB3LYP) =  -511.608466862     A.U. after   12 cycles
 SCF Done:  E(RB3LYP) =  -511.610495732     A.U. after   12 cycles
 SCF Done:  E(RB3LYP) =  -511.611490432     A.U. after   12 cycles
 SCF Done:  E(RB3LYP) =  -511.611787795     A.U. after   11 cycles
 SCF Done:  E(RB3LYP) =  -511.611868468     A.U. after   10 cycles
 SCF Done:  E(RB3LYP) =  -511.611881732     A.U. after    9 cycles
 SCF Done:  E(RB3LYP) =  -511.611886223     A.U. after    8 cycles
 SCF Done:  E(RB3LYP) =  -511.611888007     A.U. after    9 cycles
 SCF Done:  E(RB3LYP) =  -511.611888422     A.U. after    7 cycles
 SCF Done:  E(RB3LYP) =  -511.611888530     A.U. after    7 cycles
 Optimization completed.
    -- Stationary point found.
 Normal termination of Gaussian 16 at Tue Dec  8 20:36:06 2020.

 --------------------------------------------------------------------
 #N Geom=AllCheck Guess=TCheck SCRF=Check GenChk RB3LYP/6-31G(d) Freq
 --------------------------------------------------------------------

 Structure from the checkpoint file:  "JID_1647.chk"
 -------------------------------
 CID_130442701_JID_1647_neutraal
 -------------------------------
 Charge =  0 Multiplicity = 1

 SCF Done:  E(RB3LYP) =  -511.611888530     A.U. after    1 cycles

  Exact polarizability: 144.387  -2.411  89.011  -0.596   1.193  50.788
 Approx polarizability: 205.772  -3.350 149.253  -2.281   0.951  77.965

                      1                      2                      3
                      A                      A                      A
 Frequencies --     82.2191               133.1466               168.3782
 Red. masses --      4.4162                 2.6275                 3.5545
 Frc consts  --      0.0176                 0.0274                 0.0594
 IR Inten    --      0.6511                 0.9037                 1.5058

                      4                      5                      6
                      A                      A                      A
 Frequencies --    197.1937               208.5386               256.5205
 Red. masses --      3.3729                 1.5803                 1.9654
 Frc consts  --      0.0773                 0.0405                 0.0762
 IR Inten    --      2.8519                 5.1402                20.0167

                      7                      8                      9
                      A                      A                      A
 Frequencies --    342.1340               349.2760               412.4649
 Red. masses --      3.0893                 5.3047                 3.1439
 Frc consts  --      0.2131                 0.3813                 0.3151
 IR Inten    --     19.5037                 7.8438                16.3395

                     10                     11                     12
                      A                      A                      A
 Frequencies --    473.6509               531.8110               574.0736
 Red. masses --      3.8056                 4.0335                 1.7778
 Frc consts  --      0.5030                 0.6721                 0.3452
 IR Inten    --      6.0016                17.4034               237.0952

                     13                     14                     15
                      A                      A                      A
 Frequencies --    596.1802               643.3269               700.6032
 Red. masses --      4.9812                 2.2952                 2.1045
 Frc consts  --      1.0431                 0.5597                 0.6086
 IR Inten    --     13.8814                10.2120                14.7801

                     16                     17                     18
                      A                      A                      A
 Frequencies --    731.2544               734.0418               776.8337
 Red. masses --      3.9283                 5.7044                 2.3073
 Frc consts  --      1.2376                 1.8109                 0.8204
 IR Inten    --     10.5651                 9.4453                36.0307

                     19                     20                     21
                      A                      A                      A
 Frequencies --    843.5988               879.6291               925.1336
 Red. masses --      3.3901                 2.6060                 3.6346
 Frc consts  --      1.4215                 1.1880                 1.8328
 IR Inten    --     26.0460                17.4325                 9.5325

                     22                     23                     24
                      A                      A                      A
 Frequencies --    955.1203               980.5211              1024.3321
 Red. masses --      1.2540                 2.7017                 2.2775
 Frc consts  --      0.6740                 1.5304                 1.4080
 IR Inten    --      0.2758                38.0616                 4.2634

                     25                     26                     27
                      A                      A                      A
 Frequencies --   1038.0946              1053.1811              1146.5477
 Red. masses --      3.9954                 2.1664                 2.7249
 Frc consts  --      2.5368                 1.4158                 2.1105
 IR Inten    --     39.7173                 5.7251                10.5757

                     28                     29                     30
                      A                      A                      A
 Frequencies --   1179.0739              1204.7155              1226.7855
 Red. masses --      1.3246                 1.2383                 2.3575
 Frc consts  --      1.0849                 1.0588                 2.0904
 IR Inten    --      1.7709                17.3188                66.3224

                     31                     32                     33
                      A                      A                      A
 Frequencies --   1244.3394              1282.4635              1316.5862
 Red. masses --      1.6178                 2.0694                 2.2731
 Frc consts  --      1.4759                 2.0053                 2.3214
 IR Inten    --     26.9411                25.9516                21.1888

                     34                     35                     36
                      A                      A                      A
 Frequencies --   1325.1660              1374.6669              1382.9931
 Red. masses --      1.6811                 1.5155                 1.2530
 Frc consts  --      1.7394                 1.6874                 1.4120
 IR Inten    --     29.8821                 2.1246                 5.8580

                     37                     38                     39
                      A                      A                      A
 Frequencies --   1420.3645              1457.6593              1498.8197
 Red. masses --      2.2598                 2.2667                 1.0886
 Frc consts  --      2.6861                 2.8376                 1.4409
 IR Inten    --     53.6437                 1.4029                 3.0191

                     40                     41                     42
                      A                      A                      A
 Frequencies --   1514.6023              1518.6689              1641.5632
 Red. masses --      1.1216                 1.7006                 9.8370
 Frc consts  --      1.5160                 2.3109                15.6181
 IR Inten    --      3.7299                47.2050               438.0049

                     43                     44                     45
                      A                      A                      A
 Frequencies --   1650.0954              1691.5109              1744.6182
 Red. masses --      8.1031                 6.9470                 1.0621
 Frc consts  --     12.9993                11.7111                 1.9046
 IR Inten    --     14.2461                37.0943                32.5112

                     46                     47                     48
                      A                      A                      A
 Frequencies --   2990.1291              3007.6179              3090.5756
 Red. masses --      1.0740                 1.0707                 1.0891
 Frc consts  --      5.6576                 5.7064                 6.1290
 IR Inten    --     25.2320                49.4146                35.0603

                     49                     50                     51
                      A                      A                      A
 Frequencies --   3097.8376              3194.3917              3217.3174
 Red. masses --      1.0907                 1.0865                 1.0970
 Frc consts  --      6.1667                 6.5322                 6.6905
 IR Inten    --     20.3245                 2.3778                20.9574

                     52                     53                     54
                      A                      A                      A
 Frequencies --   3425.4244              3519.3955              3583.3202
 Red. masses --      1.0519                 1.0902                 1.0767
 Frc consts  --      7.2718                 7.9557                 8.1455
 IR Inten    --      9.9635                 1.4861                36.4306

 - Thermochemistry -
 -------------------
 Temperature   298.150 Kelvin.  Pressure   1.00000 Atm.
 Atom     1 has atomic number  6 and mass  12.00000

 Molecular mass:   151.07456 amu.
 Principal axes and moments of inertia in atomic units:
                           1         2         3
     Eigenvalues --   557.971462608.024703111.37753
           X            0.99999   0.00276   0.00185
           Y           -0.00277   0.99998   0.00542
           Z           -0.00184  -0.00542   0.99998
 This molecule is an asymmetric top.
 Rotational symmetry number  1.
 Warning -- assumption of classical behavior for rotation
           may cause significant error
 Rotational temperatures (Kelvin)      0.15523     0.03321     0.02784
 Rotational constants (GHZ):           3.23447     0.69200     0.58005
 Zero-point vibrational energy     428014.9 (Joules/Mol)
                                  102.29802 (Kcal/Mol)
 Warning -- explicit consideration of  13 degrees of freedom as
           vibrations may cause significant error
 Vibrational temperatures:    118.30   191.57   242.26   283.72   300.04
          (Kelvin)            369.08   492.25   502.53   593.44   681.48
                              765.16   825.96   857.77   925.60  1008.01
                             1052.11  1056.12  1117.69  1213.75  1265.59
                             1331.06  1374.21  1410.75  1473.79  1493.59
                             1515.29  1649.63  1696.42  1733.32  1765.07
                             1790.33  1845.18  1894.27  1906.62  1977.84
                             1989.82  2043.59  2097.25  2156.47  2179.17
                             2185.03  2361.84  2374.12  2433.71  2510.12
                             4302.13  4327.29  4446.65  4457.10  4596.02
                             4629.00  4928.42  5063.63  5155.60

 Zero-point correction=                           0.163022 (Hartree/Particle)
 Thermal correction to Energy=                    0.172370
 Thermal correction to Enthalpy=                  0.173314
 Thermal correction to Gibbs Free Energy=         0.128528
 Sum of electronic and zero-point Energies=           -511.448866
 Sum of electronic and thermal Energies=              -511.439519
 Sum of electronic and thermal Enthalpies=            -511.438575
 Sum of electronic and thermal Free Energies=         -511.483360

                     E (Thermal)             CV                S
                      KCal/Mol        Cal/Mol-Kelvin    Cal/Mol-Kelvin
 Total                  108.164             36.036             94.259
 Electronic               0.000              0.000              0.000
 Translational            0.889              2.981             40.948
 Rotational               0.889              2.981             29.894
 Vibrational            106.386             30.074             23.417
 Vibration     1          0.600              1.961              3.837
 Vibration     2          0.613              1.920              2.900
 Vibration     3          0.625              1.881              2.454
 Vibration     4          0.637              1.844              2.159
 Vibration     5          0.642              1.828              2.056
 Vibration     6          0.666              1.752              1.685
 Vibration     7          0.721              1.591              1.202
 Vibration     8          0.727              1.577              1.169
 Vibration     9          0.776              1.443              0.918
 Vibration    10          0.830              1.309              0.727
 Vibration    11          0.887              1.180              0.583
 Vibration    12          0.930              1.087              0.496
 Vibration    13          0.954              1.040              0.456

                           ! Non-Optimized Parameters !
 Normal termination of Gaussian 16 at Tue Dec  8 20:39:58 2020.

 ----------------------------------------------------------------------
 # B3LYP/6-311++G(d,p) empiricaldispersion=gd3bj scf=xqc pop=npa geom=c
 heck
 ----------------------------------------------------------------------

 ---------------------------------------
 CID_130442701_JID_1647_Energie_neutraal
 ---------------------------------------
 Structure from the checkpoint file:  "JID_1647.chk"
 Charge =  0 Multiplicity = 1

 SCF Done:  E(RB3LYP) =  -511.760507160     A.U. after   15 cycles
 Normal termination of Gaussian 16 at Tue Dec  8 20:41:51 2020.

 ----------------------------------------------------------------------
 # B3LYP/6-311++G(d,p) empiricaldispersion=gd3bj scf=xqc pop=npa geom=c
 heck
 ----------------------------------------------------------------------

 -------------------------------------
 CID_130442701_JID_1647_Energie_kation
 -------------------------------------
 Structure from the checkpoint file:  "JID_1647.chk"
 Charge =  1 Multiplicity = 2

 SCF Done:  E(UB3LYP) =  -511.495361562     A.U. after   19 cycles
 Normal termination of Gaussian 16 at Tue Dec  8 20:44:50 2020.
 Gaussian 16:  ES64L-G16RevA.03 25-Dec-2016

 ----------------------------------------------------------------------
 # B3LYP/6-311++G(d,p) empiricaldispersion=gd3bj scf=xqc pop=npa geom=c
 heck
 ----------------------------------------------------------------------

 ------------------------------------
 CID_130442701_JID_1647_Energie_anion
 ------------------------------------
 Structure from the checkpoint file:  "JID_1647.chk"
 Charge = -1 Multiplicity = 2

                         Standard orientation:
 ---------------------------------------------------------------------
 Center     Atomic      Atomic             Coordinates (Angstroms)
 Number     Number       Type             X           Y           Z
 ---------------------------------------------------------------------
      1          6           0        2.877768    0.818322    0.295700
      2          6           0        1.600170    1.530069   -0.218006
      3          6           0        0.423367    0.622378   -0.038617
      4          6           0        0.591024   -0.724486   -0.021970
      5          6           0        1.847528   -1.416668   -0.138289
      6          6           0        2.959552   -0.660492   -0.043342
      7          8           0       -0.671733   -1.308248    0.043372
      8          6           0       -1.508883   -0.234641    0.061358
      9          7           0       -0.932970    0.937911    0.004055
     10          7           0       -2.849705   -0.494992    0.180995
     11          7           0       -3.750839    0.562334   -0.097300
     12          1           0        2.907274    0.908120    1.394549
     13          1           0        3.764068    1.343770   -0.075316
     14          1           0        1.460945    2.478662    0.310275
     15          1           0        1.703583    1.778207   -1.286280
     16          1           0        1.875720   -2.487222   -0.314824
     17          1           0        3.942454   -1.115122   -0.126481
     18          1           0       -3.152710   -1.378613   -0.210242
     19          1           0       -3.821105    1.116695    0.755040
     20          1           0       -3.314928    1.177817   -0.788950
 ---------------------------------------------------------------------

 SCF Done:  E(UB3LYP) =  -511.742788135     A.U. after   33 cycles
 SCF Done:  E(UB3LYP) =  -511.742788135     a.u. after    1 cycles

 The electronic state is 2-A.
 Alpha  occ. eigenvalues --  -19.08371 -14.25915 -14.23849 -14.19350 -10.18021
 Alpha  occ. eigenvalues --  -10.10357 -10.07958 -10.06688 -10.06489 -10.06143
 Alpha  occ. eigenvalues --  -10.05571  -1.02115  -0.89714  -0.80898  -0.73262
 Alpha  occ. eigenvalues --   -0.70215  -0.63767  -0.61625  -0.52841  -0.50720
 Alpha  occ. eigenvalues --   -0.49335  -0.43148  -0.42011  -0.41359  -0.38559
 Alpha  occ. eigenvalues --   -0.37709  -0.36652  -0.33921  -0.31759  -0.30975
 Alpha  occ. eigenvalues --   -0.29111  -0.26485  -0.24371  -0.22830  -0.22784
 Alpha  occ. eigenvalues --   -0.19850  -0.19313  -0.17843  -0.16444  -0.08015
 Alpha  occ. eigenvalues --    0.05111
 Alpha virt. eigenvalues --    0.06843   0.07691   0.07935   0.08766   0.09673
 Alpha virt. eigenvalues --    0.09805   0.11041   0.11776   0.11871   0.13845
 Alpha virt. eigenvalues --    0.14433   0.15957   0.16860   0.16912   0.18239

  Beta  occ. eigenvalues --  -19.08349 -14.25874 -14.23824 -14.19355 -10.17981
  Beta  occ. eigenvalues --  -10.10368 -10.07886 -10.06670 -10.06472 -10.06081
  Beta  occ. eigenvalues --  -10.05485  -1.02077  -0.89670  -0.80854  -0.73164
  Beta  occ. eigenvalues --   -0.70120  -0.63668  -0.61495  -0.52753  -0.50609
  Beta  occ. eigenvalues --   -0.49277  -0.43013  -0.41951  -0.41298  -0.38467
  Beta  occ. eigenvalues --   -0.37614  -0.36543  -0.33842  -0.31684  -0.30877
  Beta  occ. eigenvalues --   -0.29051  -0.26364  -0.24297  -0.22716  -0.22700
  Beta  occ. eigenvalues --   -0.19700  -0.19233  -0.17787  -0.16246  -0.07722
  Beta virt. eigenvalues --    0.07406   0.07876   0.08438   0.08785   0.09567
  Beta virt. eigenvalues --    0.10040   0.10412   0.11307   0.12097   0.12399
  Beta virt. eigenvalues --    0.13945   0.14671   0.15876   0.16912   0.17092

 Mulliken charges and spin densities:
               1          2
     1  C   -0.198721  -0.305368
     2  C   -0.588312  -0.201208
     3  C   -0.449733   1.140335
     4  C    3.000216  -2.868832
     5  C   -1.740765   1.020975
     6  C    1.497065  -1.456457
     7  O   -0.123640   0.009026
     8  C    0.364178  -0.084958
     9  N   -0.074769  -0.093523
    10  N   -0.309314   0.059501
    11  N   -0.382961   0.070898
    12  H   -0.072275   0.215252
    13  H   -0.242695   0.378762
    14  H   -0.173781   0.341028
    15  H   -0.096785   0.225211
    16  H   -0.580142   0.745813
    17  H   -0.601492   0.783718
    18  H   -0.345209   0.648745
    19  H    0.029996   0.233615
    20  H    0.089139   0.137467
 Sum of Mulliken charges =  -1.00000   1.00000

 Dipole moment (field-independent basis, Debye):
    X=             -1.7763    Y=              1.5020    Z=              0.2767  Tot=              2.3426
 Quadrupole moment (field-independent basis, Debye-Ang):
   XX=           -137.7914   YY=            -99.5889   ZZ=            -85.6165
   XY=             -1.2020   XZ=              1.3444   YZ=             -2.0783

 Summary of Natural Population Analysis:

                                       Natural Population
                Natural  -----------------------------------------------
    Atom  No    Charge         Core      Valence    Rydberg      Total
 -----------------------------------------------------------------------
      C    1   -0.20675      0.99963     2.19639    0.01072     3.20675
      C    2   -0.19646      0.99960     2.18886    0.00800     3.19646
      C    3    0.07113      0.99942     1.91539    0.01406     2.92887
      C    4    0.10253      0.99928     1.88428    0.01391     2.89747
      C    5   -0.11920      0.99949     2.10974    0.00997     3.11920
      C    6   -0.06899      0.99957     2.05864    0.01078     3.06899
      O    7   -0.24208      0.99985     3.23453    0.00770     4.24208
      C    8    0.35224      0.99958     1.62827    0.01991     2.64776
      N    9   -0.29187      0.99967     2.78142    0.01079     3.79187
      N   10   -0.23360      0.99966     2.72004    0.01391     3.73360
      N   11   -0.31502      0.99978     2.80390    0.01134     3.81502
      H   12    0.10126      0.00000     0.39682    0.00192     0.39874
      H   13    0.10211      0.00000     0.39641    0.00148     0.39789
      H   14    0.10630      0.00000     0.39156    0.00214     0.39370
      H   15    0.09840      0.00000     0.39994    0.00166     0.40160
      H   16    0.10554      0.00000     0.39293    0.00153     0.39446
      H   17    0.09676      0.00000     0.40141    0.00183     0.40324
      H   18    0.19076      0.00000     0.30067    0.00857     0.30924
      H   19    0.17415      0.00000     0.32299    0.00286     0.32585
      H   20    0.17280      0.00000     0.32401    0.00319     0.32720
 =======================================================================
   * Total *   -0.00000     10.99552    28.84820    0.15627    40.00000

 Normal termination of Gaussian 16 at Tue Dec  8 20:50:02 2020.
