 Gaussian 16, Revision A.03,

 -----------------------------------------------------------
 # opt freq B3LYP/6-31G(d) empiricaldispersion=gd3bj scf=xqc
 -----------------------------------------------------------

 -----------------------------
 CID_43392794_JID_807_neutraal
 -----------------------------
 Symbolic Z-matrix:
 Charge =  0 Multiplicity = 1

 SCF Done:  E(RB3LYP) =  -497.044433650     A.U. after   14 cycles
 SCF Done:  E(RB3LYP) =  -497.048439104     A.U. after   12 cycles
 SCF Done:  E(RB3LYP) =  -497.049694224     A.U. after   13 cycles
 SCF Done:  E(RB3LYP) =  -497.050195594     A.U. after   12 cycles
 SCF Done:  E(RB3LYP) =  -497.050427356     A.U. after   11 cycles
 SCF Done:  E(RB3LYP) =  -497.050551586     A.U. after   11 cycles
 SCF Done:  E(RB3LYP) =  -497.050689568     A.U. after   11 cycles
 SCF Done:  E(RB3LYP) =  -497.050724753     A.U. after   12 cycles
 SCF Done:  E(RB3LYP) =  -497.050909370     A.U. after   11 cycles
 SCF Done:  E(RB3LYP) =  -497.050879014     A.U. after   12 cycles
 SCF Done:  E(RB3LYP) =  -497.050981792     A.U. after    7 cycles
 SCF Done:  E(RB3LYP) =  -497.050982070     A.U. after    8 cycles
 SCF Done:  E(RB3LYP) =  -497.050982370     A.U. after    8 cycles
 SCF Done:  E(RB3LYP) =  -497.050982796     A.U. after    8 cycles
 SCF Done:  E(RB3LYP) =  -497.050983111     A.U. after    8 cycles
 SCF Done:  E(RB3LYP) =  -497.050983156     A.U. after    7 cycles
 Optimization completed.
    -- Stationary point found.
 Normal termination of Gaussian 16 at Tue Dec  8 12:57:08 2020.

 --------------------------------------------------------------------
 #N Geom=AllCheck Guess=TCheck SCRF=Check GenChk RB3LYP/6-31G(d) Freq
 --------------------------------------------------------------------

 Structure from the checkpoint file:  "JID_807.chk"
 -----------------------------
 CID_43392794_JID_807_neutraal
 -----------------------------
 Charge =  0 Multiplicity = 1

 SCF Done:  E(RB3LYP) =  -497.050983156     A.U. after    1 cycles

  Exact polarizability:  90.457  -3.991  78.984  -2.750   3.529  76.102
 Approx polarizability: 112.130  -8.006 109.982  -2.115  10.036 120.411

                      1                      2                      3
                      A                      A                      A
 Frequencies --     34.4658                45.9376                71.1844
 Red. masses --      4.0356                 4.3921                 2.7073
 Frc consts  --      0.0028                 0.0055                 0.0081
 IR Inten    --      1.2838                10.1324                 1.7880

                      4                      5                      6
                      A                      A                      A
 Frequencies --     94.4400               122.1031               147.8384
 Red. masses --      4.4800                 1.2812                 3.1845
 Frc consts  --      0.0235                 0.0113                 0.0410
 IR Inten    --     12.5864               217.6422                10.4862

                      7                      8                      9
                      A                      A                      A
 Frequencies --    218.5431               219.9787               264.2441
 Red. masses --      3.0825                 1.8067                 2.0879
 Frc consts  --      0.0867                 0.0515                 0.0859
 IR Inten    --      0.5415                 2.6684                 4.0205

                     10                     11                     12
                      A                      A                      A
 Frequencies --    328.2026               341.5166               379.3964
 Red. masses --      2.0261                 2.3668                 2.2845
 Frc consts  --      0.1286                 0.1626                 0.1937
 IR Inten    --      1.5243                 0.7043                 3.6498

                     13                     14                     15
                      A                      A                      A
 Frequencies --    449.8501               492.7015               505.5786
 Red. masses --      2.1724                 3.2225                 1.6750
 Frc consts  --      0.2590                 0.4609                 0.2523
 IR Inten    --      0.4301                 2.8589                 8.8496

                     16                     17                     18
                      A                      A                      A
 Frequencies --    574.0179               624.9463               654.9986
 Red. masses --      1.2562                 2.0447                 1.9462
 Frc consts  --      0.2439                 0.4705                 0.4919
 IR Inten    --    130.6946                13.3049                 7.7865

                     19                     20                     21
                      A                      A                      A
 Frequencies --    692.0399               767.7886               802.0728
 Red. masses --      2.3433                 1.7887                 2.1372
 Frc consts  --      0.6612                 0.6213                 0.8101
 IR Inten    --     11.0942                10.2648                50.2146

                     22                     23                     24
                      A                      A                      A
 Frequencies --    851.7085               887.2212               938.7916
 Red. masses --      1.9598                 1.8618                 1.7745
 Frc consts  --      0.8376                 0.8635                 0.9214
 IR Inten    --      2.4410                56.6499                38.1170

                     25                     26                     27
                      A                      A                      A
 Frequencies --    965.2944              1016.7699              1052.7993
 Red. masses --      1.9159                 1.7219                 2.3559
 Frc consts  --      1.0518                 1.0488                 1.5385
 IR Inten    --      5.0641                 1.9743                23.4861

                     28                     29                     30
                      A                      A                      A
 Frequencies --   1066.6402              1096.3833              1103.1326
 Red. masses --      2.3330                 2.1112                 1.8244
 Frc consts  --      1.5639                 1.4952                 1.3081
 IR Inten    --      7.3354                15.3248                12.7248

                     31                     32                     33
                      A                      A                      A
 Frequencies --   1139.6041              1164.1039              1194.5750
 Red. masses --      2.0673                 2.1609                 2.7275
 Frc consts  --      1.5818                 1.7253                 2.2932
 IR Inten    --     47.7033                25.9791                25.3134

                     34                     35                     36
                      A                      A                      A
 Frequencies --   1235.2983              1286.2856              1310.5176
 Red. masses --      1.1685                 1.2538                 1.3377
 Frc consts  --      1.0506                 1.2222                 1.3536
 IR Inten    --     19.6362                14.0215                12.5853

                     37                     38                     39
                      A                      A                      A
 Frequencies --   1324.6943              1340.6757              1375.4376
 Red. masses --      1.5727                 1.3224                 1.2891
 Frc consts  --      1.6261                 1.4004                 1.4369
 IR Inten    --     89.6746                 4.0329                15.4518

                     40                     41                     42
                      A                      A                      A
 Frequencies --   1400.3142              1411.8540              1432.6738
 Red. masses --      1.4040                 1.9166                 1.4665
 Frc consts  --      1.6221                 2.2510                 1.7734
 IR Inten    --      1.1526                36.9696                 4.3787

                     43                     44                     45
                      A                      A                      A
 Frequencies --   1441.5051              1463.0559              1499.7176
 Red. masses --      1.2497                 1.2803                 1.0870
 Frc consts  --      1.5300                 1.6147                 1.4405
 IR Inten    --      4.2188               100.4301                 7.5485

                     46                     47                     48
                      A                      A                      A
 Frequencies --   1522.4880              1528.1232              1534.9814
 Red. masses --      1.0761                 1.0653                 1.1243
 Frc consts  --      1.4696                 1.4657                 1.5608
 IR Inten    --      2.0710                 2.0179                 8.9976

                     49                     50                     51
                      A                      A                      A
 Frequencies --   1540.7538              1561.4097              1644.7783
 Red. masses --      1.1099                 1.1091                 1.2507
 Frc consts  --      1.5523                 1.5931                 1.9936
 IR Inten    --      5.7670                 1.9315                99.5662

                     52                     53                     54
                      A                      A                      A
 Frequencies --   1803.1581              2965.1067              3002.2363
 Red. masses --      9.0732                 1.0749                 1.0834
 Frc consts  --     17.3811                 5.5681                 5.7537
 IR Inten    --    246.5035                78.6708                39.2244

                     55                     56                     57
                      A                      A                      A
 Frequencies --   3044.4918              3049.5231              3050.9092
 Red. masses --      1.0615                 1.0392                 1.0671
 Frc consts  --      5.7967                 5.6937                 5.8523
 IR Inten    --     15.3763                30.1091                35.6295

                     58                     59                     60
                      A                      A                      A
 Frequencies --   3087.8603              3112.7297              3113.0610
 Red. masses --      1.0994                 1.0973                 1.0986
 Frc consts  --      6.1762                 6.2643                 6.2729
 IR Inten    --     13.8376                53.3430                 7.6366

                     61                     62                     63
                      A                      A                      A
 Frequencies --   3117.6587              3134.1889              3475.7323
 Red. masses --      1.0903                 1.1006                 1.0729
 Frc consts  --      6.2436                 6.3698                 7.6363
 IR Inten    --     39.7507                35.1581                 1.6283

                     64                     65                     66
                      A                      A                      A
 Frequencies --   3590.3964              3649.4697              3717.5417
 Red. masses --      1.0450                 1.0646                 1.1050
 Frc consts  --      7.9373                 8.3538                 8.9976
 IR Inten    --     34.5556                49.4719                31.1563

 - Thermochemistry -
 -------------------
 Temperature   298.150 Kelvin.  Pressure   1.00000 Atm.
 Atom     1 has atomic number  6 and mass  12.00000

 Molecular mass:   146.10553 amu.
 Principal axes and moments of inertia in atomic units:
                           1         2         3
     Eigenvalues --   880.748682428.915452808.90418
           X            0.99973   0.01077  -0.02036
           Y           -0.01079   0.99994  -0.00103
           Z            0.02035   0.00125   0.99979
 This molecule is an asymmetric top.
 Rotational symmetry number  1.
 Warning -- assumption of classical behavior for rotation
           may cause significant error
 Rotational temperatures (Kelvin)      0.09834     0.03566     0.03084
 Rotational constants (GHZ):           2.04910     0.74302     0.64251
 Zero-point vibrational energy     556727.1 (Joules/Mol)
                                  133.06096 (Kcal/Mol)
 Warning -- explicit consideration of  16 degrees of freedom as
           vibrations may cause significant error
 Vibrational temperatures:     49.59    66.09   102.42   135.88   175.68
          (Kelvin)            212.71   314.43   316.50   380.19   472.21
                              491.37   545.87   647.23   708.89   727.41
                              825.88   899.16   942.40   995.69  1104.68
                             1154.00  1225.42  1276.51  1350.71  1388.84
                             1462.91  1514.74  1534.66  1577.45  1587.16
                             1639.64  1674.89  1718.73  1777.32  1850.68
                             1885.54  1905.94  1928.93  1978.95  2014.74
                             2031.34  2061.30  2074.00  2105.01  2157.76
                             2190.52  2198.63  2208.50  2216.80  2246.52
                             2366.47  2594.34  4266.13  4319.55  4380.34
                             4387.58  4389.58  4442.74  4478.52  4479.00
                             4485.62  4509.40  5000.80  5165.78  5250.77
                             5348.71

 Zero-point correction=                           0.212046 (Hartree/Particle)
 Thermal correction to Energy=                    0.224071
 Thermal correction to Enthalpy=                  0.225015
 Thermal correction to Gibbs Free Energy=         0.172943
 Sum of electronic and zero-point Energies=           -496.838937
 Sum of electronic and thermal Energies=              -496.826913
 Sum of electronic and thermal Enthalpies=            -496.825968
 Sum of electronic and thermal Free Energies=         -496.878040

                     E (Thermal)             CV                S
                      KCal/Mol        Cal/Mol-Kelvin    Cal/Mol-Kelvin
 Total                  140.606             42.821            109.593
 Electronic               0.000              0.000              0.000
 Translational            0.889              2.981             40.848
 Rotational               0.889              2.981             30.175
 Vibrational            138.829             36.859             38.570
 Vibration     1          0.594              1.983              5.554
 Vibration     2          0.595              1.979              4.985
 Vibration     3          0.598              1.968              4.120
 Vibration     4          0.603              1.953              3.566
 Vibration     5          0.610              1.931              3.067
 Vibration     6          0.617              1.905              2.700
 Vibration     7          0.646              1.813              1.971
 Vibration     8          0.647              1.811              1.959
 Vibration     9          0.671              1.738              1.634
 Vibration    10          0.711              1.619              1.269
 Vibration    11          0.721              1.592              1.205
 Vibration    12          0.749              1.514              1.042
 Vibration    13          0.809              1.361              0.796
 Vibration    14          0.848              1.266              0.677
 Vibration    15          0.861              1.238              0.644
 Vibration    16          0.930              1.087              0.497

 Optimization completed.
    -- Stationary point found.
 Normal termination of Gaussian 16 at Tue Dec  8 13:10:15 2020.

 ----------------------------------------------------------------------
 # B3LYP/6-311++G(d,p) empiricaldispersion=gd3bj scf=xqc pop=npa geom=c
 heck
 ----------------------------------------------------------------------

 -------------------------------------
 CID_43392794_JID_807_Energie_neutraal
 -------------------------------------
 Structure from the checkpoint file:  "JID_807.chk"
 Charge =  0 Multiplicity = 1

 SCF Done:  E(RB3LYP) =  -497.220346666     A.U. after   14 cycles
 Normal termination of Gaussian 16 at Tue Dec  8 13:12:49 2020.

 ----------------------------------------------------------------------
 # B3LYP/6-311++G(d,p) empiricaldispersion=gd3bj scf=xqc pop=npa geom=c
 heck
 ----------------------------------------------------------------------

 -----------------------------------
 CID_43392794_JID_807_Energie_kation
 -----------------------------------
 Structure from the checkpoint file:  "JID_807.chk"
 Charge =  1 Multiplicity = 2

 SCF Done:  E(UB3LYP) =  -496.897598860     A.U. after   22 cycles
 Normal termination of Gaussian 16 at Tue Dec  8 13:23:57 2020.
 Gaussian 16:  ES64L-G16RevA.03 25-Dec-2016

 ----------------------------------------------------------------------
 # B3LYP/6-311++G(d,p) empiricaldispersion=gd3bj scf=xqc pop=npa geom=c
 heck
 ----------------------------------------------------------------------

 ----------------------------------
 CID_43392794_JID_807_Energie_anion
 ----------------------------------
 Structure from the checkpoint file:  "JID_807.chk"
 Charge = -1 Multiplicity = 2

                         Standard orientation:
 ---------------------------------------------------------------------
 Center     Atomic      Atomic             Coordinates (Angstroms)
 Number     Number       Type             X           Y           Z
 ---------------------------------------------------------------------
      1          6           0        1.994318    2.157736   -0.262685
      2          6           0        1.013152    1.199633    0.417371
      3          6           0        0.771513   -0.094100   -0.373200
      4          6           0        2.073135   -0.839923   -0.690924
      5          8           0        2.756928   -1.196330    0.497045
      6          7           0       -0.029557   -1.059578    0.417997
      7          6           0       -1.283646   -0.567007    0.962367
      8          6           0       -2.283792   -0.132160   -0.120410
      9          8           0       -2.284131   -0.646149   -1.230647
     10          7           0       -3.168707    0.837076    0.249007
     11          1           0        3.010642    1.752824   -0.260685
     12          1           0        2.020033    3.119565    0.260559
     13          1           0        1.706346    2.352579   -1.303156
     14          1           0        1.384341    0.938167    1.415150
     15          1           0        0.055910    1.718125    0.553002
     16          1           0        0.270804    0.161753   -1.320905
     17          1           0        1.831047   -1.731561   -1.297023
     18          1           0        2.747942   -0.219647   -1.286552
     19          1           0        2.048610   -1.526148    1.081621
     20          1           0       -0.269418   -1.825340   -0.212387
     21          1           0       -1.752484   -1.381547    1.530476
     22          1           0       -1.093479    0.240421    1.675325
     23          1           0       -3.171102    1.244083    1.171724
     24          1           0       -3.891810    1.109006   -0.402469
 ---------------------------------------------------------------------

 SCF Done:  E(UB3LYP) =  -497.212357084     A.U. after   31 cycles

 The electronic state is 2-A.
 Alpha  occ. eigenvalues --  -19.02083 -18.98188 -14.21635 -14.20772 -10.16358
 Alpha  occ. eigenvalues --  -10.11866 -10.09977 -10.09628 -10.06495 -10.06460
 Alpha  occ. eigenvalues --   -0.93177  -0.92674  -0.81242  -0.79108  -0.68648
 Alpha  occ. eigenvalues --   -0.62942  -0.58140  -0.54812  -0.48656  -0.45807
 Alpha  occ. eigenvalues --   -0.42492  -0.40680  -0.40140  -0.38499  -0.36755
 Alpha  occ. eigenvalues --   -0.35410  -0.32887  -0.31286  -0.30794  -0.30325
 Alpha  occ. eigenvalues --   -0.29733  -0.26756  -0.26054  -0.24727  -0.23602
 Alpha  occ. eigenvalues --   -0.22399  -0.17985  -0.16632  -0.16287  -0.13789
 Alpha  occ. eigenvalues --    0.04682
 Alpha virt. eigenvalues --    0.07319   0.07977   0.08539   0.09820   0.10260
 Alpha virt. eigenvalues --    0.10458   0.11587   0.12196   0.12708   0.13317
 Alpha virt. eigenvalues --    0.13372   0.14413   0.15010   0.15427   0.16284

  Beta  occ. eigenvalues --  -19.02080 -18.98180 -14.21520 -14.20764 -10.16355
  Beta  occ. eigenvalues --  -10.11864 -10.09975 -10.09585 -10.06481 -10.06439
  Beta  occ. eigenvalues --   -0.93154  -0.92666  -0.81221  -0.78957  -0.68621
  Beta  occ. eigenvalues --   -0.62902  -0.58078  -0.54776  -0.48546  -0.45702
  Beta  occ. eigenvalues --   -0.42391  -0.40652  -0.40113  -0.38474  -0.36707
  Beta  occ. eigenvalues --   -0.35375  -0.32864  -0.31253  -0.30775  -0.30298
  Beta  occ. eigenvalues --   -0.29690  -0.26714  -0.26028  -0.24702  -0.23574
  Beta  occ. eigenvalues --   -0.22383  -0.17975  -0.16607  -0.16199  -0.13758
  Beta virt. eigenvalues --    0.07161   0.08048   0.08512   0.09101   0.10332
  Beta virt. eigenvalues --    0.10653   0.11350   0.11754   0.12561   0.12817
  Beta virt. eigenvalues --    0.13675   0.14001   0.14765   0.15147   0.15672

 Mulliken charges and spin densities:
               1          2
     1  C   -0.075173  -0.618381
     2  C    0.295637  -0.317219
     3  C   -0.579354   0.333145
     4  C   -0.483868   0.004339
     5  O   -0.222436  -0.003615
     6  N   -0.169775   0.134081
     7  C    1.726479  -2.231809
     8  C    0.412316  -0.292519
     9  O   -0.365171  -0.007907
    10  N   -0.377649   0.116130
    11  H    0.105195   0.042320
    12  H   -0.132092   0.280183
    13  H    0.032514   0.109779
    14  H    0.034334   0.118068
    15  H   -0.065222   0.235948
    16  H    0.156414   0.011377
    17  H    0.089591   0.034792
    18  H    0.133286   0.029131
    19  H    0.251250   0.023144
    20  H    0.258964  -0.022128
    21  H   -0.431854   0.625620
    22  H   -0.501513   0.720699
    23  H   -0.553778   0.836689
    24  H   -0.538097   0.838134
 Sum of Mulliken charges =  -1.00000   1.00000

 Dipole moment (field-independent basis, Debye):
    X=              8.2872    Y=             -3.8274    Z=             -3.8662  Tot=              9.9133
 Quadrupole moment (field-independent basis, Debye-Ang):
   XX=           -133.0337   YY=            -96.9041   ZZ=            -95.5475
   XY=             12.6698   XZ=              4.6094   YZ=             -5.8864

 Summary of Natural Population Analysis:

                                       Natural Population
                Natural  -----------------------------------------------
    Atom  No    Charge         Core      Valence    Rydberg      Total
 -----------------------------------------------------------------------
      C    1   -0.28667      0.99966     2.28123    0.00578     3.28667
      C    2   -0.20236      0.99962     2.19240    0.01035     3.20236
      C    3   -0.02432      0.99959     2.01334    0.01140     3.02432
      C    4   -0.01004      0.99958     1.99803    0.01243     3.01004
      O    5   -0.37740      0.99990     3.37065    0.00686     4.37740
      N    6   -0.35062      0.99974     2.83851    0.01238     3.85062
      C    7   -0.13192      0.99959     2.11886    0.01347     3.13192
      C    8    0.32788      0.99970     1.64888    0.02354     2.67212
      O    9   -0.33446      0.99988     3.32797    0.00661     4.33446
      N   10   -0.39644      0.99971     2.88797    0.00876     3.89644
      H   11    0.09609      0.00000     0.40304    0.00086     0.40391
      H   12    0.10148      0.00000     0.39779    0.00073     0.39852
      H   13    0.09493      0.00000     0.40424    0.00083     0.40507
      H   14    0.10062      0.00000     0.39795    0.00144     0.39938
      H   15    0.10376      0.00000     0.39433    0.00192     0.39624
      H   16    0.09351      0.00000     0.40470    0.00179     0.40649
      H   17    0.07228      0.00000     0.42636    0.00136     0.42772
      H   18    0.08642      0.00000     0.41250    0.00108     0.41358
      H   19    0.23553      0.00000     0.26099    0.00347     0.26447
      H   20    0.17945      0.00000     0.31770    0.00285     0.32055
      H   21    0.10866      0.00000     0.39003    0.00131     0.39134
      H   22    0.10612      0.00000     0.39106    0.00282     0.39388
      H   23    0.20882      0.00000     0.24440    0.04678     0.29118
      H   24    0.19871      0.00000     0.29509    0.00620     0.30129
 =======================================================================
   * Total *    0.00000      9.99696    29.81802    0.18501    40.00000

 Normal termination of Gaussian 16 at Tue Dec  8 13:31:28 2020.
