 Gaussian 16, Revision A.03,

 -----------------------------------------------------------
 # opt freq B3LYP/6-31G(d) empiricaldispersion=gd3bj scf=xqc
 -----------------------------------------------------------

 ------------------------------
 CID_64553023_JID_5170_neutraal
 ------------------------------
 Symbolic Z-matrix:
 Charge =  0 Multiplicity = 1

 SCF Done:  E(RB3LYP) =  -1047.58044658     A.U. after   15 cycles
 SCF Done:  E(RB3LYP) =  -1047.58844590     A.U. after   12 cycles
 SCF Done:  E(RB3LYP) =  -1047.58945629     A.U. after   12 cycles
 SCF Done:  E(RB3LYP) =  -1047.58975154     A.U. after   12 cycles
 SCF Done:  E(RB3LYP) =  -1047.58993550     A.U. after   12 cycles
 SCF Done:  E(RB3LYP) =  -1047.59004921     A.U. after   12 cycles
 SCF Done:  E(RB3LYP) =  -1047.59012297     A.U. after   12 cycles
 SCF Done:  E(RB3LYP) =  -1047.59013114     A.U. after   10 cycles
 SCF Done:  E(RB3LYP) =  -1047.59013620     A.U. after   11 cycles
 SCF Done:  E(RB3LYP) =  -1047.59014005     A.U. after   10 cycles
 SCF Done:  E(RB3LYP) =  -1047.59014029     A.U. after    8 cycles
 SCF Done:  E(RB3LYP) =  -1047.59014059     A.U. after    8 cycles
 SCF Done:  E(RB3LYP) =  -1047.59014067     A.U. after    8 cycles
 Optimization completed.
    -- Stationary point found.
 Normal termination of Gaussian 16 at Thu Dec 10 14:48:57 2020.

 --------------------------------------------------------------------
 #N Geom=AllCheck Guess=TCheck SCRF=Check GenChk RB3LYP/6-31G(d) Freq
 --------------------------------------------------------------------

 Structure from the checkpoint file:  "JID_5170.chk"
 ------------------------------
 CID_64553023_JID_5170_neutraal
 ------------------------------
 Charge =  0 Multiplicity = 1

 SCF Done:  E(RB3LYP) =  -1047.59014067     A.U. after    1 cycles

  Exact polarizability: 161.219  11.872 129.354   8.881 -15.420 111.896
 Approx polarizability: 232.671  29.546 200.889  20.624 -44.320 190.746

                      1                      2                      3
                      A                      A                      A
 Frequencies --     24.1460                36.4526                67.3948
 Red. masses --      4.8278                 4.3653                 3.0424
 Frc consts  --      0.0017                 0.0034                 0.0081
 IR Inten    --      1.6535                 0.8809                 1.0619

                      4                      5                      6
                      A                      A                      A
 Frequencies --     88.8072               135.6270               163.5034
 Red. masses --      4.1489                 3.6937                 3.1792
 Frc consts  --      0.0193                 0.0400                 0.0501
 IR Inten    --      0.5471                 3.1783                 0.5997

                      7                      8                      9
                      A                      A                      A
 Frequencies --    198.3374               205.7357               229.5584
 Red. masses --      1.2293                 3.2393                 3.7641
 Frc consts  --      0.0285                 0.0808                 0.1169
 IR Inten    --      0.0198                 0.9964                 5.6587

                     10                     11                     12
                      A                      A                      A
 Frequencies --    242.3079               267.5215               296.6627
 Red. masses --      4.7925                 4.3117                 2.1311
 Frc consts  --      0.1658                 0.1818                 0.1105
 IR Inten    --      2.2310                12.6324                 6.3281

                     13                     14                     15
                      A                      A                      A
 Frequencies --    302.7255               319.2250               368.4245
 Red. masses --      1.2792                 5.6074                 4.7275
 Frc consts  --      0.0691                 0.3367                 0.3781
 IR Inten    --     13.7779                 7.7486                 0.8887

                     16                     17                     18
                      A                      A                      A
 Frequencies --    397.4221               424.2937               474.9727
 Red. masses --      4.8087                 3.8542                 3.1109
 Frc consts  --      0.4475                 0.4088                 0.4135
 IR Inten    --      8.5041                 0.1698                23.2145

                     19                     20                     21
                      A                      A                      A
 Frequencies --    504.1073               536.0722               558.6697
 Red. masses --      5.4061                 6.3407                 5.2427
 Frc consts  --      0.8094                 1.0736                 0.9641
 IR Inten    --      7.4462                13.0369                15.0805

                     22                     23                     24
                      A                      A                      A
 Frequencies --    573.9111               604.9699               660.2610
 Red. masses --      5.5366                 1.7051                 2.8477
 Frc consts  --      1.0744                 0.3677                 0.7314
 IR Inten    --     56.8652               179.1279               149.2399

                     25                     26                     27
                      A                      A                      A
 Frequencies --    680.2363               711.9608               732.4542
 Red. masses --      4.6011                 2.4831                 3.3760
 Frc consts  --      1.2544                 0.7416                 1.0671
 IR Inten    --     27.4274                68.6298                29.8910

                     28                     29                     30
                      A                      A                      A
 Frequencies --    787.6892               795.1138               804.8052
 Red. masses --      2.3496                 1.1523                 1.9244
 Frc consts  --      0.8589                 0.4292                 0.7344
 IR Inten    --     12.0185                 3.8187                53.7140

                     31                     32                     33
                      A                      A                      A
 Frequencies --    842.3689               876.4695               889.2970
 Red. masses --      1.2376                 1.5480                 1.4892
 Frc consts  --      0.5174                 0.7006                 0.6939
 IR Inten    --     37.0222                13.3416                 0.9698

                     34                     35                     36
                      A                      A                      A
 Frequencies --    917.6008               950.0074               958.1797
 Red. masses --      3.6848                 4.0836                 2.8437
 Frc consts  --      1.8280                 2.1714                 1.5383
 IR Inten    --     62.2012                12.0643                52.0114

                     37                     38                     39
                      A                      A                      A
 Frequencies --    969.1213              1019.2852              1072.9561
 Red. masses --      1.3106                 6.0712                 1.7195
 Frc consts  --      0.7252                 3.7163                 1.1663
 IR Inten    --      6.3936                 6.1891                27.2016

                     40                     41                     42
                      A                      A                      A
 Frequencies --   1080.1887              1089.7176              1101.9991
 Red. masses --      2.0863                 1.3839                 1.6531
 Frc consts  --      1.4342                 0.9683                 1.1828
 IR Inten    --     56.7115                13.5311                 5.1972

                     43                     44                     45
                      A                      A                      A
 Frequencies --   1103.2863              1123.9938              1126.3161
 Red. masses --      1.3554                 3.7752                 1.1651
 Frc consts  --      0.9720                 2.8100                 0.8708
 IR Inten    --      1.5904               130.5305                16.1072

                     46                     47                     48
                      A                      A                      A
 Frequencies --   1149.4974              1157.6714              1184.5028
 Red. masses --      1.2904                 1.3559                 1.8500
 Frc consts  --      1.0046                 1.0706                 1.5293
 IR Inten    --      7.6363                 3.8999                26.2417

                     49                     50                     51
                      A                      A                      A
 Frequencies --   1203.6858              1210.5370              1234.5893
 Red. masses --      1.1440                 1.3533                 1.9693
 Frc consts  --      0.9766                 1.1684                 1.7685
 IR Inten    --      2.5877                 0.5216                15.6609

                     52                     53                     54
                      A                      A                      A
 Frequencies --   1248.5632              1298.1477              1326.5875
 Red. masses --      2.1361                10.8253                 2.1072
 Frc consts  --      1.9619                10.7483                 2.1849
 IR Inten    --     47.7192               122.1172                22.4721

                     55                     56                     57
                      A                      A                      A
 Frequencies --   1351.0499              1354.1623              1370.5976
 Red. masses --      1.7777                 2.2564                 4.6520
 Frc consts  --      1.9118                 2.4378                 5.1489
 IR Inten    --     25.3824                16.6719                17.0850

                     58                     59                     60
                      A                      A                      A
 Frequencies --   1466.3495              1485.9274              1511.9670
 Red. masses --      1.1576                 1.0866                 3.0436
 Frc consts  --      1.4665                 1.4136                 4.0994
 IR Inten    --      1.4127                 3.4531                13.2036

                     61                     62                     63
                      A                      A                      A
 Frequencies --   1519.6114              1523.8763              1533.9749
 Red. masses --      1.0548                 1.3040                 1.1038
 Frc consts  --      1.4351                 1.7842                 1.5303
 IR Inten    --     12.7141                 0.2064                 2.5174

                     64                     65                     66
                      A                      A                      A
 Frequencies --   1543.1425              1642.6087              1668.1878
 Red. masses --      2.2806                 5.6689                 3.8380
 Frc consts  --      3.1998                 9.0119                 6.2928
 IR Inten    --     60.2834                21.1732                71.5985

                     67                     68                     69
                      A                      A                      A
 Frequencies --   1696.1112              3042.6565              3127.5887
 Red. masses --      1.2825                 1.0431                 1.0930
 Frc consts  --      2.1737                 5.6894                 6.2993
 IR Inten    --    134.8465                43.7923                14.9851

                     70                     71                     72
                      A                      A                      A
 Frequencies --   3162.0892              3167.9517              3171.1513
 Red. masses --      1.0536                 1.0550                 1.1039
 Frc consts  --      6.2071                 6.2381                 6.5407
 IR Inten    --      5.7943                 9.4253                 6.0338

                     73                     74                     75
                      A                      A                      A
 Frequencies --   3178.9944              3200.0036              3201.7060
 Red. masses --      1.0877                 1.0917                 1.0920
 Frc consts  --      6.4767                 6.5862                 6.5953
 IR Inten    --     12.7066                23.7690                 5.2260

                     76                     77                     78
                      A                      A                      A
 Frequencies --   3224.5284              3239.4020              3245.5955
 Red. masses --      1.0914                 1.0931                 1.1198
 Frc consts  --      6.6860                 6.7586                 6.9501
 IR Inten    --      0.4088                 0.4426                 1.0202

                     79                     80                     81
                      A                      A                      A
 Frequencies --   3259.1429              3552.2186              3650.9170
 Red. masses --      1.1165                 1.0479                 1.0982
 Frc consts  --      6.9876                 7.7907                 8.6245
 IR Inten    --      2.0305                14.7811                 9.1983

 - Thermochemistry -
 -------------------
 Temperature   298.150 Kelvin.  Pressure   1.00000 Atm.
 Atom     1 has atomic number  6 and mass  12.00000

 Molecular mass:   226.07760 amu.
 Principal axes and moments of inertia in atomic units:
                           1         2         3
     Eigenvalues --  2018.042304521.731905273.35400
           X            0.99995  -0.00981   0.00120
           Y            0.00978   0.99980   0.01762
           Z           -0.00137  -0.01761   0.99984
 This molecule is an asymmetric top.
 Rotational symmetry number  1.
 Warning -- assumption of classical behavior for rotation
           may cause significant error
 Rotational temperatures (Kelvin)      0.04292     0.01916     0.01642
 Rotational constants (GHZ):           0.89430     0.39913     0.34224
 Zero-point vibrational energy     618585.7 (Joules/Mol)
                                  147.84553 (Kcal/Mol)
 Warning -- explicit consideration of  23 degrees of freedom as
           vibrations may cause significant error
 Vibrational temperatures:     34.74    52.45    96.97   127.77   195.14
          (Kelvin)            235.24   285.36   296.01   330.28   348.63
                              384.90   426.83   435.55   459.29   530.08
                              571.80   610.46   683.38   725.30   771.29
                              803.80   825.73   870.42   949.97   978.71
                             1024.35  1053.84  1133.31  1143.99  1157.94
                             1211.98  1261.04  1279.50  1320.22  1366.85
                             1378.61  1394.35  1466.52  1543.74  1554.15
                             1567.86  1585.53  1587.38  1617.18  1620.52
                             1653.87  1665.63  1704.24  1731.84  1741.69
                             1776.30  1796.40  1867.74  1908.66  1943.86
                             1948.34  1971.98  2109.75  2137.92  2175.38
                             2186.38  2192.52  2207.05  2220.24  2363.35
                             2400.15  2440.33  4377.70  4499.90  4549.54
                             4557.98  4562.58  4573.86  4604.09  4606.54
                             4639.38  4660.78  4669.69  4689.18  5110.85
                             5252.86

 Zero-point correction=                           0.235607 (Hartree/Particle)
 Thermal correction to Energy=                    0.250461
 Thermal correction to Enthalpy=                  0.251405
 Thermal correction to Gibbs Free Energy=         0.192851
 Sum of electronic and zero-point Energies=          -1047.354534
 Sum of electronic and thermal Energies=             -1047.339679
 Sum of electronic and thermal Enthalpies=           -1047.338735
 Sum of electronic and thermal Free Energies=        -1047.397290

                     E (Thermal)             CV                S
                      KCal/Mol        Cal/Mol-Kelvin    Cal/Mol-Kelvin
 Total                  157.167             56.752            123.239
 Electronic               0.000              0.000              0.000
 Translational            0.889              2.981             42.149
 Rotational               0.889              2.981             32.242
 Vibrational            155.389             50.790             48.847
 Vibration     1          0.593              1.985              6.260
 Vibration     2          0.594              1.982              5.443
 Vibration     3          0.598              1.970              4.228
 Vibration     4          0.602              1.957              3.686
 Vibration     5          0.613              1.918              2.865
 Vibration     6          0.623              1.887              2.509
 Vibration     7          0.637              1.842              2.148
 Vibration     8          0.640              1.832              2.081
 Vibration     9          0.652              1.796              1.882
 Vibration    10          0.659              1.775              1.786
 Vibration    11          0.673              1.733              1.612
 Vibration    12          0.690              1.680              1.436
 Vibration    13          0.694              1.669              1.402
 Vibration    14          0.705              1.637              1.314
 Vibration    15          0.741              1.537              1.086
 Vibration    16          0.764              1.476              0.972
 Vibration    17          0.786              1.417              0.878
 Vibration    18          0.832              1.306              0.724
 Vibration    19          0.859              1.241              0.648
 Vibration    20          0.891              1.170              0.574
 Vibration    21          0.914              1.121              0.526
 Vibration    22          0.930              1.088              0.497
 Vibration    23          0.964              1.021              0.441

 Optimization completed.
    -- Stationary point found.
 Normal termination of Gaussian 16 at Thu Dec 10 14:57:47 2020.

 ----------------------------------------------------------------------
 # B3LYP/6-311++G(d,p) empiricaldispersion=gd3bj scf=xqc pop=npa geom=c
 heck
 ----------------------------------------------------------------------

 --------------------------------------
 CID_64553023_JID_5170_Energie_neutraal
 --------------------------------------
 Structure from the checkpoint file:  "JID_5170.chk"
 Charge =  0 Multiplicity = 1

 SCF Done:  E(RB3LYP) =  -1047.80318302     A.U. after   15 cycles
 Normal termination of Gaussian 16 at Thu Dec 10 15:01:53 2020.

 ----------------------------------------------------------------------
 # B3LYP/6-311++G(d,p) empiricaldispersion=gd3bj scf=xqc pop=npa geom=c
 heck
 ----------------------------------------------------------------------

 ------------------------------------
 CID_64553023_JID_5170_Energie_kation
 ------------------------------------
 Structure from the checkpoint file:  "JID_5170.chk"
 Charge =  1 Multiplicity = 2

 SCF Done:  E(UB3LYP) =  -1047.50726186     A.U. after   31 cycles
 Normal termination of Gaussian 16 at Thu Dec 10 15:13:50 2020.
 Gaussian 16:  ES64L-G16RevA.03 25-Dec-2016

 ----------------------------------------------------------------------
 # B3LYP/6-311++G(d,p) empiricaldispersion=gd3bj scf=xqc pop=npa geom=c
 heck
 ----------------------------------------------------------------------

 -----------------------------------
 CID_64553023_JID_5170_Energie_anion
 -----------------------------------
 Structure from the checkpoint file:  "JID_5170.chk"
 Charge = -1 Multiplicity = 2

                         Standard orientation:
 ---------------------------------------------------------------------
 Center     Atomic      Atomic             Coordinates (Angstroms)
 Number     Number       Type             X           Y           Z
 ---------------------------------------------------------------------
      1          6           0       -0.667438   -2.021962   -1.628221
      2          7           0       -0.478291   -0.765719   -0.882550
      3          6           0        0.819933   -0.604808   -0.267754
      4          6           0        1.254782   -1.418248    0.783360
      5          6           0        2.526196   -1.197253    1.313574
      6          6           0        3.351745   -0.195837    0.809273
      7          6           0        2.916042    0.620926   -0.247710
      8          6           0        1.635605    0.403185   -0.778871
      9          7           0        3.710608    1.668950   -0.718007
     10         16           0       -1.803562   -0.407885    0.140842
     11          8           0       -2.977289   -0.333675   -0.739518
     12          8           0       -1.843198   -1.293532    1.314860
     13          6           0       -1.376350    1.233117    0.684399
     14          6           0       -1.491531    2.368102   -0.294423
     15          6           0       -2.511502    2.220279    0.799689
     16          1           0        0.108708   -2.066538   -2.395852
     17          1           0       -1.647320   -1.996561   -2.108000
     18          1           0       -0.594110   -2.912376   -0.990334
     19          1           0        0.599443   -2.180132    1.187657
     20          1           0        2.881009   -1.814679    2.133932
     21          1           0        4.338523   -0.035159    1.236751
     22          1           0        1.256574    1.018887   -1.589055
     23          1           0        4.704171    1.550805   -0.563394
     24          1           0        3.517007    1.954509   -1.669841
     25          1           0       -0.587083    1.225865    1.427074
     26          1           0       -0.739600    3.147984   -0.222407
     27          1           0       -1.806412    2.117224   -1.302300
     28          1           0       -3.498604    1.872877    0.513130
     29          1           0       -2.482538    2.893482    1.650428
 ---------------------------------------------------------------------

 SCF Done:  E(UB3LYP) =  -1047.79521525     A.U. after   33 cycles
 SCF Done:  E(UB3LYP) =  -1047.79521525     a.u. after    1 cycles

 The electronic state is 2-A.
 Alpha  occ. eigenvalues --  -88.96728 -19.02502 -19.02299 -14.25400 -14.20958
 Alpha  occ. eigenvalues --  -10.12761 -10.11675 -10.11537 -10.11523 -10.10631
 Alpha  occ. eigenvalues --  -10.10225 -10.08085 -10.07164 -10.07021 -10.07016
 Alpha  occ. eigenvalues --   -8.02975  -5.99234  -5.99207  -5.99070  -1.02443
 Alpha  occ. eigenvalues --   -0.91348  -0.85212  -0.81530  -0.79725  -0.73837
 Alpha  occ. eigenvalues --   -0.65487  -0.63983  -0.63215  -0.57247  -0.53345
 Alpha  occ. eigenvalues --   -0.52561  -0.51414  -0.47614  -0.45422  -0.42424
 Alpha  occ. eigenvalues --   -0.41279  -0.41163  -0.40746  -0.38367  -0.37028
 Alpha  occ. eigenvalues --   -0.36131  -0.35105  -0.33637  -0.33176  -0.32433
 Alpha  occ. eigenvalues --   -0.31746  -0.29676  -0.28782  -0.27878  -0.26378
 Alpha  occ. eigenvalues --   -0.25777  -0.24527  -0.23882  -0.23433  -0.22686
 Alpha  occ. eigenvalues --   -0.21669  -0.20611  -0.16426  -0.15967  -0.11207
 Alpha  occ. eigenvalues --    0.04182
 Alpha virt. eigenvalues --    0.06392   0.07081   0.07303   0.07451   0.08666
 Alpha virt. eigenvalues --    0.08999   0.09261   0.09862   0.10466   0.10782
 Alpha virt. eigenvalues --    0.11826   0.12012   0.12258   0.13605   0.13668

  Beta  occ. eigenvalues --  -88.96726 -19.02492 -19.02294 -14.25402 -14.20868
  Beta  occ. eigenvalues --  -10.12757 -10.11664 -10.11520 -10.11495 -10.10616
  Beta  occ. eigenvalues --  -10.10205 -10.08084 -10.07142 -10.07010 -10.06965
  Beta  occ. eigenvalues --   -8.02971  -5.99232  -5.99204  -5.99066  -1.02421
  Beta  occ. eigenvalues --   -0.91327  -0.85186  -0.81432  -0.79707  -0.73777
  Beta  occ. eigenvalues --   -0.65432  -0.63954  -0.63127  -0.57211  -0.53289
  Beta  occ. eigenvalues --   -0.52502  -0.51365  -0.47563  -0.45373  -0.42372
  Beta  occ. eigenvalues --   -0.41233  -0.41125  -0.40692  -0.38298  -0.36978
  Beta  occ. eigenvalues --   -0.36092  -0.35074  -0.33603  -0.33142  -0.32401
  Beta  occ. eigenvalues --   -0.31714  -0.29646  -0.28685  -0.27833  -0.26343
  Beta  occ. eigenvalues --   -0.25751  -0.24505  -0.23857  -0.23412  -0.22672
  Beta  occ. eigenvalues --   -0.21601  -0.20574  -0.16420  -0.15842  -0.11070
  Beta virt. eigenvalues --    0.06498   0.07194   0.07451   0.07785   0.08135
  Beta virt. eigenvalues --    0.08975   0.09062   0.09812   0.10270   0.10742
  Beta virt. eigenvalues --    0.10849   0.12078   0.12226   0.12853   0.13641

 Mulliken charges and spin densities:
               1          2
     1  C    0.251447  -0.402755
     2  N    0.292146  -0.117046
     3  C   -0.725881   0.494052
     4  C   -0.573848   0.316926
     5  C   -0.011073  -0.437928
     6  C    1.343803  -1.481309
     7  C    1.023845  -1.278668
     8  C   -0.999175   0.978426
     9  N   -0.308477   0.015204
    10  S    0.769770  -0.505645
    11  O   -0.250658  -0.004568
    12  O   -0.101629   0.002781
    13  C   -1.110469   0.821922
    14  C    0.140984  -0.466803
    15  C    0.400128  -0.821236
    16  H    0.025441   0.138897
    17  H    0.090293   0.077474
    18  H    0.126005   0.030889
    19  H    0.191616   0.012276
    20  H    0.018298   0.142287
    21  H   -0.548509   0.707974
    22  H   -0.177956   0.342972
    23  H   -0.458583   0.723004
    24  H   -0.471439   0.720084
    25  H    0.096143   0.227997
    26  H   -0.105588   0.292364
    27  H    0.074472   0.136016
    28  H    0.164542   0.013268
    29  H   -0.165648   0.321144
 Sum of Mulliken charges =  -1.00000   1.00000

 Dipole moment (field-independent basis, Debye):
    X=             -7.5850    Y=             -4.4468    Z=              1.3130  Tot=              8.8899
 Quadrupole moment (field-independent basis, Debye-Ang):
   XX=           -189.7012   YY=           -136.3064   ZZ=           -127.4294
   XY=            -20.6875   XZ=             10.0633   YZ=              6.9814

 Summary of Natural Population Analysis:

                                       Natural Population
                Natural  -----------------------------------------------
    Atom  No    Charge         Core      Valence    Rydberg      Total
 -----------------------------------------------------------------------
      C    1   -0.17941      0.99963     2.17252    0.00726     3.17941
      N    2   -0.36341      0.99970     2.84984    0.01387     3.86341
      C    3    0.06777      0.99946     1.91823    0.01454     2.93223
      C    4   -0.13103      0.99949     2.12325    0.00829     3.13103
      C    5   -0.09230      0.99957     2.08249    0.01024     3.09230
      C    6   -0.11492      0.99952     2.10509    0.01031     3.11492
      C    7    0.09139      0.99949     1.89667    0.01245     2.90861
      C    8   -0.12003      0.99945     2.10931    0.01127     3.12003
      N    9   -0.39078      0.99972     2.88048    0.01058     3.89078
      S   10    1.10262      4.99920     1.80046    0.09772     6.89738
      O   11   -0.46911      0.99991     3.46387    0.00534     4.46911
      O   12   -0.46371      0.99991     3.45850    0.00530     4.46371
      C   13   -0.23212      0.99951     2.21667    0.01594     3.23212
      C   14   -0.19217      0.99961     2.18223    0.01032     3.19217
      C   15   -0.19167      0.99962     2.18251    0.00955     3.19167
      H   16    0.10307      0.00000     0.39599    0.00094     0.39693
      H   17    0.10688      0.00000     0.39198    0.00114     0.39312
      H   18    0.09008      0.00000     0.40861    0.00130     0.40992
      H   19    0.11027      0.00000     0.38864    0.00110     0.38973
      H   20    0.09880      0.00000     0.40043    0.00077     0.40120
      H   21    0.10321      0.00000     0.39556    0.00124     0.39679
      H   22    0.10665      0.00000     0.39112    0.00223     0.39335
      H   23    0.19241      0.00000     0.29325    0.01435     0.30759
      H   24    0.19042      0.00000     0.29949    0.01009     0.30958
      H   25    0.12940      0.00000     0.36953    0.00108     0.37060
      H   26    0.11256      0.00000     0.38605    0.00139     0.38744
      H   27    0.11327      0.00000     0.38550    0.00123     0.38673
      H   28    0.11406      0.00000     0.38496    0.00098     0.38594
      H   29    0.10781      0.00000     0.39126    0.00094     0.39219
 =======================================================================
   * Total *   -0.00000     18.99379    40.72448    0.28172    60.00000

 Normal termination of Gaussian 16 at Thu Dec 10 15:28:47 2020.
