 Gaussian 16, Revision A.03,

 -----------------------------------------------------------
 # opt freq B3LYP/6-31G(d) empiricaldispersion=gd3bj scf=xqc
 -----------------------------------------------------------

 ------------------------------
 CID_54996981_JID_7623_neutraal
 ------------------------------
 Symbolic Z-matrix:
 Charge =  0 Multiplicity = 1

 SCF Done:  E(RB3LYP) =  -1200.47665039     A.U. after   15 cycles
 SCF Done:  E(RB3LYP) =  -1200.48638126     A.U. after   13 cycles
 SCF Done:  E(RB3LYP) =  -1200.48829390     A.U. after   13 cycles
 SCF Done:  E(RB3LYP) =  -1200.48903643     A.U. after   14 cycles
 SCF Done:  E(RB3LYP) =  -1200.49007097     A.U. after   13 cycles
 SCF Done:  E(RB3LYP) =  -1200.48992620     A.U. after   13 cycles
 SCF Done:  E(RB3LYP) =  -1200.49107742     A.U. after   13 cycles
 SCF Done:  E(RB3LYP) =  -1200.49132107     A.U. after   13 cycles
 SCF Done:  E(RB3LYP) =  -1200.49139682     A.U. after   12 cycles
 SCF Done:  E(RB3LYP) =  -1200.49156188     A.U. after   11 cycles
 SCF Done:  E(RB3LYP) =  -1200.49232985     A.U. after   12 cycles
 SCF Done:  E(RB3LYP) =  -1200.49236118     A.U. after   11 cycles
 SCF Done:  E(RB3LYP) =  -1200.49236851     A.U. after   10 cycles
 SCF Done:  E(RB3LYP) =  -1200.49236948     A.U. after    9 cycles
 SCF Done:  E(RB3LYP) =  -1200.49236972     A.U. after    7 cycles
 SCF Done:  E(RB3LYP) =  -1200.49236977     A.U. after    7 cycles
 Optimization completed.
    -- Stationary point found.
 Normal termination of Gaussian 16 at Fri Dec 11 13:19:40 2020.

 --------------------------------------------------------------------
 #N Geom=AllCheck Guess=TCheck SCRF=Check GenChk RB3LYP/6-31G(d) Freq
 --------------------------------------------------------------------

 Structure from the checkpoint file:  "JID_7623.chk"
 ------------------------------
 CID_54996981_JID_7623_neutraal
 ------------------------------
 Charge =  0 Multiplicity = 1

 SCF Done:  E(RB3LYP) =  -1200.49236977     A.U. after    1 cycles

  Exact polarizability: 166.843   5.346 133.852  -9.057  -0.540 118.409
 Approx polarizability: 226.666  10.179 192.464 -23.338   6.476 196.386

                      1                      2                      3
                      A                      A                      A
 Frequencies --     22.1120                28.9516                40.6575
 Red. masses --      5.3111                 5.6780                 3.9588
 Frc consts  --      0.0015                 0.0028                 0.0039
 IR Inten    --      1.2503                 1.9423                 1.4166

                      4                      5                      6
                      A                      A                      A
 Frequencies --     63.9337                73.8226                77.6923
 Red. masses --      3.6877                 3.1742                 3.9098
 Frc consts  --      0.0089                 0.0102                 0.0139
 IR Inten    --      2.0632                 0.5354                 4.3203

                      7                      8                      9
                      A                      A                      A
 Frequencies --    104.7627               112.0414               134.3323
 Red. masses --      4.8130                 4.5165                 3.4508
 Frc consts  --      0.0311                 0.0334                 0.0367
 IR Inten    --      6.4258                 2.1518                 1.2281

                     10                     11                     12
                      A                      A                      A
 Frequencies --    140.3911               165.7978               198.0968
 Red. masses --      5.8341                 5.4909                 2.9972
 Frc consts  --      0.0677                 0.0889                 0.0693
 IR Inten    --      2.4032                 6.3556                 2.0804

                     13                     14                     15
                      A                      A                      A
 Frequencies --    215.1896               233.6565               239.8427
 Red. masses --      3.4055                 1.2506                 1.5639
 Frc consts  --      0.0929                 0.0402                 0.0530
 IR Inten    --      1.1284                 1.2048                 3.5905

                     16                     17                     18
                      A                      A                      A
 Frequencies --    277.5744               309.9787               318.6992
 Red. masses --      6.4119                 2.8876                 2.3797
 Frc consts  --      0.2911                 0.1635                 0.1424
 IR Inten    --      0.7213                 5.4674                 8.7836

                     19                     20                     21
                      A                      A                      A
 Frequencies --    324.2361               334.3548               349.9503
 Red. masses --      1.1966                 3.1437                 2.6228
 Frc consts  --      0.0741                 0.2071                 0.1892
 IR Inten    --      0.4976                 1.8061                 2.0784

                     22                     23                     24
                      A                      A                      A
 Frequencies --    381.9131               391.1156               426.8127
 Red. masses --      2.9412                 2.9505                 3.7379
 Frc consts  --      0.2528                 0.2659                 0.4012
 IR Inten    --      1.2766                 1.2090                 0.4697

                     25                     26                     27
                      A                      A                      A
 Frequencies --    435.7965               462.3454               477.2387
 Red. masses --      4.3995                 2.7000                 3.6466
 Frc consts  --      0.4923                 0.3401                 0.4893
 IR Inten    --     10.9014                 9.8791                16.5915

                     28                     29                     30
                      A                      A                      A
 Frequencies --    500.7443               547.3314               585.0179
 Red. masses --      7.0914                 3.1577                 3.0573
 Frc consts  --      1.0476                 0.5573                 0.6165
 IR Inten    --     46.8431                 7.8403                 6.0357

                     31                     32                     33
                      A                      A                      A
 Frequencies --    602.4579               658.1304               713.9464
 Red. masses --      5.0034                 4.1462                 4.7799
 Frc consts  --      1.0700                 1.0581                 1.4355
 IR Inten    --     21.3083                53.5915                54.2603

                     34                     35                     36
                      A                      A                      A
 Frequencies --    793.0926               816.2754               830.0251
 Red. masses --      1.9568                 2.3366                 2.6569
 Frc consts  --      0.7252                 0.9173                 1.0785
 IR Inten    --     27.5210                 3.1614                46.2362

                     37                     38                     39
                      A                      A                      A
 Frequencies --    859.9643               876.6718               929.9326
 Red. masses --      2.3505                 3.0017                 2.1949
 Frc consts  --      1.0242                 1.3592                 1.1183
 IR Inten    --      5.1727                 9.6985                25.1279

                     40                     41                     42
                      A                      A                      A
 Frequencies --    945.1267               952.8843               955.6887
 Red. masses --      2.0811                 1.2780                 2.2101
 Frc consts  --      1.0953                 0.6837                 1.1893
 IR Inten    --     11.9136                 1.5986                 0.2030

                     43                     44                     45
                      A                      A                      A
 Frequencies --    957.9973               961.5005              1031.5702
 Red. masses --      2.9643                 1.5580                 2.5754
 Frc consts  --      1.6029                 0.8486                 1.6147
 IR Inten    --     85.5543                 0.5576                10.3537

                     46                     47                     48
                      A                      A                      A
 Frequencies --   1055.0150              1077.4472              1108.1661
 Red. masses --      3.4886                 2.0650                 4.4521
 Frc consts  --      2.2878                 1.4124                 3.2213
 IR Inten    --     30.3199                11.9012               140.9824

                     49                     50                     51
                      A                      A                      A
 Frequencies --   1130.7547              1146.7175              1160.0986
 Red. masses --      1.9558                 2.6591                 1.8919
 Frc consts  --      1.4734                 2.0602                 1.5001
 IR Inten    --     31.7427                44.1254               124.7626

                     52                     53                     54
                      A                      A                      A
 Frequencies --   1166.9641              1179.5396              1210.2222
 Red. masses --      2.0281                 1.8744                 1.6987
 Frc consts  --      1.6273                 1.5365                 1.4659
 IR Inten    --     56.6928                 8.8433                 4.1413

                     55                     56                     57
                      A                      A                      A
 Frequencies --   1237.3425              1255.2613              1260.1725
 Red. masses --      2.0713                 1.3485                 1.4465
 Frc consts  --      1.8684                 1.2519                 1.3534
 IR Inten    --     10.2674                39.9472                54.3340

                     58                     59                     60
                      A                      A                      A
 Frequencies --   1319.5860              1325.8585              1344.1084
 Red. masses --      2.3552                 1.5049                 1.3474
 Frc consts  --      2.4163                 1.5586                 1.4343
 IR Inten    --    150.2632                20.5326                 5.7274

                     61                     62                     63
                      A                      A                      A
 Frequencies --   1348.0593              1359.4545              1379.7356
 Red. masses --      3.4458                 1.3944                 1.2504
 Frc consts  --      3.6894                 1.5184                 1.4025
 IR Inten    --    373.7424                 1.2379                29.9103

                     64                     65                     66
                      A                      A                      A
 Frequencies --   1420.3531              1424.5613              1429.1573
 Red. masses --      1.3025                 1.2273                 1.2558
 Frc consts  --      1.5482                 1.4674                 1.5112
 IR Inten    --     16.0952                22.1898                 9.3149

                     67                     68                     69
                      A                      A                      A
 Frequencies --   1440.8160              1443.5689              1454.4795
 Red. masses --      1.2185                 1.3196                 1.2278
 Frc consts  --      1.4904                 1.6202                 1.5303
 IR Inten    --     10.3271                 7.5398                17.2496

                     70                     71                     72
                      A                      A                      A
 Frequencies --   1472.9181              1491.7826              1508.3880
 Red. masses --      1.1526                 1.0970                 1.0834
 Frc consts  --      1.4732                 1.4383                 1.4523
 IR Inten    --     17.2342                 7.2285                11.3066

                     73                     74                     75
                      A                      A                      A
 Frequencies --   1515.6127              1516.6493              1519.8191
 Red. masses --      1.0506                 1.0470                 1.0868
 Frc consts  --      1.4219                 1.4190                 1.4791
 IR Inten    --      5.7125                 4.4004                 4.5632

                     76                     77                     78
                      A                      A                      A
 Frequencies --   1529.4321              1534.3942              1538.1260
 Red. masses --      1.0523                 1.0451                 1.0599
 Frc consts  --      1.4503                 1.4497                 1.4774
 IR Inten    --      1.9347                11.3191                11.2437

                     79                     80                     81
                      A                      A                      A
 Frequencies --   1554.3334              1802.5084              2369.3938
 Red. masses --      1.0536                10.6467                12.5862
 Frc consts  --      1.4997                20.3807                41.6313
 IR Inten    --      4.0462               188.2465                 9.2043

                     82                     83                     84
                      A                      A                      A
 Frequencies --   3057.3742              3063.6692              3066.0291
 Red. masses --      1.0352                 1.0632                 1.0356
 Frc consts  --      5.7014                 5.8794                 5.7361
 IR Inten    --     10.9447                 5.6491                10.4036

                     85                     86                     87
                      A                      A                      A
 Frequencies --   3070.7906              3084.7808              3101.1705
 Red. masses --      1.0419                 1.0840                 1.0657
 Frc consts  --      5.7884                 6.0775                 6.0388
 IR Inten    --     20.9677                 4.6426                25.5698

                     88                     89                     90
                      A                      A                      A
 Frequencies --   3101.2265              3122.1231              3126.9075
 Red. masses --      1.0669                 1.0954                 1.1000
 Frc consts  --      6.0457                 6.2913                 6.3370
 IR Inten    --      8.8621                 4.3770                23.4983

                     91                     92                     93
                      A                      A                      A
 Frequencies --   3131.4397              3136.3893              3142.3966
 Red. masses --      1.0590                 1.1001                 1.1049
 Frc consts  --      6.1184                 6.3760                 6.4282
 IR Inten    --      0.2428                30.8472                 2.5665

                     94                     95                     96
                      A                      A                      A
 Frequencies --   3142.4764              3145.0072              3165.4711
 Red. masses --      1.1044                 1.0951                 1.1089
 Frc consts  --      6.4259                 6.3819                 6.5468
 IR Inten    --      9.8714                18.2423                28.3507

                     97                     98                     99
                      A                      A                      A
 Frequencies --   3177.5628              3178.8170              3206.0500
 Red. masses --      1.1030                 1.0991                 1.1081
 Frc consts  --      6.5619                 6.5435                 6.7108
 IR Inten    --      6.6441                 3.4229                 0.5418

 - Thermochemistry -
 -------------------
 Temperature   298.150 Kelvin.  Pressure   1.00000 Atm.
 Atom     1 has atomic number  6 and mass  12.00000

 Molecular mass:   262.09873 amu.
 Principal axes and moments of inertia in atomic units:
                           1         2         3
     Eigenvalues --  2949.948265806.441036842.61295
           X            0.99885   0.04727  -0.00791
           Y           -0.04758   0.99778  -0.04668
           Z            0.00569   0.04700   0.99888
 This molecule is an asymmetric top.
 Rotational symmetry number  1.
 Warning -- assumption of classical behavior for rotation
           may cause significant error
 Rotational temperatures (Kelvin)      0.02936     0.01492     0.01266
 Rotational constants (GHZ):           0.61179     0.31082     0.26375
 Zero-point vibrational energy     760287.4 (Joules/Mol)
                                  181.71306 (Kcal/Mol)
 Warning -- explicit consideration of  31 degrees of freedom as
           vibrations may cause significant error
 Vibrational temperatures:     31.81    41.65    58.50    91.99   106.21
          (Kelvin)            111.78   150.73   161.20   193.27   201.99
                              238.55   285.02   309.61   336.18   345.08
                              399.37   445.99   458.54   466.50   481.06
                              503.50   549.49   562.73   614.09   627.01
                              665.21   686.64   720.46   787.49   841.71
                              866.80   946.90  1027.21  1141.08  1174.44
                             1194.22  1237.30  1261.34  1337.97  1359.83
                             1370.99  1375.02  1378.34  1383.38  1484.20
                             1517.93  1550.21  1594.40  1626.90  1649.87
                             1669.12  1679.00  1697.09  1741.24  1780.26
                             1806.04  1813.11  1898.59  1907.61  1933.87
                             1939.56  1955.95  1985.13  2043.57  2049.63
                             2056.24  2073.01  2076.97  2092.67  2119.20
                             2146.34  2170.23  2180.63  2182.12  2186.68
                             2200.51  2207.65  2213.02  2236.34  2593.41
                             3409.03  4398.88  4407.94  4411.33  4418.18
                             4438.31  4461.89  4461.97  4492.04  4498.92
                             4505.44  4512.56  4521.21  4521.32  4524.96
                             4554.41  4571.80  4573.61  4612.79

 Zero-point correction=                           0.289578 (Hartree/Particle)
 Thermal correction to Energy=                    0.308998
 Thermal correction to Enthalpy=                  0.309942
 Thermal correction to Gibbs Free Energy=         0.240243
 Sum of electronic and zero-point Energies=          -1200.202792
 Sum of electronic and thermal Energies=             -1200.183372
 Sum of electronic and thermal Enthalpies=           -1200.182427
 Sum of electronic and thermal Free Energies=        -1200.252127

                     E (Thermal)             CV                S
                      KCal/Mol        Cal/Mol-Kelvin    Cal/Mol-Kelvin
 Total                  193.899             69.877            146.695
 Electronic               0.000              0.000              0.000
 Translational            0.889              2.981             42.590
 Rotational               0.889              2.981             33.127
 Vibrational            192.122             63.916             70.978
 Vibration     1          0.593              1.985              6.435
 Vibration     2          0.593              1.984              5.900
 Vibration     3          0.594              1.981              5.227
 Vibration     4          0.597              1.972              4.332
 Vibration     5          0.599              1.966              4.049
 Vibration     6          0.599              1.964              3.948
 Vibration     7          0.605              1.945              3.364
 Vibration     8          0.607              1.939              3.233
 Vibration     9          0.613              1.919              2.883
 Vibration    10          0.615              1.913              2.799
 Vibration    11          0.624              1.885              2.483
 Vibration    12          0.637              1.843              2.151
 Vibration    13          0.645              1.818              1.999
 Vibration    14          0.654              1.789              1.851
 Vibration    15          0.657              1.779              1.804
 Vibration    16          0.679              1.715              1.549
 Vibration    17          0.699              1.655              1.362
 Vibration    18          0.705              1.638              1.317
 Vibration    19          0.709              1.627              1.289
 Vibration    20          0.716              1.607              1.239
 Vibration    21          0.727              1.575              1.166
 Vibration    22          0.751              1.509              1.032
 Vibration    23          0.759              1.489              0.996
 Vibration    24          0.788              1.412              0.869
 Vibration    25          0.796              1.392              0.840
 Vibration    26          0.820              1.334              0.759
 Vibration    27          0.834              1.301              0.718
 Vibration    28          0.856              1.248              0.656
 Vibration    29          0.903              1.146              0.550
 Vibration    30          0.942              1.064              0.476
 Vibration    31          0.961              1.027              0.445

                           ! Non-Optimized Parameters !
 Normal termination of Gaussian 16 at Fri Dec 11 13:34:01 2020.

 ----------------------------------------------------------------------
 # B3LYP/6-311++G(d,p) empiricaldispersion=gd3bj scf=xqc pop=npa geom=c
 heck
 ----------------------------------------------------------------------

 --------------------------------------
 CID_54996981_JID_7623_Energie_neutraal
 --------------------------------------
 Structure from the checkpoint file:  "JID_7623.chk"
 Charge =  0 Multiplicity = 1

 SCF Done:  E(RB3LYP) =  -1200.75365594     A.U. after   15 cycles
 Normal termination of Gaussian 16 at Fri Dec 11 13:41:20 2020.

 ----------------------------------------------------------------------
 # B3LYP/6-311++G(d,p) empiricaldispersion=gd3bj scf=xqc pop=npa geom=c
 heck
 ----------------------------------------------------------------------

 ------------------------------------
 CID_54996981_JID_7623_Energie_kation
 ------------------------------------
 Structure from the checkpoint file:  "JID_7623.chk"
 Charge =  1 Multiplicity = 2

 SCF Done:  E(UB3LYP) =  -1200.41431047     A.U. after   25 cycles
 Normal termination of Gaussian 16 at Fri Dec 11 13:57:42 2020.
 Gaussian 16:  ES64L-G16RevA.03 25-Dec-2016

 ----------------------------------------------------------------------
 # B3LYP/6-311++G(d,p) empiricaldispersion=gd3bj scf=xqc pop=npa geom=c
 heck
 ----------------------------------------------------------------------

 -----------------------------------
 CID_54996981_JID_7623_Energie_anion
 -----------------------------------
 Structure from the checkpoint file:  "JID_7623.chk"
 Charge = -1 Multiplicity = 2

                         Standard orientation:
 ---------------------------------------------------------------------
 Center     Atomic      Atomic             Coordinates (Angstroms)
 Number     Number       Type             X           Y           Z
 ---------------------------------------------------------------------
      1          6           0        3.507403    2.101212    0.069051
      2          6           0        4.071771    0.732034    0.409685
      3          8           0        3.240371   -0.323038   -0.139633
      4          6           0        2.143084   -0.645876    0.556339
      5          8           0        1.821519   -0.155128    1.620807
      6          6           0        1.325597   -1.687471   -0.167783
      7         16           0       -0.115443   -0.949672   -1.039027
      8          8           0        0.442754    0.009580   -1.997948
      9          8           0       -0.914459   -2.097313   -1.465403
     10          7           0       -0.983265   -0.069009    0.061154
     11          6           0       -0.599716    1.330217    0.254932
     12          6           0       -1.477925    2.311082   -0.548324
     13          6           0       -2.864414    2.351445   -0.083380
     14          7           0       -3.954141    2.366759    0.316278
     15          6           0       -1.986876   -0.687681    0.980635
     16          6           0       -3.247545   -1.158354    0.252670
     17          6           0       -1.378602   -1.779390    1.865322
     18          1           0        3.336779    2.188864   -1.008232
     19          1           0        4.213746    2.880408    0.375565
     20          1           0        2.564062    2.270303    0.595068
     21          1           0        5.044874    0.568608   -0.056677
     22          1           0        4.153575    0.587085    1.489496
     23          1           0        1.897224   -2.185699   -0.952158
     24          1           0        0.926021   -2.409912    0.541938
     25          1           0       -0.635587    1.554310    1.324247
     26          1           0        0.426609    1.479490   -0.074837
     27          1           0       -1.055952    3.321045   -0.472088
     28          1           0       -1.450580    2.018824   -1.602926
     29          1           0       -2.269054    0.148693    1.626643
     30          1           0       -3.032274   -2.009707   -0.394950
     31          1           0       -3.997570   -1.457342    0.993472
     32          1           0       -3.671244   -0.351500   -0.349163
     33          1           0       -0.455532   -1.430994    2.338277
     34          1           0       -2.092381   -2.054518    2.648536
     35          1           0       -1.171943   -2.683556    1.282733
 ---------------------------------------------------------------------

 SCF Done:  E(UB3LYP) =  -1200.74901973     A.U. after   30 cycles

 The electronic state is 2-A.
 Alpha  occ. eigenvalues --  -88.96357 -19.05592 -19.02234 -19.02046 -18.99210
 Alpha  occ. eigenvalues --  -14.25486 -14.22484 -10.17800 -10.13647 -10.13125
 Alpha  occ. eigenvalues --  -10.12539 -10.12217 -10.12188 -10.11064 -10.07966
 Alpha  occ. eigenvalues --  -10.06986 -10.05546  -8.02580  -5.98858  -5.98824
 Alpha  occ. eigenvalues --   -5.98650  -1.02646  -0.99624  -0.91689  -0.90809
 Alpha  occ. eigenvalues --   -0.85364  -0.82205  -0.71843  -0.70102  -0.68376
 Alpha  occ. eigenvalues --   -0.65310  -0.60666  -0.59390  -0.55620  -0.54578
 Alpha  occ. eigenvalues --   -0.48615  -0.45262  -0.44273  -0.42006  -0.41648
 Alpha  occ. eigenvalues --   -0.40875  -0.39383  -0.38318  -0.37311  -0.36538
 Alpha  occ. eigenvalues --   -0.35787  -0.35256  -0.34887  -0.33194  -0.33026
 Alpha  occ. eigenvalues --   -0.32848  -0.31357  -0.30308  -0.29515  -0.29080
 Alpha  occ. eigenvalues --   -0.28115  -0.27983  -0.27162  -0.27028  -0.26374
 Alpha  occ. eigenvalues --   -0.24933  -0.24224  -0.24138  -0.23832  -0.23060
 Alpha  occ. eigenvalues --   -0.21644  -0.20764  -0.19939  -0.17256  -0.16710
 Alpha  occ. eigenvalues --    0.04412
 Alpha virt. eigenvalues --    0.06819   0.07203   0.07308   0.08484   0.09030
 Alpha virt. eigenvalues --    0.09473   0.10004   0.10506   0.10523   0.10628
 Alpha virt. eigenvalues --    0.11467   0.11976   0.12059   0.12297   0.13050

  Beta  occ. eigenvalues --  -88.96302 -19.05540 -19.02202 -19.02039 -18.98988
  Beta  occ. eigenvalues --  -14.25474 -14.22475 -10.17495 -10.13646 -10.13110
  Beta  occ. eigenvalues --  -10.12534 -10.12205 -10.12154 -10.11051 -10.07965
  Beta  occ. eigenvalues --  -10.06984 -10.05485  -8.02519  -5.98814  -5.98783
  Beta  occ. eigenvalues --   -5.98543  -1.02547  -0.99347  -0.91632  -0.90478
  Beta  occ. eigenvalues --   -0.85333  -0.82182  -0.71810  -0.69920  -0.68242
  Beta  occ. eigenvalues --   -0.65212  -0.60661  -0.59281  -0.55495  -0.54488
  Beta  occ. eigenvalues --   -0.48382  -0.45085  -0.44199  -0.41958  -0.41519
  Beta  occ. eigenvalues --   -0.40655  -0.39267  -0.38103  -0.37226  -0.36429
  Beta  occ. eigenvalues --   -0.35557  -0.35096  -0.34819  -0.33075  -0.32953
  Beta  occ. eigenvalues --   -0.32767  -0.31325  -0.30292  -0.29194  -0.29057
  Beta  occ. eigenvalues --   -0.28098  -0.27493  -0.27142  -0.26939  -0.26326
  Beta  occ. eigenvalues --   -0.24897  -0.24200  -0.24083  -0.23733  -0.23004
  Beta  occ. eigenvalues --   -0.21589  -0.20636  -0.19278  -0.17110  -0.16641
  Beta virt. eigenvalues --    0.06848   0.07492   0.07895   0.08672   0.08968
  Beta virt. eigenvalues --    0.09646   0.09809   0.10237   0.10555   0.10689
  Beta virt. eigenvalues --    0.10839   0.11654   0.12012   0.12340   0.12388

 Mulliken charges and spin densities:
               1          2
     1  C    0.787834  -1.283279
     2  C    0.071993  -0.122391
     3  O    0.059758   0.023397
     4  C   -0.299157   0.175510
     5  O   -0.273729   0.088856
     6  C   -0.456481  -0.116831
     7  S    0.297445  -0.032362
     8  O   -0.135167   0.010107
     9  O   -0.049355   0.013434
    10  N    0.059599  -0.009811
    11  C   -0.565429   0.331159
    12  C    0.303410  -0.470935
    13  C   -0.005628  -0.143952
    14  N   -0.305344   0.012940
    15  C    0.009977  -0.032839
    16  C   -0.598029  -0.033445
    17  C   -0.575165   0.002786
    18  H    0.076838   0.082956
    19  H   -0.839570   0.999620
    20  H   -0.457028   0.613095
    21  H   -0.240987   0.399747
    22  H    0.129681   0.029305
    23  H    0.263905   0.018537
    24  H    0.225745   0.002035
    25  H   -0.001719   0.219898
    26  H    0.869740  -0.639631
    27  H   -0.557763   0.762588
    28  H    0.132492   0.075095
    29  H    0.135797   0.009991
    30  H    0.170760   0.011956
    31  H    0.117556   0.005732
    32  H    0.152591  -0.009539
    33  H    0.194800   0.008720
    34  H    0.132622  -0.001404
    35  H    0.168011  -0.001047
 Sum of Mulliken charges =  -1.00000   1.00000

 Dipole moment (field-independent basis, Debye):
    X=             -3.7850    Y=             -8.1176    Z=              1.0206  Tot=              9.0146
 Quadrupole moment (field-independent basis, Debye-Ang):
   XX=           -185.4418   YY=           -163.2962   ZZ=           -138.0541
   XY=            -11.0066   XZ=             -4.5793   YZ=             -8.5017

 Summary of Natural Population Analysis:

                                       Natural Population
                Natural  -----------------------------------------------
    Atom  No    Charge         Core      Valence    Rydberg      Total
 -----------------------------------------------------------------------
      C    1   -0.29989      0.99966     2.29484    0.00538     3.29989
      C    2   -0.01524      0.99958     2.00355    0.01211     3.01524
      O    3   -0.27618      0.99986     3.26757    0.00875     4.27618
      C    4    0.42611      0.99969     1.54727    0.02693     2.57389
      O    5   -0.29988      0.99987     3.29435    0.00566     4.29988
      C    6   -0.32616      0.99953     2.31540    0.01123     3.32616
      S    7    1.12899      4.99921     1.77030    0.10151     6.87101
      O    8   -0.46537      0.99991     3.45986    0.00560     4.46537
      O    9   -0.46774      0.99990     3.46222    0.00562     4.46774
      N   10   -0.38726      0.99969     2.87124    0.01632     3.88726
      C   11   -0.07820      0.99959     2.06431    0.01430     3.07820
      C   12   -0.25492      0.99952     2.24648    0.00891     3.25492
      C   13    0.16416      0.99966     1.81935    0.01683     2.83584
      N   14   -0.19246      0.99979     2.68185    0.01082     3.69246
      C   15   -0.00431      0.99960     1.99322    0.01149     3.00431
      C   16   -0.29105      0.99963     2.28620    0.00522     3.29105
      C   17   -0.29853      0.99964     2.29432    0.00457     3.29853
      H   18    0.10227      0.00000     0.39657    0.00116     0.39773
      H   19    0.10536      0.00000     0.39093    0.00370     0.39464
      H   20    0.10465      0.00000     0.39352    0.00183     0.39535
      H   21    0.08812      0.00000     0.41064    0.00124     0.41188
      H   22    0.09346      0.00000     0.40533    0.00121     0.40654
      H   23    0.12138      0.00000     0.37760    0.00103     0.37862
      H   24    0.11808      0.00000     0.38100    0.00092     0.38192
      H   25    0.10337      0.00000     0.39511    0.00151     0.39663
      H   26    0.11922      0.00000     0.37901    0.00176     0.38078
      H   27    0.12785      0.00000     0.36870    0.00345     0.37215
      H   28    0.12774      0.00000     0.37059    0.00167     0.37226
      H   29    0.10058      0.00000     0.39759    0.00184     0.39942
      H   30    0.11038      0.00000     0.38866    0.00097     0.38962
      H   31    0.09475      0.00000     0.40446    0.00078     0.40525
      H   32    0.10755      0.00000     0.39144    0.00101     0.39245
      H   33    0.11466      0.00000     0.38442    0.00092     0.38534
      H   34    0.09866      0.00000     0.40060    0.00074     0.40134
      H   35    0.09982      0.00000     0.39918    0.00100     0.40018
 =======================================================================
   * Total *   -0.00000     20.99433    48.70768    0.29799    70.00000

 Normal termination of Gaussian 16 at Fri Dec 11 14:16:41 2020.
