 Gaussian 16, Revision A.03,

 -----------------------------------------------------------
 # opt freq B3LYP/6-31G(d) empiricaldispersion=gd3bj scf=xqc
 -----------------------------------------------------------

 ------------------------------
 CID_89565028_JID_6768_neutraal
 ------------------------------
 Symbolic Z-matrix:
 Charge =  0 Multiplicity = 1

 SCF Done:  E(RB3LYP) =  -1101.82873521     A.U. after   15 cycles
 SCF Done:  E(RB3LYP) =  -1101.83447731     A.U. after   13 cycles
 SCF Done:  E(RB3LYP) =  -1101.83527107     A.U. after   13 cycles
 SCF Done:  E(RB3LYP) =  -1101.83598958     A.U. after   12 cycles
 SCF Done:  E(RB3LYP) =  -1101.83647673     A.U. after   12 cycles
 SCF Done:  E(RB3LYP) =  -1101.83685896     A.U. after   12 cycles
 SCF Done:  E(RB3LYP) =  -1101.83717544     A.U. after   12 cycles
 SCF Done:  E(RB3LYP) =  -1101.83743610     A.U. after   12 cycles
 SCF Done:  E(RB3LYP) =  -1101.83749891     A.U. after   12 cycles
 SCF Done:  E(RB3LYP) =  -1101.83762430     A.U. after   12 cycles
 SCF Done:  E(RB3LYP) =  -1101.83929105     A.U. after   11 cycles
 SCF Done:  E(RB3LYP) =  -1101.83929554     A.U. after   10 cycles
 SCF Done:  E(RB3LYP) =  -1101.83929645     A.U. after    8 cycles
 SCF Done:  E(RB3LYP) =  -1101.83929683     A.U. after    8 cycles
 SCF Done:  E(RB3LYP) =  -1101.83929698     A.U. after    8 cycles
 Optimization completed.
    -- Stationary point found.
 Normal termination of Gaussian 16 at Fri Dec 11 00:32:08 2020.

 --------------------------------------------------------------------
 #N Geom=AllCheck Guess=TCheck SCRF=Check GenChk RB3LYP/6-31G(d) Freq
 --------------------------------------------------------------------

 Structure from the checkpoint file:  "JID_6768.chk"
 ------------------------------
 CID_89565028_JID_6768_neutraal
 ------------------------------
 Charge =  0 Multiplicity = 1

 SCF Done:  E(RB3LYP) =  -1101.83929698     A.U. after    1 cycles

  Exact polarizability: 163.483   5.879 142.871  17.704  -3.556 100.813
 Approx polarizability: 213.769  15.950 265.082  33.397  -4.428 160.575

                      1                      2                      3
                      A                      A                      A
 Frequencies --     26.8777                50.3493                62.9147
 Red. masses --      5.6390                 5.5206                 5.9274
 Frc consts  --      0.0024                 0.0082                 0.0138
 IR Inten    --      0.3940                 0.0583                 0.2467

                      4                      5                      6
                      A                      A                      A
 Frequencies --     77.9935               100.7120               120.4718
 Red. masses --      6.5567                 1.1099                 5.9793
 Frc consts  --      0.0235                 0.0066                 0.0511
 IR Inten    --      0.2627                45.1218                 2.2995

                      7                      8                      9
                      A                      A                      A
 Frequencies --    139.0896               155.3528               209.8025
 Red. masses --      4.6761                 4.2274                 3.9666
 Frc consts  --      0.0533                 0.0601                 0.1029
 IR Inten    --      1.6467                 0.6238                 6.3394

                     10                     11                     12
                      A                      A                      A
 Frequencies --    222.3650               247.1008               287.2315
 Red. masses --      4.5998                 1.3833                 2.1803
 Frc consts  --      0.1340                 0.0498                 0.1060
 IR Inten    --      0.8937                 2.6778                 7.5758

                     13                     14                     15
                      A                      A                      A
 Frequencies --    295.8670               318.5454               340.4863
 Red. masses --      4.0051                 2.5485                 2.0501
 Frc consts  --      0.2066                 0.1524                 0.1400
 IR Inten    --     10.0671                 1.9991                 0.8982

                     16                     17                     18
                      A                      A                      A
 Frequencies --    370.9699               410.8677               459.9462
 Red. masses --      6.8889                 5.0141                 3.0827
 Frc consts  --      0.5586                 0.4987                 0.3842
 IR Inten    --     15.4749                 2.7022                 0.3934

                     19                     20                     21
                      A                      A                      A
 Frequencies --    511.7229               513.9892               556.3740
 Red. masses --      2.5307                 1.8825                 4.6826
 Frc consts  --      0.3904                 0.2930                 0.8540
 IR Inten    --     85.8739                75.5886                 1.6512

                     22                     23                     24
                      A                      A                      A
 Frequencies --    580.0052               608.9017               633.3387
 Red. masses --      3.6972                 2.9924                 6.0023
 Frc consts  --      0.7328                 0.6537                 1.4185
 IR Inten    --      4.8761                 0.9810                12.4422

                     25                     26                     27
                      A                      A                      A
 Frequencies --    654.5040               705.5619               709.6717
 Red. masses --      5.7446                 3.2423                 1.1989
 Frc consts  --      1.4499                 0.9510                 0.3557
 IR Inten    --      1.7836                 0.7046                58.3141

                     28                     29                     30
                      A                      A                      A
 Frequencies --    724.5960               743.7863               752.5781
 Red. masses --      5.8410                 6.9720                 8.1194
 Frc consts  --      1.8069                 2.2725                 2.7094
 IR Inten    --     13.9333                 1.6068                 7.1043

                     31                     32                     33
                      A                      A                      A
 Frequencies --    756.3164               833.1361               855.9676
 Red. masses --      8.7882                 1.3108                 3.5117
 Frc consts  --      2.9618                 0.5361                 1.5159
 IR Inten    --     18.2819                 9.5397                 4.6570

                     34                     35                     36
                      A                      A                      A
 Frequencies --    869.3551               891.7101               909.7121
 Red. masses --      2.9394                 2.0128                 1.3723
 Frc consts  --      1.3089                 0.9430                 0.6691
 IR Inten    --     27.0253                 0.9461                 3.4824

                     37                     38                     39
                      A                      A                      A
 Frequencies --    942.9331               968.9030              1004.1166
 Red. masses --      1.9096                 1.9432                 1.6352
 Frc consts  --      1.0004                 1.0748                 0.9714
 IR Inten    --    142.1696                 1.1555                 3.1281

                     40                     41                     42
                      A                      A                      A
 Frequencies --   1030.8313              1059.6468              1067.4065
 Red. masses --      2.7099                 1.9031                 1.7408
 Frc consts  --      1.6966                 1.2590                 1.1686
 IR Inten    --     25.3416                43.1630                 3.0941

                     43                     44                     45
                      A                      A                      A
 Frequencies --   1101.5895              1121.5421              1159.2070
 Red. masses --      1.6769                 1.2861                 4.1177
 Frc consts  --      1.1989                 0.9531                 3.2601
 IR Inten    --      1.6156                 2.7934                 9.2450

                     46                     47                     48
                      A                      A                      A
 Frequencies --   1176.9138              1200.8245              1226.6528
 Red. masses --      3.4282                 3.0823                 2.5795
 Frc consts  --      2.7978                 2.6187                 2.2868
 IR Inten    --     30.4114                37.2303                 2.8679

                     49                     50                     51
                      A                      A                      A
 Frequencies --   1241.2169              1286.0994              1298.7139
 Red. masses --      1.7576                 1.4574                 1.3700
 Frc consts  --      1.5954                 1.4203                 1.3614
 IR Inten    --      2.7364                23.9330                 8.3210

                     52                     53                     54
                      A                      A                      A
 Frequencies --   1319.1089              1371.2683              1376.6833
 Red. masses --      2.8122                 1.5171                 1.1947
 Frc consts  --      2.8831                 1.6807                 1.3341
 IR Inten    --     61.2577                 7.5769                 8.6223

                     55                     56                     57
                      A                      A                      A
 Frequencies --   1397.1055              1408.8061              1419.8660
 Red. masses --      1.5025                 1.9548                 1.6964
 Frc consts  --      1.7279                 2.2859                 2.0150
 IR Inten    --     42.3322                 0.5767                 6.5968

                     58                     59                     60
                      A                      A                      A
 Frequencies --   1433.9005              1464.8548              1504.9931
 Red. masses --      1.2887                 5.3302                 2.1384
 Frc consts  --      1.5612                 6.7388                 2.8537
 IR Inten    --     37.7135               166.7968                 1.1819

                     61                     62                     63
                      A                      A                      A
 Frequencies --   1509.0104              1514.6934              1524.1149
 Red. masses --      1.3119                 1.3064                 1.0681
 Frc consts  --      1.7601                 1.7659                 1.4618
 IR Inten    --      6.8950                 5.8758                 4.2251

                     64                     65                     66
                      A                      A                      A
 Frequencies --   1529.9576              1603.7704              1728.4899
 Red. masses --      1.0566                 5.4148                 1.1086
 Frc consts  --      1.4572                 8.2057                 1.9514
 IR Inten    --      1.6756                 1.4062                 3.5191

                     67                     68                     69
                      A                      A                      A
 Frequencies --   1841.6680              1887.0293              3049.6681
 Red. masses --     10.1198                11.0862                 1.0643
 Frc consts  --     20.2229                23.2590                 5.8319
 IR Inten    --    792.6305               101.8745                14.7628

                     70                     71                     72
                      A                      A                      A
 Frequencies --   3065.4415              3068.4042              3095.4812
 Red. masses --      1.0578                 1.0440                 1.1003
 Frc consts  --      5.8564                 5.7916                 6.2119
 IR Inten    --     37.5722                 5.3200                 6.0808

                     73                     74                     75
                      A                      A                      A
 Frequencies --   3115.7063              3140.3603              3172.4153
 Red. masses --      1.1007                 1.0991                 1.1020
 Frc consts  --      6.2953                 6.3865                 6.5344
 IR Inten    --     18.8295                16.9543                 5.2022

                     76                     77                     78
                      A                      A                      A
 Frequencies --   3201.0073              3228.5888              3273.7435
 Red. masses --      1.0907                 1.0930                 1.0972
 Frc consts  --      6.5848                 6.7128                 6.9281
 IR Inten    --     10.7835                 6.1611                 0.9065

                     79                     80                     81
                      A                      A                      A
 Frequencies --   3452.1443              3536.0571              3626.6533
 Red. masses --      1.0478                 1.0951                 1.0778
 Frc consts  --      7.3571                 8.0673                 8.3524
 IR Inten    --      2.5478                 4.4746                32.9893

 - Thermochemistry -
 -------------------
 Temperature   298.150 Kelvin.  Pressure   1.00000 Atm.
 Atom     1 has atomic number  6 and mass  12.00000

 Molecular mass:   239.07285 amu.
 Principal axes and moments of inertia in atomic units:
                           1         2         3
     Eigenvalues --  1690.492856638.553177394.04010
           X            0.99997  -0.00633   0.00364
           Y            0.00638   0.99987  -0.01467
           Z           -0.00355   0.01469   0.99989
 This molecule is an asymmetric top.
 Rotational symmetry number  1.
 Warning -- assumption of classical behavior for rotation
           may cause significant error
 Rotational temperatures (Kelvin)      0.05124     0.01305     0.01171
 Rotational constants (GHZ):           1.06758     0.27186     0.24408
 Zero-point vibrational energy     606840.2 (Joules/Mol)
                                  145.03829 (Kcal/Mol)
 Warning -- explicit consideration of  23 degrees of freedom as
           vibrations may cause significant error
 Vibrational temperatures:     38.67    72.44    90.52   112.22   144.90
          (Kelvin)            173.33   200.12   223.52   301.86   319.93
                              355.52   413.26   425.69   458.32   489.88
                              533.74   591.15   661.76   736.26   739.52
                              800.50   834.50   876.07   911.23   941.69
                             1015.15  1021.06  1042.53  1070.14  1082.79
                             1088.17  1198.70  1231.55  1250.81  1282.97
                             1308.87  1356.67  1394.04  1444.70  1483.14
                             1524.60  1535.76  1584.94  1613.65  1667.84
                             1693.32  1727.72  1764.88  1785.83  1850.41
                             1868.56  1897.90  1972.95  1980.74  2010.12
                             2026.96  2042.87  2063.06  2107.60  2165.35
                             2171.13  2179.31  2192.86  2201.27  2307.47
                             2486.91  2649.75  2715.01  4387.79  4410.49
                             4414.75  4453.71  4482.81  4518.28  4564.40
                             4605.54  4645.22  4710.19  4966.87  5087.60
                             5217.95

 Zero-point correction=                           0.231133 (Hartree/Particle)
 Thermal correction to Energy=                    0.246664
 Thermal correction to Enthalpy=                  0.247608
 Thermal correction to Gibbs Free Energy=         0.187176
 Sum of electronic and zero-point Energies=          -1101.608164
 Sum of electronic and thermal Energies=             -1101.592633
 Sum of electronic and thermal Enthalpies=           -1101.591689
 Sum of electronic and thermal Free Energies=        -1101.652121

                     E (Thermal)             CV                S
                      KCal/Mol        Cal/Mol-Kelvin    Cal/Mol-Kelvin
 Total                  154.784             58.143            127.191
 Electronic               0.000              0.000              0.000
 Translational            0.889              2.981             42.316
 Rotational               0.889              2.981             32.784
 Vibrational            153.007             52.182             52.091
 Vibration     1          0.593              1.984              6.047
 Vibration     2          0.595              1.977              4.804
 Vibration     3          0.597              1.972              4.364
 Vibration     4          0.599              1.964              3.941
 Vibration     5          0.604              1.949              3.440
 Vibration     6          0.609              1.932              3.093
 Vibration     7          0.615              1.914              2.816
 Vibration     8          0.620              1.897              2.606
 Vibration     9          0.642              1.826              2.045
 Vibration    10          0.648              1.807              1.940
 Vibration    11          0.661              1.768              1.751
 Vibration    12          0.684              1.697              1.490
 Vibration    13          0.690              1.681              1.440
 Vibration    14          0.705              1.638              1.318
 Vibration    15          0.720              1.595              1.210
 Vibration    16          0.743              1.532              1.076
 Vibration    17          0.775              1.447              0.924
 Vibration    18          0.818              1.339              0.766
 Vibration    19          0.867              1.224              0.629
 Vibration    20          0.869              1.219              0.624
 Vibration    21          0.912              1.126              0.531
 Vibration    22          0.937              1.075              0.485
 Vibration    23          0.968              1.013              0.435

                           ! Non-Optimized Parameters !
 Normal termination of Gaussian 16 at Fri Dec 11 00:41:26 2020.

 ----------------------------------------------------------------------
 # B3LYP/6-311++G(d,p) empiricaldispersion=gd3bj scf=xqc pop=npa geom=c
 heck
 ----------------------------------------------------------------------

 --------------------------------------
 CID_89565028_JID_6768_Energie_neutraal
 --------------------------------------
 Structure from the checkpoint file:  "JID_6768.chk"
 Charge =  0 Multiplicity = 1

 SCF Done:  E(RB3LYP) =  -1102.07549645     A.U. after   16 cycles
 Normal termination of Gaussian 16 at Fri Dec 11 00:45:17 2020.

 ----------------------------------------------------------------------
 # B3LYP/6-311++G(d,p) empiricaldispersion=gd3bj scf=xqc pop=npa geom=c
 heck
 ----------------------------------------------------------------------

 ------------------------------------
 CID_89565028_JID_6768_Energie_kation
 ------------------------------------
 Structure from the checkpoint file:  "JID_6768.chk"
 Charge =  1 Multiplicity = 2

 SCF Done:  E(UB3LYP) =  -1101.76293770     A.U. after   28 cycles
 Normal termination of Gaussian 16 at Fri Dec 11 00:54:18 2020.
 Gaussian 16:  ES64L-G16RevA.03 25-Dec-2016

 ----------------------------------------------------------------------
 # B3LYP/6-311++G(d,p) empiricaldispersion=gd3bj scf=xqc pop=npa geom=c
 heck
 ----------------------------------------------------------------------

 -----------------------------------
 CID_89565028_JID_6768_Energie_anion
 -----------------------------------
 Structure from the checkpoint file:  "JID_6768.chk"
 Charge = -1 Multiplicity = 2

                         Standard orientation:
 ---------------------------------------------------------------------
 Center     Atomic      Atomic             Coordinates (Angstroms)
 Number     Number       Type             X           Y           Z
 ---------------------------------------------------------------------
      1          6           0        0.082016   -0.592599   -1.486189
      2          6           0        0.764399   -0.437339   -0.117251
      3          6           0        2.176224   -1.050520   -0.215689
      4          8           0        2.436533   -2.222522   -0.360964
      5          7           0        3.056522    0.011854   -0.093506
      6          6           0        2.400951    1.254661    0.065439
      7          8           0        2.966141    2.330145    0.087893
      8          7           0        1.065622    0.968917    0.179773
      9          7           0        4.446882   -0.105902   -0.187866
     10          6           0        0.004545   -1.123907    1.044212
     11          6           0       -1.113439   -0.282136    1.688675
     12          6           0       -2.199726    0.168148    0.758137
     13          6           0       -2.464660    1.439417    0.318316
     14          6           0       -3.533663    1.507433   -0.629890
     15          6           0       -4.075491    0.282632   -0.898714
     16         16           0       -3.290388   -0.974493    0.009377
     17          1           0        0.703938   -0.142562   -2.267606
     18          1           0       -0.896257   -0.108949   -1.496984
     19          1           0       -0.044405   -1.654088   -1.714562
     20          1           0        0.397908    1.697402   -0.033468
     21          1           0        4.759531    0.627794   -0.823635
     22          1           0        4.840622    0.119228    0.726024
     23          1           0       -0.389260   -2.076922    0.676958
     24          1           0        0.722335   -1.370107    1.835058
     25          1           0       -1.538179   -0.867006    2.514195
     26          1           0       -0.666593    0.611040    2.138202
     27          1           0       -1.916831    2.307084    0.673863
     28          1           0       -3.883121    2.428341   -1.083176
     29          1           0       -4.894987    0.040811   -1.561430
 ---------------------------------------------------------------------

 SCF Done:  E(UB3LYP) =  -1102.06740810     A.U. after   33 cycles
 SCF Done:  E(UB3LYP) =  -1102.06740810     a.u. after    1 cycles

 The electronic state is 2-A.
 Alpha  occ. eigenvalues --  -88.76492 -19.01507 -19.01320 -14.29552 -14.25443
 Alpha  occ. eigenvalues --  -14.25210 -10.21769 -10.19257 -10.14373 -10.09159
 Alpha  occ. eigenvalues --  -10.08746 -10.08161 -10.08136 -10.07875 -10.07313
 Alpha  occ. eigenvalues --  -10.06799  -7.85142  -5.81426  -5.81065  -5.80751
 Alpha  occ. eigenvalues --   -0.99428  -0.95802  -0.90541  -0.86413  -0.77692
 Alpha  occ. eigenvalues --   -0.73502  -0.71139  -0.66654  -0.62910  -0.61386
 Alpha  occ. eigenvalues --   -0.57301  -0.55361  -0.52397  -0.49589  -0.45761
 Alpha  occ. eigenvalues --   -0.43970  -0.43642  -0.42062  -0.41618  -0.40249
 Alpha  occ. eigenvalues --   -0.38004  -0.37007  -0.35556  -0.34762  -0.33695
 Alpha  occ. eigenvalues --   -0.32150  -0.31156  -0.30855  -0.30360  -0.29453
 Alpha  occ. eigenvalues --   -0.28675  -0.27857  -0.25711  -0.25441  -0.25052
 Alpha  occ. eigenvalues --   -0.23369  -0.21026  -0.20314  -0.18998  -0.17716
 Alpha  occ. eigenvalues --   -0.16993  -0.15349  -0.13230   0.04350
 Alpha virt. eigenvalues --    0.06136   0.06607   0.07759   0.07937   0.08149
 Alpha virt. eigenvalues --    0.08632   0.09338   0.09866   0.10528   0.11487
 Alpha virt. eigenvalues --    0.11709   0.12292   0.12817   0.12851   0.13608

  Beta  occ. eigenvalues --  -88.76468 -19.01493 -19.01307 -14.29550 -14.25389
  Beta  occ. eigenvalues --  -14.25208 -10.21764 -10.19251 -10.14375 -10.08980
  Beta  occ. eigenvalues --  -10.08581 -10.08140 -10.08114 -10.07869 -10.07314
  Beta  occ. eigenvalues --  -10.06773  -7.85119  -5.81417  -5.81056  -5.80669
  Beta  occ. eigenvalues --   -0.99404  -0.95778  -0.90506  -0.86389  -0.77500
  Beta  occ. eigenvalues --   -0.73426  -0.71085  -0.66532  -0.62772  -0.61224
  Beta  occ. eigenvalues --   -0.57254  -0.55318  -0.52312  -0.49552  -0.45594
  Beta  occ. eigenvalues --   -0.43906  -0.43459  -0.41990  -0.41585  -0.40153
  Beta  occ. eigenvalues --   -0.37967  -0.36953  -0.35526  -0.34732  -0.33624
  Beta  occ. eigenvalues --   -0.32106  -0.31074  -0.30777  -0.30229  -0.29377
  Beta  occ. eigenvalues --   -0.28580  -0.27734  -0.25562  -0.25309  -0.24883
  Beta  occ. eigenvalues --   -0.23243  -0.20990  -0.20286  -0.18963  -0.17694
  Beta  occ. eigenvalues --   -0.16967  -0.14951  -0.12394
  Beta virt. eigenvalues --    0.06465   0.06976   0.07544   0.08126   0.08203
  Beta virt. eigenvalues --    0.08650   0.09055   0.09630   0.10421   0.10761
  Beta virt. eigenvalues --    0.11499   0.12039   0.12437   0.12959   0.13115

 Mulliken charges and spin densities:
               1          2
     1  C   -0.732582  -0.085464
     2  C    0.668539  -0.000702
     3  C    0.302251  -0.445372
     4  O   -0.290382   0.016492
     5  N   -0.316862   0.205762
     6  C    0.507373  -0.356777
     7  O   -0.362467   0.013701
     8  N   -0.148086  -0.019403
     9  N    0.021773  -0.335899
    10  C   -0.490746   0.234011
    11  C    1.481225  -2.189031
    12  C   -0.498090   1.043324
    13  C   -0.852436   0.413205
    14  C    0.407898  -0.747593
    15  C   -0.429915   0.184711
    16  S    0.047207   0.094781
    17  H   -0.033434   0.191220
    18  H    0.221540  -0.070804
    19  H    0.146693   0.025887
    20  H    0.404402  -0.066149
    21  H    0.007969   0.243359
    22  H   -0.200035   0.476268
    23  H    0.194624   0.008230
    24  H   -0.295439   0.501591
    25  H   -0.501698   0.711528
    26  H   -0.013660   0.232693
    27  H   -0.222588   0.344998
    28  H   -0.072819   0.212354
    29  H    0.049742   0.163080
 Sum of Mulliken charges =  -1.00000   1.00000

 Dipole moment (field-independent basis, Debye):
    X=             -3.1507    Y=              0.5500    Z=             -3.9273  Tot=              5.0649
 Quadrupole moment (field-independent basis, Debye-Ang):
   XX=           -180.2960   YY=           -140.4621   ZZ=           -133.1079
   XY=              3.7109   XZ=              2.9420   YZ=              0.5101

 Summary of Natural Population Analysis:

                                       Natural Population
                Natural  -----------------------------------------------
    Atom  No    Charge         Core      Valence    Rydberg      Total
 -----------------------------------------------------------------------
      C    1   -0.28816      0.99961     2.28257    0.00597     3.28816
      C    2    0.02829      0.99954     1.95825    0.01392     2.97171
      C    3    0.35957      0.99959     1.61589    0.02494     2.64043
      O    4   -0.29328      0.99987     3.28770    0.00571     4.29328
      N    5   -0.18535      0.99957     2.67283    0.01294     3.68535
      C    6    0.41020      0.99966     1.56586    0.02428     2.58980
      O    7   -0.31914      0.99987     3.31323    0.00604     4.31914
      N    8   -0.33036      0.99965     2.81991    0.01079     3.83036
      N    9   -0.30211      0.99976     2.78983    0.01251     3.80211
      C   10   -0.18212      0.99957     2.17078    0.01177     3.18212
      C   11   -0.20979      0.99956     2.19816    0.01206     3.20979
      C   12   -0.07325      0.99949     2.05933    0.01443     3.07325
      C   13   -0.14066      0.99944     2.13036    0.01085     3.14066
      C   14   -0.13275      0.99953     2.12311    0.01011     3.13275
      C   15   -0.17346      0.99954     2.16237    0.01155     3.17346
      S   16    0.20091      4.99940     2.78004    0.01965     7.79909
      H   17    0.09942      0.00000     0.39964    0.00094     0.40058
      H   18    0.11361      0.00000     0.38505    0.00134     0.38639
      H   19    0.10885      0.00000     0.39029    0.00086     0.39115
      H   20    0.20253      0.00000     0.29515    0.00231     0.29747
      H   21    0.18129      0.00000     0.31633    0.00238     0.31871
      H   22    0.18092      0.00000     0.31511    0.00398     0.31908
      H   23    0.10491      0.00000     0.39392    0.00116     0.39509
      H   24    0.10757      0.00000     0.39070    0.00173     0.39243
      H   25    0.11270      0.00000     0.38462    0.00267     0.38730
      H   26    0.10934      0.00000     0.38875    0.00191     0.39066
      H   27    0.10310      0.00000     0.39572    0.00118     0.39690
      H   28    0.10339      0.00000     0.39573    0.00088     0.39661
      H   29    0.10381      0.00000     0.39542    0.00076     0.39619
 =======================================================================
   * Total *    0.00000     19.99367    42.77669    0.22965    63.00000

 Normal termination of Gaussian 16 at Fri Dec 11 01:05:08 2020.
