 Gaussian 16, Revision A.03,

 ----------------------------------------------------------------------
 # opt=(cartesian,calcfc) freq B3LYP/6-31G(d) empiricaldispersion=gd3bj
  scf=xqc
 ----------------------------------------------------------------------

 ------------------------------
 CID_43465401_JID_8583_neutraal
 ------------------------------
 Symbolic Z-matrix:
 Charge =  0 Multiplicity = 1

 SCF Done:  E(RB3LYP) =  -1236.27290268     A.U. after   16 cycles
 SCF Done:  E(RB3LYP) =  -1236.27292027     A.U. after   11 cycles
 SCF Done:  E(RB3LYP) =  -1236.27292106     A.U. after    9 cycles
 SCF Done:  E(RB3LYP) =  -1236.27292199     A.U. after    9 cycles
 SCF Done:  E(RB3LYP) =  -1236.27292213     A.U. after    9 cycles
 SCF Done:  E(RB3LYP) =  -1236.27292217     A.U. after    8 cycles
 SCF Done:  E(RB3LYP) =  -1236.27292220     A.U. after    7 cycles
 SCF Done:  E(RB3LYP) =  -1236.27292220     A.U. after    6 cycles
 SCF Done:  E(RB3LYP) =  -1236.27292222     A.U. after    7 cycles
 SCF Done:  E(RB3LYP) =  -1236.27292223     A.U. after    7 cycles
 SCF Done:  E(RB3LYP) =  -1236.27292219     A.U. after   10 cycles
 SCF Done:  E(RB3LYP) =  -1236.27292204     A.U. after    9 cycles
 SCF Done:  E(RB3LYP) =  -1236.27292224     A.U. after    9 cycles
 SCF Done:  E(RB3LYP) =  -1236.27292224     A.U. after    7 cycles
 SCF Done:  E(RB3LYP) =  -1236.27292217     A.U. after    9 cycles
 Optimization completed.
    -- Stationary point found.
 Normal termination of Gaussian 16 at Mon Jan  4 10:30:31 2021.

 --------------------------------------------------------------------
 #N Geom=AllCheck Guess=TCheck SCRF=Check GenChk RB3LYP/6-31G(d) Freq
 --------------------------------------------------------------------

 Structure from the checkpoint file:  "JID_8583.chk"
 ------------------------------
 CID_43465401_JID_8583_neutraal
 ------------------------------
 Charge =  0 Multiplicity = 1

 SCF Done:  E(RB3LYP) =  -1236.27292217     A.U. after    1 cycles

  Exact polarizability: 196.200   4.054 146.934 -14.199  11.049 119.857
 Approx polarizability: 260.950  13.463 264.149 -19.538  30.995 192.091

                      1                      2                      3
                      A                      A                      A
 Frequencies --     14.5694                26.3153                30.6494
 Red. masses --      7.4119                 2.8859                 9.4797
 Frc consts  --      0.0009                 0.0012                 0.0052
 IR Inten    --      0.3636                 0.1989                 0.9477

                      4                      5                      6
                      A                      A                      A
 Frequencies --     49.6475                51.7621                67.2375
 Red. masses --      5.4138                 4.7906                 8.6771
 Frc consts  --      0.0079                 0.0076                 0.0231
 IR Inten    --      1.4955                 0.9653                 0.8573

                      7                      8                      9
                      A                      A                      A
 Frequencies --     83.2174                95.3573               108.1135
 Red. masses --      5.9773                 6.4039                 5.6829
 Frc consts  --      0.0244                 0.0343                 0.0391
 IR Inten    --      2.5545                 0.5826                 1.2932

                     10                     11                     12
                      A                      A                      A
 Frequencies --    148.4576               173.6904               227.5924
 Red. masses --      3.5828                 3.3806                 1.3823
 Frc consts  --      0.0465                 0.0601                 0.0422
 IR Inten    --      1.9282                 1.8309                 0.4772

                     13                     14                     15
                      A                      A                      A
 Frequencies --    251.8763               263.2906               283.1822
 Red. masses --      5.1224                 3.8241                 3.4352
 Frc consts  --      0.1915                 0.1562                 0.1623
 IR Inten    --      6.6053                 1.1086                 5.4192

                     16                     17                     18
                      A                      A                      A
 Frequencies --    306.0068               321.1763               338.2703
 Red. masses --      5.0505                 3.0233                 3.7982
 Frc consts  --      0.2786                 0.1837                 0.2561
 IR Inten    --      2.0620                 0.2143                 2.7411

                     19                     20                     21
                      A                      A                      A
 Frequencies --    397.4093               434.4280               459.1558
 Red. masses --      5.1313                 4.6790                 3.4067
 Frc consts  --      0.4775                 0.5203                 0.4232
 IR Inten    --      3.5019                 7.7067                 2.5618

                     22                     23                     24
                      A                      A                      A
 Frequencies --    496.2667               510.7571               517.2097
 Red. masses --      3.5721                 3.5146                 2.1397
 Frc consts  --      0.5183                 0.5402                 0.3372
 IR Inten    --      2.7245                11.5411                20.6567

                     25                     26                     27
                      A                      A                      A
 Frequencies --    534.8316               585.9253               596.7608
 Red. masses --      2.9753                 3.8320                 3.7663
 Frc consts  --      0.5014                 0.7751                 0.7902
 IR Inten    --     43.4307                39.4614                33.1089

                     28                     29                     30
                      A                      A                      A
 Frequencies --    614.1572               633.7888               658.8987
 Red. masses --      2.2424                 1.8846                 2.8931
 Frc consts  --      0.4983                 0.4460                 0.7400
 IR Inten    --     62.8790                76.7534                30.9853

                     31                     32                     33
                      A                      A                      A
 Frequencies --    681.5254               691.8795               717.7383
 Red. masses --      2.2322                 2.1098                 2.3158
 Frc consts  --      0.6109                 0.5950                 0.7029
 IR Inten    --     53.6354                13.7473                51.8491

                     34                     35                     36
                      A                      A                      A
 Frequencies --    751.7956               756.0947               768.2880
 Red. masses --      4.6717                 5.6663                 4.8066
 Frc consts  --      1.5557                 1.9085                 1.6716
 IR Inten    --     13.3054                28.8497                53.2283

                     37                     38                     39
                      A                      A                      A
 Frequencies --    787.5581               802.3801               829.5105
 Red. masses --      3.6626                 1.2515                 1.3064
 Frc consts  --      1.3385                 0.4747                 0.5296
 IR Inten    --     18.7484                 2.1628                14.7856

                     40                     41                     42
                      A                      A                      A
 Frequencies --    847.8615               915.3908               958.1196
 Red. masses --      4.1261                 1.4120                 2.2777
 Frc consts  --      1.7476                 0.6971                 1.2319
 IR Inten    --      9.1676                 3.1460                22.3932

                     43                     44                     45
                      A                      A                      A
 Frequencies --    970.8216              1002.2932              1045.3561
 Red. masses --      2.4136                 2.3340                 2.2556
 Frc consts  --      1.3403                 1.3815                 1.4523
 IR Inten    --     46.0767                10.8433                16.4973

                     46                     47                     48
                      A                      A                      A
 Frequencies --   1077.3852              1100.0256              1114.9685
 Red. masses --      2.4590                 1.6560                 1.5736
 Frc consts  --      1.6817                 1.1806                 1.1526
 IR Inten    --      3.9000                 3.2711                11.1422

                     49                     50                     51
                      A                      A                      A
 Frequencies --   1149.7673              1179.2953              1196.1724
 Red. masses --      3.0830                 3.0111                 2.3261
 Frc consts  --      2.4013                 2.4673                 1.9610
 IR Inten    --     37.2749                47.4450               162.6000

                     52                     53                     54
                      A                      A                      A
 Frequencies --   1199.5530              1261.3213              1295.4961
 Red. masses --      3.1588                 1.4023                 1.3372
 Frc consts  --      2.6780                 1.3144                 1.3223
 IR Inten    --     10.3355                 4.3654                63.1323

                     55                     56                     57
                      A                      A                      A
 Frequencies --   1302.7627              1307.6426              1355.1047
 Red. masses --      1.3357                 1.3251                 1.8174
 Frc consts  --      1.3356                 1.3350                 1.9663
 IR Inten    --     58.8855                 5.0215               129.7216

                     58                     59                     60
                      A                      A                      A
 Frequencies --   1361.3184              1377.5624              1390.5516
 Red. masses --      1.5687                 1.8188                 2.1712
 Frc consts  --      1.7128                 2.0336                 2.4736
 IR Inten    --     53.3866                97.5696                63.1584

                     61                     62                     63
                      A                      A                      A
 Frequencies --   1393.5957              1405.5104              1425.9024
 Red. masses --      2.0844                 1.7770                 1.9925
 Frc consts  --      2.3851                 2.0683                 2.3869
 IR Inten    --      6.0030                66.6867               100.8408

                     64                     65                     66
                      A                      A                      A
 Frequencies --   1438.9999              1483.1336              1485.5197
 Red. masses --      1.2265                 1.6622                 1.1418
 Frc consts  --      1.4964                 2.1542                 1.4845
 IR Inten    --      4.1014               102.4041                 6.5886

                     67                     68                     69
                      A                      A                      A
 Frequencies --   1493.2898              1504.4476              1511.9440
 Red. masses --      1.1771                 1.5070                 1.0970
 Frc consts  --      1.5465                 2.0096                 1.4775
 IR Inten    --      2.0602                40.5554                10.1975

                     70                     71                     72
                      A                      A                      A
 Frequencies --   1518.7645              1526.5579              1536.0811
 Red. masses --      3.3461                 1.0460                 1.1691
 Frc consts  --      4.5475                 1.4362                 1.6252
 IR Inten    --     97.9165                 9.8231                24.2162

                     73                     74                     75
                      A                      A                      A
 Frequencies --   1599.5759              1751.1123              1788.4766
 Red. masses --      5.1973                 8.0411                 7.9905
 Frc consts  --      7.8350                14.5276                15.0588
 IR Inten    --      6.4184               255.5536               344.2223

                     76                     77                     78
                      A                      A                      A
 Frequencies --   1860.1181              3045.3028              3056.8004
 Red. masses --     10.1481                 1.0624                 1.0347
 Frc consts  --     20.6879                 5.8050                 5.6961
 IR Inten    --    262.2754                25.9578                26.8836

                     79                     80                     81
                      A                      A                      A
 Frequencies --   3085.7503              3087.7020              3098.9773
 Red. masses --      1.1009                 1.0603                 1.0664
 Frc consts  --      6.1763                 5.9560                 6.0341
 IR Inten    --      8.3232                15.3535                16.1914

                     82                     83                     84
                      A                      A                      A
 Frequencies --   3128.4547              3132.8913              3133.0625
 Red. masses --      1.1029                 1.1038                 1.1044
 Frc consts  --      6.3600                 6.3830                 6.3870
 IR Inten    --     40.3247                26.4482                 2.0396

                     85                     86                     87
                      A                      A                      A
 Frequencies --   3150.9609              3215.0386              3243.8529
 Red. masses --      1.0979                 1.0915                 1.0946
 Frc consts  --      6.4223                 6.6471                 6.7860
 IR Inten    --      3.0010                 9.0770                 0.6570

                     88                     89                     90
                      A                      A                      A
 Frequencies --   3582.2912              3600.0942              3683.1328
 Red. masses --      1.0757                 1.0756                 1.0641
 Frc consts  --      8.1336                 8.2134                 8.5048
 IR Inten    --     29.7235                34.1758                67.1286

 - Thermochemistry -
 -------------------
 Temperature   298.150 Kelvin.  Pressure   1.00000 Atm.
 Atom     1 has atomic number  6 and mass  12.00000

 Molecular mass:   270.06743 amu.
 Principal axes and moments of inertia in atomic units:
                           1         2         3
     Eigenvalues --  2706.648608875.726739631.28456
           X            0.99990  -0.00313  -0.01384
           Y            0.00321   0.99998   0.00536
           Z            0.01383  -0.00540   0.99989
 This molecule is an asymmetric top.
 Rotational symmetry number  1.
 Warning -- assumption of classical behavior for rotation
           may cause significant error
 Rotational temperatures (Kelvin)      0.03200     0.00976     0.00899
 Rotational constants (GHZ):           0.66678     0.20333     0.18738
 Zero-point vibrational energy     660595.1 (Joules/Mol)
                                  157.88603 (Kcal/Mol)
 Warning -- explicit consideration of  28 degrees of freedom as
           vibrations may cause significant error
 Vibrational temperatures:     20.96    37.86    44.10    71.43    74.47
          (Kelvin)             96.74   119.73   137.20   155.55   213.60
                              249.90   327.45   362.39   378.82   407.44
                              440.28   462.10   486.70   571.78   625.05
                              660.62   714.02   734.87   744.15   769.50
                              843.02   858.61   883.64   911.88   948.01
                              980.56   995.46  1032.67  1081.67  1087.85
                             1105.40  1133.12  1154.45  1193.48  1219.88
                             1317.04  1378.52  1396.80  1442.08  1504.03
                             1550.12  1582.69  1604.19  1654.26  1696.74
                             1721.03  1725.89  1814.76  1863.93  1874.38
                             1881.41  1949.69  1958.63  1982.01  2000.69
                             2005.07  2022.22  2051.56  2070.40  2133.90
                             2137.33  2148.51  2164.56  2175.35  2185.16
                             2196.38  2210.08  2301.43  2519.46  2573.22
                             2676.30  4381.51  4398.05  4439.71  4442.51
                             4458.74  4501.15  4507.53  4507.78  4533.53
                             4625.72  4667.18  5154.12  5179.73  5299.21

 Zero-point correction=                           0.251607 (Hartree/Particle)
 Thermal correction to Energy=                    0.270022
 Thermal correction to Enthalpy=                  0.270966
 Thermal correction to Gibbs Free Energy=         0.201242
 Sum of electronic and zero-point Energies=          -1236.021315
 Sum of electronic and thermal Energies=             -1236.002900
 Sum of electronic and thermal Enthalpies=           -1236.001956
 Sum of electronic and thermal Free Energies=        -1236.071681

                     E (Thermal)             CV                S
                      KCal/Mol        Cal/Mol-Kelvin    Cal/Mol-Kelvin
 Total                  169.441             66.526            146.748
 Electronic               0.000              0.000              0.000
 Translational            0.889              2.981             42.679
 Rotational               0.889              2.981             33.803
 Vibrational            167.664             60.565             70.266
 Vibration     1          0.593              1.986              7.263
 Vibration     2          0.593              1.985              6.089
 Vibration     3          0.594              1.984              5.787
 Vibration     4          0.595              1.978              4.831
 Vibration     5          0.596              1.977              4.749
 Vibration     6          0.598              1.970              4.233
 Vibration     7          0.600              1.961              3.814
 Vibration     8          0.603              1.953              3.547
 Vibration     9          0.606              1.943              3.303
 Vibration    10          0.618              1.904              2.692
 Vibration    11          0.627              1.875              2.395
 Vibration    12          0.651              1.799              1.898
 Vibration    13          0.664              1.760              1.717
 Vibration    14          0.670              1.740              1.640
 Vibration    15          0.682              1.705              1.514
 Vibration    16          0.696              1.662              1.384
 Vibration    17          0.707              1.633              1.304
 Vibration    18          0.719              1.599              1.220
 Vibration    19          0.764              1.476              0.972
 Vibration    20          0.795              1.395              0.844
 Vibration    21          0.817              1.341              0.769
 Vibration    22          0.852              1.258              0.668
 Vibration    23          0.866              1.226              0.632
 Vibration    24          0.872              1.212              0.616
 Vibration    25          0.890              1.173              0.577
 Vibration    26          0.943              1.062              0.475
 Vibration    27          0.955              1.039              0.455
 Vibration    28          0.974              1.002              0.426

 Normal termination of Gaussian 16 at Mon Jan  4 10:42:03 2021.

 ----------------------------------------------------------------------
 # B3LYP/6-311++G(d,p) empiricaldispersion=gd3bj scf=xqc pop=npa geom=c
 heck
 ----------------------------------------------------------------------

 --------------------------------------
 CID_43465401_JID_8583_Energie_neutraal
 --------------------------------------
 Structure from the checkpoint file:  "JID_8583.chk"
 Charge =  0 Multiplicity = 1

 SCF Done:  E(RB3LYP) =  -1236.55655691     A.U. after   16 cycles
 Normal termination of Gaussian 16 at Mon Jan  4 10:47:07 2021.

 ----------------------------------------------------------------------
 # B3LYP/6-311++G(d,p) empiricaldispersion=gd3bj scf=xqc pop=npa geom=c
 heck
 ----------------------------------------------------------------------

 ------------------------------------
 CID_43465401_JID_8583_Energie_kation
 ------------------------------------
 Structure from the checkpoint file:  "JID_8583.chk"
 Charge =  1 Multiplicity = 2

 SCF Done:  E(UB3LYP) =  -1236.24242846     A.U. after   33 cycles
 SCF Done:  E(UB3LYP) =  -1236.24278084     a.u. after    8 cycles
 Normal termination of Gaussian 16 at Mon Jan  4 12:43:51 2021.
 Gaussian 16:  ES64L-G16RevA.03 25-Dec-2016

 ----------------------------------------------------------------------
 # B3LYP/6-311++G(d,p) empiricaldispersion=gd3bj scf=xqc pop=npa geom=c
 heck
 ----------------------------------------------------------------------

 -----------------------------------
 CID_43465401_JID_8583_Energie_anion
 -----------------------------------
 Structure from the checkpoint file:  "JID_8583.chk"
 Charge = -1 Multiplicity = 2

                         Standard orientation:
 ---------------------------------------------------------------------
 Center     Atomic      Atomic             Coordinates (Angstroms)
 Number     Number       Type             X           Y           Z
 ---------------------------------------------------------------------
      1          6           0       -5.361896   -0.508857    1.253580
      2          6           0       -4.799344    0.648679    0.412309
      3          6           0       -3.321076    0.545720    0.171214
      4          6           0       -2.331690    1.373621    0.646103
      5          6           0       -1.026793    0.985266    0.239586
      6          6           0       -1.024581   -0.145543   -0.550471
      7         16           0       -2.648303   -0.752128   -0.772584
      8          6           0        0.057654   -0.960420   -1.139344
      9          8           0       -0.141654   -2.121730   -1.485766
     10          7           0        1.318938   -0.406555   -1.247690
     11          6           0        1.660250    0.994962   -1.405780
     12          6           0        2.390923    1.736328   -0.280451
     13          8           0        2.857206    2.837578   -0.534780
     14          7           0        2.453638    1.237314    0.999835
     15          6           0        2.228114   -0.100389    1.510295
     16          6           0        3.179728   -1.193169    1.039806
     17          8           0        3.168977   -2.315266    1.486156
     18          8           0        4.038068   -0.784741    0.074126
     19          1           0       -5.214550   -1.469988    0.749974
     20          1           0       -6.435524   -0.375361    1.423404
     21          1           0       -4.861143   -0.560364    2.225774
     22          1           0       -5.331362    0.693392   -0.546863
     23          1           0       -4.990306    1.602077    0.918445
     24          1           0       -2.535995    2.238564    1.268455
     25          1           0       -0.133096    1.511968    0.550526
     26          1           0        1.968372   -1.068730   -1.653426
     27          1           0        2.304166    1.114394   -2.281524
     28          1           0        0.754027    1.571412   -1.612137
     29          1           0        3.022494    1.843205    1.579894
     30          1           0        2.318574   -0.059595    2.599927
     31          1           0        1.214195   -0.447083    1.304251
     32          1           0        4.596457   -1.559074   -0.129337
 ---------------------------------------------------------------------

 SCF Done:  E(UB3LYP) =  -1236.56833891     A.U. after   32 cycles

 The electronic state is 2-A.
 Alpha  occ. eigenvalues --  -88.73210 -19.08834 -19.02870 -18.99598 -18.94724
 Alpha  occ. eigenvalues --  -14.25051 -14.21438 -10.21986 -10.18152 -10.13355
 Alpha  occ. eigenvalues --  -10.13337 -10.11551 -10.07553 -10.06560 -10.06426
 Alpha  occ. eigenvalues --  -10.06025 -10.04615 -10.04204  -7.81866  -5.78161
 Alpha  occ. eigenvalues --   -5.77796  -5.77474  -1.02736  -0.95022  -0.93794
 Alpha  occ. eigenvalues --   -0.90477  -0.83673  -0.80289  -0.75086  -0.67627
 Alpha  occ. eigenvalues --   -0.65867  -0.62540  -0.60546  -0.59907  -0.54235
 Alpha  occ. eigenvalues --   -0.53420  -0.49669  -0.48494  -0.44159  -0.43467
 Alpha  occ. eigenvalues --   -0.41449  -0.41011  -0.40454  -0.38207  -0.37744
 Alpha  occ. eigenvalues --   -0.37596  -0.35386  -0.35211  -0.33700  -0.32648
 Alpha  occ. eigenvalues --   -0.32018  -0.31788  -0.31266  -0.30924  -0.28681
 Alpha  occ. eigenvalues --   -0.27690  -0.27352  -0.26950  -0.26777  -0.24414
 Alpha  occ. eigenvalues --   -0.24177  -0.23605  -0.23074  -0.21320  -0.20782
 Alpha  occ. eigenvalues --   -0.17853  -0.16604  -0.14285  -0.13085  -0.12366
 Alpha  occ. eigenvalues --   -0.10972   0.03534
 Alpha virt. eigenvalues --    0.05626   0.06737   0.07105   0.08162   0.09039
 Alpha virt. eigenvalues --    0.09439   0.09774   0.09944   0.10339   0.10999
 Alpha virt. eigenvalues --    0.12270   0.12359   0.12873   0.13393   0.14369

  Beta  occ. eigenvalues --  -88.73160 -19.08793 -19.02854 -18.99579 -18.94493
  Beta  occ. eigenvalues --  -14.25046 -14.21411 -10.21955 -10.18142 -10.13324
  Beta  occ. eigenvalues --  -10.13169 -10.11548 -10.07578 -10.06527 -10.06081
  Beta  occ. eigenvalues --  -10.05896 -10.04713 -10.03991  -7.81822  -5.78140
  Beta  occ. eigenvalues --   -5.77776  -5.77308  -1.02666  -0.94991  -0.93744
  Beta  occ. eigenvalues --   -0.90080  -0.83642  -0.80133  -0.74762  -0.67439
  Beta  occ. eigenvalues --   -0.65804  -0.62437  -0.60314  -0.59505  -0.54152
  Beta  occ. eigenvalues --   -0.53196  -0.49604  -0.48211  -0.44093  -0.43299
  Beta  occ. eigenvalues --   -0.41370  -0.40776  -0.40361  -0.38074  -0.37595
  Beta  occ. eigenvalues --   -0.37532  -0.35297  -0.35115  -0.33622  -0.32532
  Beta  occ. eigenvalues --   -0.31918  -0.31677  -0.31067  -0.30746  -0.28311
  Beta  occ. eigenvalues --   -0.27295  -0.26927  -0.26758  -0.26669  -0.24256
  Beta  occ. eigenvalues --   -0.24079  -0.23467  -0.22397  -0.21249  -0.20539
  Beta  occ. eigenvalues --   -0.17678  -0.16548  -0.13826  -0.12597  -0.11611
  Beta  occ. eigenvalues --   -0.09560
  Beta virt. eigenvalues --    0.06046   0.06746   0.07239   0.08288   0.08907
  Beta virt. eigenvalues --    0.08960   0.09468   0.09861   0.09995   0.10368
  Beta virt. eigenvalues --    0.10971   0.12201   0.12326   0.12842   0.13330

 Mulliken charges and spin densities:
               1          2
     1  C   -0.456627  -0.117357
     2  C   -0.526354   0.164815
     3  C    0.643697  -0.000762
     4  C   -0.048785  -0.128168
     5  C    0.145425   0.180347
     6  C    0.304960   0.138757
     7  S   -0.756962   0.127153
     8  C   -0.316779   0.053434
     9  O   -0.373152   0.085005
    10  N   -0.189569   0.006259
    11  C   -0.165407  -0.143847
    12  C   -0.167477   0.039837
    13  O   -0.312613   0.010120
    14  N   -0.207567  -0.050781
    15  C   -0.133129  -0.174572
    16  C    0.062601  -0.128198
    17  O   -0.239751   0.010893
    18  O   -0.140949  -0.014732
    19  H    0.142958  -0.006534
    20  H    0.016876   0.089522
    21  H    0.140199   0.000946
    22  H    0.063540   0.088823
    23  H    0.109729   0.028672
    24  H    0.120379   0.007699
    25  H    0.121453  -0.007627
    26  H    0.322045  -0.013043
    27  H    0.185545   0.021353
    28  H    0.262448  -0.009863
    29  H    0.212505   0.115109
    30  H   -0.153032   0.366781
    31  H    0.299650  -0.002896
    32  H    0.034142   0.262856
 Sum of Mulliken charges =  -1.00000   1.00000

 Dipole moment (field-independent basis, Debye):
    X=              0.4986    Y=              2.3777    Z=              1.2524  Tot=              2.7332
 Quadrupole moment (field-independent basis, Debye-Ang):
   XX=           -163.1870   YY=           -154.8365   ZZ=           -129.5549
   XY=             -6.9309   XZ=             -5.2969   YZ=              2.6431

 Summary of Natural Population Analysis:

                                       Natural Population
                Natural  -----------------------------------------------
    Atom  No    Charge         Core      Valence    Rydberg      Total
 -----------------------------------------------------------------------
      C    1   -0.27776      0.99966     2.27305    0.00504     3.27776
      C    2   -0.20580      0.99959     2.19715    0.00906     3.20580
      C    3   -0.03470      0.99950     2.02202    0.01318     3.03470
      C    4   -0.16274      0.99947     2.15273    0.01053     3.16274
      C    5   -0.08313      0.99950     2.07388    0.00975     3.08313
      C    6   -0.13524      0.99946     2.12361    0.01217     3.13524
      S    7    0.23240      4.99939     2.74760    0.02062     7.76760
      C    8    0.34444      0.99957     1.63383    0.02216     2.65556
      O    9   -0.30439      0.99988     3.29954    0.00497     4.30439
      N   10   -0.33162      0.99967     2.82178    0.01018     3.83162
      C   11   -0.13362      0.99957     2.12338    0.01067     3.13362
      C   12    0.34534      0.99967     1.63085    0.02414     2.65466
      O   13   -0.32418      0.99988     3.31840    0.00590     4.32418
      N   14   -0.32025      0.99967     2.81004    0.01054     3.82025
      C   15   -0.14221      0.99955     2.13086    0.01180     3.14221
      C   16    0.40624      0.99973     1.56862    0.02541     2.59376
      O   17   -0.30242      0.99987     3.29646    0.00610     4.30242
      O   18   -0.34605      0.99987     3.33963    0.00654     4.34605
      H   19    0.09945      0.00000     0.39952    0.00103     0.40055
      H   20    0.08973      0.00000     0.40855    0.00172     0.41027
      H   21    0.09727      0.00000     0.40182    0.00091     0.40273
      H   22    0.10048      0.00000     0.39779    0.00173     0.39952
      H   23    0.09769      0.00000     0.40101    0.00130     0.40231
      H   24    0.09794      0.00000     0.40114    0.00092     0.40206
      H   25    0.10038      0.00000     0.39791    0.00171     0.39962
      H   26    0.19016      0.00000     0.30698    0.00286     0.30984
      H   27    0.10654      0.00000     0.39243    0.00103     0.39346
      H   28    0.12036      0.00000     0.37854    0.00110     0.37964
      H   29    0.19282      0.00000     0.30455    0.00263     0.30718
      H   30    0.11269      0.00000     0.38607    0.00123     0.38731
      H   31    0.12879      0.00000     0.36957    0.00164     0.37121
      H   32    0.24139      0.00000     0.25344    0.00517     0.25861
 =======================================================================
   * Total *   -0.00000     21.99351    48.76273    0.24376    71.00000

 Normal termination of Gaussian 16 at Mon Jan  4 13:31:38 2021.
