 Gaussian 16, Revision A.03,

 -----------------------------------------------------------
 # opt freq B3LYP/6-31G(d) empiricaldispersion=gd3bj scf=xqc
 -----------------------------------------------------------

 ------------------------------
 CID_55044652_JID_9866_neutraal
 ------------------------------
 Symbolic Z-matrix:
 Charge =  0 Multiplicity = 1

 SCF Done:  E(RB3LYP) =  -1539.12627870     A.U. after   15 cycles
 SCF Done:  E(RB3LYP) =  -1539.13790829     A.U. after   13 cycles
 SCF Done:  E(RB3LYP) =  -1539.13842483     A.U. after   15 cycles
 SCF Done:  E(RB3LYP) =  -1539.14122573     A.U. after   13 cycles
 SCF Done:  E(RB3LYP) =  -1539.14191222     A.U. after   12 cycles
 SCF Done:  E(RB3LYP) =  -1539.14222768     A.U. after   12 cycles
 SCF Done:  E(RB3LYP) =  -1539.14235427     A.U. after   11 cycles
 SCF Done:  E(RB3LYP) =  -1539.14241884     A.U. after   11 cycles
 SCF Done:  E(RB3LYP) =  -1539.14244094     A.U. after   10 cycles
 SCF Done:  E(RB3LYP) =  -1539.14244984     A.U. after   10 cycles
 SCF Done:  E(RB3LYP) =  -1539.14251372     A.U. after   11 cycles
 SCF Done:  E(RB3LYP) =  -1539.14253468     A.U. after   10 cycles
 SCF Done:  E(RB3LYP) =  -1539.14255850     A.U. after   11 cycles
 SCF Done:  E(RB3LYP) =  -1539.14256206     A.U. after   10 cycles
 SCF Done:  E(RB3LYP) =  -1539.14256233     A.U. after    8 cycles
 SCF Done:  E(RB3LYP) =  -1539.14256242     A.U. after    8 cycles
 Optimization completed.
    -- Stationary point found.
 Normal termination of Gaussian 16 at Sun Dec 13 16:22:06 2020.

 --------------------------------------------------------------------
 #N Geom=AllCheck Guess=TCheck SCRF=Check GenChk RB3LYP/6-31G(d) Freq
 --------------------------------------------------------------------

 Structure from the checkpoint file:  "JID_9866.chk"
 ------------------------------
 CID_55044652_JID_9866_neutraal
 ------------------------------
 Charge =  0 Multiplicity = 1

 SCF Done:  E(RB3LYP) =  -1539.14256242     A.U. after    1 cycles

  Exact polarizability: 259.264  10.452 215.477  -2.386  10.625 108.988
 Approx polarizability: 384.267  25.740 368.964  -7.383  30.851 189.670

                      1                      2                      3
                      A                      A                      A
 Frequencies --     24.7951                31.0414                42.6157
 Red. masses --      3.1557                 5.3266                 5.2606
 Frc consts  --      0.0011                 0.0030                 0.0056
 IR Inten    --      0.1280                 1.7059                 1.5384

                      4                      5                      6
                      A                      A                      A
 Frequencies --     58.3629                78.7579                89.3018
 Red. masses --      2.8367                 2.9010                 4.6192
 Frc consts  --      0.0057                 0.0106                 0.0217
 IR Inten    --      2.4178                 1.8486                 4.0704

                      7                      8                      9
                      A                      A                      A
 Frequencies --    109.7218               124.4873               168.9735
 Red. masses --      4.1904                 4.5313                 4.5788
 Frc consts  --      0.0297                 0.0414                 0.0770
 IR Inten    --      1.0175                 1.6984                 0.2912

                     10                     11                     12
                      A                      A                      A
 Frequencies --    176.1056               204.9838               232.1477
 Red. masses --      6.3757                 5.6482                 8.2143
 Frc consts  --      0.1165                 0.1398                 0.2608
 IR Inten    --      1.5385                 6.2716                 0.1681

                     13                     14                     15
                      A                      A                      A
 Frequencies --    263.9321               287.0765               312.9780
 Red. masses --      1.2751                 5.0179                 5.6404
 Frc consts  --      0.0523                 0.2436                 0.3255
 IR Inten    --      1.2606                 3.9978                 2.7896

                     16                     17                     18
                      A                      A                      A
 Frequencies --    320.2507               334.7208               360.8318
 Red. masses --      6.7894                 3.5513                 1.1172
 Frc consts  --      0.4103                 0.2344                 0.0857
 IR Inten    --      1.0700                 0.4344                63.5828

                     19                     20                     21
                      A                      A                      A
 Frequencies --    371.7142               408.4208               452.5101
 Red. masses --      5.4229                 9.2931                 7.2742
 Frc consts  --      0.4415                 0.9133                 0.8776
 IR Inten    --      1.1596                 7.7488                 3.7066

                     22                     23                     24
                      A                      A                      A
 Frequencies --    481.8311               508.2127               559.1094
 Red. masses --      1.1525                 5.8352                 4.4479
 Frc consts  --      0.1576                 0.8880                 0.8192
 IR Inten    --     69.1069                 2.7408                 7.8688

                     25                     26                     27
                      A                      A                      A
 Frequencies --    563.2161               582.8216               608.8428
 Red. masses --      5.9651                 5.0865                 4.4718
 Frc consts  --      1.1149                 1.0180                 0.9767
 IR Inten    --     11.6483                 3.9356                 0.7959

                     28                     29                     30
                      A                      A                      A
 Frequencies --    634.1850               650.7484               667.1300
 Red. masses --      8.1756                 4.9471                 6.0421
 Frc consts  --      1.9373                 1.2343                 1.5844
 IR Inten    --      6.8835                 7.6931                 5.9879

                     31                     32                     33
                      A                      A                      A
 Frequencies --    710.8594               719.5572               748.7276
 Red. masses --      1.2092                 5.4998                 6.4653
 Frc consts  --      0.3600                 1.6777                 2.1354
 IR Inten    --     45.8004                 8.8411                 0.9487

                     34                     35                     36
                      A                      A                      A
 Frequencies --    772.7880               780.4532               791.1697
 Red. masses --      3.8279                 1.7390                 8.8117
 Frc consts  --      1.3469                 0.6241                 3.2497
 IR Inten    --     14.1738                12.6122                 5.5675

                     37                     38                     39
                      A                      A                      A
 Frequencies --    815.3475               828.3358               848.3546
 Red. masses --      1.1444                 6.4890                 1.4080
 Frc consts  --      0.4482                 2.6232                 0.5970
 IR Inten    --      0.7228                29.2308                14.7747

                     40                     41                     42
                      A                      A                      A
 Frequencies --    860.6041               892.6851               912.3336
 Red. masses --      3.5453                 4.4512                 1.5600
 Frc consts  --      1.5471                 2.0899                 0.7650
 IR Inten    --     13.0531                 7.2870                11.7866

                     43                     44                     45
                      A                      A                      A
 Frequencies --    917.2618               944.8393              1040.1175
 Red. masses --      2.4377                 2.6395                 4.6788
 Frc consts  --      1.2084                 1.3883                 2.9823
 IR Inten    --     12.1212                18.2696                30.9539

                     46                     47                     48
                      A                      A                      A
 Frequencies --   1045.8697              1073.0936              1099.9683
 Red. masses --      1.9344                 1.7035                 3.1302
 Frc consts  --      1.2467                 1.1558                 2.2315
 IR Inten    --      0.8133                 2.4818                55.6864

                     49                     50                     51
                      A                      A                      A
 Frequencies --   1111.4146              1123.2961              1158.6248
 Red. masses --      1.8724                 1.8890                 2.9349
 Frc consts  --      1.3627                 1.4043                 2.3213
 IR Inten    --     51.1023                35.3289                28.0729

                     52                     53                     54
                      A                      A                      A
 Frequencies --   1178.7285              1186.3304              1211.3832
 Red. masses --      1.6558                 3.4041                 1.6139
 Frc consts  --      1.3554                 2.8227                 1.3954
 IR Inten    --      4.6874                34.7240                 8.1128

                     55                     56                     57
                      A                      A                      A
 Frequencies --   1250.1729              1268.1791              1283.6420
 Red. masses --      1.0705                 1.4361                 3.2110
 Frc consts  --      0.9858                 1.3608                 3.1173
 IR Inten    --      0.9884                16.5198                31.9641

                     58                     59                     60
                      A                      A                      A
 Frequencies --   1303.6243              1321.6215              1345.8586
 Red. masses --      1.1818                 1.5226                 6.0545
 Frc consts  --      1.1833                 1.5670                 6.4614
 IR Inten    --      6.2820                10.3207                57.7063

                     61                     62                     63
                      A                      A                      A
 Frequencies --   1369.7562              1382.2193              1390.1175
 Red. masses --      4.5771                 1.5493                 2.3343
 Frc consts  --      5.0598                 1.7440                 2.6577
 IR Inten    --     75.4609                59.2186                 5.1374

                     64                     65                     66
                      A                      A                      A
 Frequencies --   1436.4328              1445.1331              1470.1933
 Red. masses --      3.9414                 1.3052                 1.9677
 Frc consts  --      4.7915                 1.6060                 2.5059
 IR Inten    --    168.0128                14.4355                25.5163

                     67                     68                     69
                      A                      A                      A
 Frequencies --   1484.2139              1499.0060              1524.3892
 Red. masses --      4.6170                 1.8393                 1.0469
 Frc consts  --      5.9925                 2.4351                 1.4333
 IR Inten    --     31.6893               122.2728                 8.9049

                     70                     71                     72
                      A                      A                      A
 Frequencies --   1529.1978              1532.8751              1539.3364
 Red. masses --      1.0489                 1.3692                 4.3538
 Frc consts  --      1.4452                 1.8955                 6.0783
 IR Inten    --     19.1320                59.4086                 1.0614

                     73                     74                     75
                      A                      A                      A
 Frequencies --   1545.9191              1551.1268              1595.9480
 Red. masses --      3.3881                 1.1066                 6.0257
 Frc consts  --      4.7706                 1.5686                 9.0426
 IR Inten    --     61.4691                17.6854               188.1286

                     76                     77                     78
                      A                      A                      A
 Frequencies --   1611.7177              1637.0730              3005.2584
 Red. masses --      7.3105                 3.4019                 1.0595
 Frc consts  --     11.1886                 5.3716                 5.6379
 IR Inten    --     94.4218               513.7059                39.1399

                     79                     80                     81
                      A                      A                      A
 Frequencies --   3024.8016              3039.3807              3051.7154
 Red. masses --      1.1025                 1.0714                 1.0379
 Frc consts  --      5.9433                 5.8313                 5.6948
 IR Inten    --     39.0595                37.3369                18.1467

                     82                     83                     84
                      A                      A                      A
 Frequencies --   3099.9377              3122.1471              3136.9473
 Red. masses --      1.0936                 1.1011                 1.1013
 Frc consts  --      6.1916                 6.3240                 6.3854
 IR Inten    --      1.5267                38.3085                29.4564

                     85                     86                     87
                      A                      A                      A
 Frequencies --   3220.8789              3234.2445              3269.2088
 Red. masses --      1.0887                 1.0955                 1.0935
 Frc consts  --      6.6544                 6.7513                 6.8861
 IR Inten    --      7.7557                 2.4943                 3.9966

                     88                     89                     90
                      A                      A                      A
 Frequencies --   3272.4827              3608.8635              3624.1319
 Red. masses --      1.0971                 1.0776                 1.0649
 Frc consts  --      6.9225                 8.2691                 8.2404
 IR Inten    --      0.5094               129.4775               116.4911

 - Thermochemistry -
 -------------------
 Temperature   298.150 Kelvin.  Pressure   1.00000 Atm.
 Atom     1 has atomic number  6 and mass  12.00000

 Molecular mass:   291.05001 amu.
 Principal axes and moments of inertia in atomic units:
                           1         2         3
     Eigenvalues --  3804.565197979.99248**********
           X            0.99996   0.00788   0.00405
           Y           -0.00787   0.99997  -0.00171
           Z           -0.00406   0.00168   0.99999
 This molecule is an asymmetric top.
 Rotational symmetry number  1.
 Warning -- assumption of classical behavior for rotation
           may cause significant error
 Rotational temperatures (Kelvin)      0.02277     0.01085     0.00765
 Rotational constants (GHZ):           0.47436     0.22616     0.15931
 Zero-point vibrational energy     643050.9 (Joules/Mol)
                                  153.69286 (Kcal/Mol)
 Warning -- explicit consideration of  27 degrees of freedom as
           vibrations may cause significant error
 Vibrational temperatures:     35.67    44.66    61.31    83.97   113.32
          (Kelvin)            128.49   157.87   179.11   243.12   253.38
                              294.93   334.01   379.74   413.04   450.31
                              460.77   481.59   519.16   534.81   587.63
                              651.06   693.25   731.20   804.43   810.34
                              838.55   875.99   912.45   936.28   959.85
                             1022.77  1035.28  1077.25  1111.87  1122.90
                             1138.32  1173.10  1191.79  1220.59  1238.22
                             1284.37  1312.64  1319.74  1359.41  1496.50
                             1504.77  1543.94  1582.61  1599.08  1616.17
                             1667.00  1695.93  1706.86  1742.91  1798.72
                             1824.63  1846.87  1875.62  1901.52  1936.39
                             1970.77  1988.71  2000.07  2066.71  2079.22
                             2115.28  2135.45  2156.74  2193.26  2200.17
                             2205.47  2214.76  2224.23  2231.73  2296.21
                             2318.90  2355.38  4323.90  4352.01  4372.99
                             4390.74  4460.12  4492.07  4513.37  4634.13
                             4653.36  4703.66  4708.37  5192.35  5214.32

 Zero-point correction=                           0.244925 (Hartree/Particle)
 Thermal correction to Energy=                    0.262707
 Thermal correction to Enthalpy=                  0.263651
 Thermal correction to Gibbs Free Energy=         0.196932
 Sum of electronic and zero-point Energies=          -1538.897637
 Sum of electronic and thermal Energies=             -1538.879855
 Sum of electronic and thermal Enthalpies=           -1538.878911
 Sum of electronic and thermal Free Energies=        -1538.945630

                     E (Thermal)             CV                S
                      KCal/Mol        Cal/Mol-Kelvin    Cal/Mol-Kelvin
 Total                  164.851             66.398            140.423
 Electronic               0.000              0.000              0.000
 Translational            0.889              2.981             42.902
 Rotational               0.889              2.981             34.197
 Vibrational            163.074             60.436             63.324
 Vibration     1          0.593              1.985              6.208
 Vibration     2          0.594              1.983              5.762
 Vibration     3          0.595              1.980              5.134
 Vibration     4          0.596              1.974              4.512
 Vibration     5          0.600              1.963              3.922
 Vibration     6          0.602              1.957              3.675
 Vibration     7          0.606              1.941              3.274
 Vibration     8          0.610              1.929              3.029
 Vibration     9          0.625              1.881              2.447
 Vibration    10          0.628              1.872              2.369
 Vibration    11          0.640              1.833              2.088
 Vibration    12          0.653              1.792              1.862
 Vibration    13          0.670              1.739              1.636
 Vibration    14          0.684              1.698              1.491
 Vibration    15          0.701              1.649              1.347
 Vibration    16          0.706              1.635              1.309
 Vibration    17          0.716              1.606              1.237
 Vibration    18          0.735              1.553              1.119
 Vibration    19          0.743              1.530              1.073
 Vibration    20          0.773              1.452              0.932
 Vibration    21          0.811              1.355              0.788
 Vibration    22          0.838              1.290              0.705
 Vibration    23          0.863              1.232              0.638
 Vibration    24          0.915              1.120              0.526
 Vibration    25          0.919              1.111              0.517
 Vibration    26          0.940              1.068              0.480
 Vibration    27          0.968              1.013              0.435

                           ! Non-Optimized Parameters !
 Normal termination of Gaussian 16 at Sun Dec 13 16:39:00 2020.

 ----------------------------------------------------------------------
 # B3LYP/6-311++G(d,p) empiricaldispersion=gd3bj scf=xqc pop=npa geom=c
 heck
 ----------------------------------------------------------------------

 --------------------------------------
 CID_55044652_JID_9866_Energie_neutraal
 --------------------------------------
 Structure from the checkpoint file:  "JID_9866.chk"
 Charge =  0 Multiplicity = 1

 SCF Done:  E(RB3LYP) =  -1539.40076320     A.U. after   17 cycles
 Normal termination of Gaussian 16 at Sun Dec 13 16:47:23 2020.

 ----------------------------------------------------------------------
 # B3LYP/6-311++G(d,p) empiricaldispersion=gd3bj scf=xqc pop=npa geom=c
 heck
 ----------------------------------------------------------------------

 ------------------------------------
 CID_55044652_JID_9866_Energie_kation
 ------------------------------------
 Structure from the checkpoint file:  "JID_9866.chk"
 Charge =  1 Multiplicity = 2

 SCF Done:  E(UB3LYP) =  -1539.11898250     A.U. after   27 cycles
 Normal termination of Gaussian 16 at Sun Dec 13 17:06:42 2020.
 Gaussian 16:  ES64L-G16RevA.03 25-Dec-2016

 ----------------------------------------------------------------------
 # B3LYP/6-311++G(d,p) empiricaldispersion=gd3bj scf=xqc pop=npa geom=c
 heck
 ----------------------------------------------------------------------

 -----------------------------------
 CID_55044652_JID_9866_Energie_anion
 -----------------------------------
 Structure from the checkpoint file:  "JID_9866.chk"
 Charge = -1 Multiplicity = 2

                         Standard orientation:
 ---------------------------------------------------------------------
 Center     Atomic      Atomic             Coordinates (Angstroms)
 Number     Number       Type             X           Y           Z
 ---------------------------------------------------------------------
      1          6           0        1.252068    4.111907   -0.120859
      2          6           0       -0.035671    3.314471   -0.296275
      3          7           0        0.231784    1.895995   -0.097204
      4          6           0       -0.739554    0.959340   -0.022069
      5          6           0       -0.446234   -0.438880    0.087214
      6          6           0        0.791573   -1.191568    0.142399
      7          6           0        0.557589   -2.541044    0.130038
      8         16           0       -1.131754   -2.968471    0.080679
      9          6           0       -1.576023   -1.271111    0.067157
     10          7           0       -2.848508   -0.855134    0.018900
     11          6           0       -2.989293    0.468985   -0.023132
     12          7           0       -2.012352    1.383912   -0.059621
     13          6           0       -4.414350    0.979781   -0.055167
     14          8           0       -5.363425   -0.055642   -0.000617
     15          6           0        2.144117   -0.628633    0.222396
     16          6           0        2.650909    0.294685    1.110529
     17          6           0        4.035264    0.574486    0.907804
     18          6           0        4.574592   -0.139752   -0.127253
     19         16           0        3.393717   -1.160156   -0.882655
     20          1           0        1.662261    3.979381    0.886353
     21          1           0        1.061831    5.178106   -0.275500
     22          1           0        2.015030    3.799815   -0.844373
     23          1           0       -0.795447    3.628707    0.425176
     24          1           0       -0.464887    3.482479   -1.293444
     25          1           0        1.187254    1.575831   -0.170128
     26          1           0        1.306506   -3.319021    0.187478
     27          1           0       -4.547857    1.672186    0.790196
     28          1           0       -4.539383    1.579049   -0.970974
     29          1           0       -4.843225   -0.882158    0.008826
     30          1           0        2.050635    0.734687    1.898993
     31          1           0        4.604407    1.269401    1.515014
     32          1           0        5.592474   -0.124700   -0.492268
 ---------------------------------------------------------------------

 SCF Done:  E(UB3LYP) =  -1539.40966219     A.U. after   32 cycles

 The electronic state is 2-A.
 Alpha  occ. eigenvalues --  -88.74252 -88.74102 -19.00304 -14.21915 -14.18818
 Alpha  occ. eigenvalues --  -14.18235 -10.13244 -10.11260 -10.11148 -10.10859
 Alpha  occ. eigenvalues --  -10.10575 -10.08108 -10.07174 -10.06614 -10.06202
 Alpha  occ. eigenvalues --  -10.05679 -10.05353 -10.04694 -10.04418  -7.82903
 Alpha  occ. eigenvalues --   -7.82763  -5.79192  -5.79060  -5.78832  -5.78716
 Alpha  occ. eigenvalues --   -5.78524  -5.78342  -0.91413  -0.87378  -0.83051
 Alpha  occ. eigenvalues --   -0.76630  -0.75449  -0.73268  -0.67181  -0.63870
 Alpha  occ. eigenvalues --   -0.63091  -0.60983  -0.59181  -0.56517  -0.54291
 Alpha  occ. eigenvalues --   -0.51296  -0.49049  -0.46364  -0.44048  -0.43121
 Alpha  occ. eigenvalues --   -0.41283  -0.40170  -0.38401  -0.37639  -0.36638
 Alpha  occ. eigenvalues --   -0.35346  -0.35226  -0.32597  -0.31236  -0.31125
 Alpha  occ. eigenvalues --   -0.30346  -0.29050  -0.28439  -0.28081  -0.27706
 Alpha  occ. eigenvalues --   -0.27024  -0.26473  -0.25422  -0.23710  -0.23229
 Alpha  occ. eigenvalues --   -0.22519  -0.22001  -0.21732  -0.19064  -0.16992
 Alpha  occ. eigenvalues --   -0.14704  -0.14223  -0.13931  -0.13435  -0.11303
 Alpha  occ. eigenvalues --   -0.08876   0.04274
 Alpha virt. eigenvalues --    0.06640   0.08022   0.08615   0.09028   0.09343
 Alpha virt. eigenvalues --    0.10033   0.10124   0.10426   0.10783   0.11080
 Alpha virt. eigenvalues --    0.11727   0.12038   0.12710   0.13370   0.13593

  Beta  occ. eigenvalues --  -88.74201 -88.74063 -19.00306 -14.21907 -14.18789
  Beta  occ. eigenvalues --  -14.18300 -10.13098 -10.11261 -10.10967 -10.10858
  Beta  occ. eigenvalues --  -10.10590 -10.08103 -10.06977 -10.06398 -10.06198
  Beta  occ. eigenvalues --  -10.05728 -10.05324 -10.04333 -10.04175  -7.82858
  Beta  occ. eigenvalues --   -7.82729  -5.79159  -5.79045  -5.78808  -5.78705
  Beta  occ. eigenvalues --   -5.78369  -5.78206  -0.91401  -0.87266  -0.82958
  Beta  occ. eigenvalues --   -0.76467  -0.75257  -0.73032  -0.67076  -0.63551
  Beta  occ. eigenvalues --   -0.62864  -0.60760  -0.59005  -0.56216  -0.54214
  Beta  occ. eigenvalues --   -0.51136  -0.48919  -0.45774  -0.43831  -0.42963
  Beta  occ. eigenvalues --   -0.41139  -0.39959  -0.38310  -0.37584  -0.36552
  Beta  occ. eigenvalues --   -0.35229  -0.35096  -0.32491  -0.31027  -0.30874
  Beta  occ. eigenvalues --   -0.30246  -0.28952  -0.28334  -0.27891  -0.27544
  Beta  occ. eigenvalues --   -0.26809  -0.26336  -0.24918  -0.23259  -0.23134
  Beta  occ. eigenvalues --   -0.22233  -0.21710  -0.21141  -0.19006  -0.16750
  Beta  occ. eigenvalues --   -0.14277  -0.14190  -0.13207  -0.12821  -0.10655
  Beta  occ. eigenvalues --   -0.07434
  Beta virt. eigenvalues --    0.06586   0.07925   0.08879   0.09251   0.09366
  Beta virt. eigenvalues --    0.09802   0.10044   0.10294   0.10644   0.10797
  Beta virt. eigenvalues --    0.11132   0.11786   0.12172   0.12680   0.13339

 Mulliken charges and spin densities:
               1          2
     1  C   -0.581253  -0.053724
     2  C   -0.023398   0.007408
     3  N   -0.076518   0.016545
     4  C   -0.191625   0.080527
     5  C    0.017876  -0.019587
     6  C    0.179161  -0.012732
     7  C   -0.258602   0.421987
     8  S   -0.426850   0.044718
     9  C    0.018270   0.006290
    10  N    0.011149   0.007547
    11  C   -0.212129   0.101329
    12  N   -0.176630  -0.036932
    13  C   -0.199037  -0.001147
    14  O   -0.318358  -0.000119
    15  C   -0.333576   0.065718
    16  C    0.166323   0.070511
    17  C   -0.608395   0.003421
    18  C   -0.118405   0.089728
    19  S   -0.234665   0.138481
    20  H    0.118899   0.017729
    21  H    0.111354   0.019164
    22  H    0.139955   0.004196
    23  H    0.171640  -0.001411
    24  H    0.142411   0.020943
    25  H    0.391241  -0.002496
    26  H    0.200796  -0.002326
    27  H    0.159976   0.005873
    28  H    0.155070   0.011818
    29  H    0.294807   0.000132
    30  H    0.187345  -0.008099
    31  H    0.108976   0.002951
    32  H    0.184189   0.001557
 Sum of Mulliken charges =  -1.00000   1.00000

 Dipole moment (field-independent basis, Debye):
    X=              3.0326    Y=              4.0548    Z=             -0.0615  Tot=              5.0638
 Quadrupole moment (field-independent basis, Debye-Ang):
   XX=           -195.2260   YY=           -144.9905   ZZ=           -136.2855
   XY=              2.7913   XZ=             -0.5489   YZ=              1.1524

 Summary of Natural Population Analysis:

                                       Natural Population
                Natural  -----------------------------------------------
    Atom  No    Charge         Core      Valence    Rydberg      Total
 -----------------------------------------------------------------------
      C    1   -0.29001      0.99967     2.28640    0.00394     3.29001
      C    2   -0.08469      0.99965     2.07629    0.00875     3.08469
      N    3   -0.31014      0.99966     2.79946    0.01103     3.81014
      C    4    0.25765      0.99945     1.72965    0.01325     2.74235
      C    5   -0.08381      0.99935     2.07458    0.00988     3.08381
      C    6   -0.06916      0.99937     2.05610    0.01368     3.06916
      C    7   -0.06672      0.99948     2.05817    0.00907     3.06672
      S    8    0.19399      4.99945     2.78504    0.02152     7.80601
      C    9    0.03622      0.99946     1.94749    0.01683     2.96378
      N   10   -0.30308      0.99959     2.78928    0.01421     3.80308
      C   11    0.23588      0.99963     1.74853    0.01596     2.76412
      N   12   -0.30563      0.99964     2.79656    0.00942     3.80563
      C   13   -0.02424      0.99958     2.01214    0.01252     3.02424
      O   14   -0.38126      0.99990     3.37483    0.00653     4.38126
      C   15   -0.07503      0.99947     2.05833    0.01722     3.07503
      C   16   -0.13047      0.99942     2.11875    0.01231     3.13047
      C   17   -0.14821      0.99955     2.13884    0.00982     3.14821
      C   18   -0.17089      0.99955     2.16023    0.01111     3.17089
      S   19    0.21835      4.99942     2.76269    0.01954     7.78165
      H   20    0.09967      0.00000     0.39923    0.00110     0.40033
      H   21    0.09604      0.00000     0.40286    0.00109     0.40396
      H   22    0.09830      0.00000     0.40065    0.00106     0.40170
      H   23    0.09881      0.00000     0.39974    0.00145     0.40119
      H   24    0.08838      0.00000     0.40999    0.00163     0.41162
      H   25    0.20788      0.00000     0.28999    0.00213     0.29212
      H   26    0.10074      0.00000     0.39837    0.00089     0.39926
      H   27    0.08289      0.00000     0.41548    0.00163     0.41711
      H   28    0.08264      0.00000     0.41572    0.00163     0.41736
      H   29    0.24311      0.00000     0.25405    0.00284     0.25689
      H   30    0.10568      0.00000     0.39334    0.00098     0.39432
      H   31    0.09837      0.00000     0.40057    0.00105     0.40163
      H   32    0.09882      0.00000     0.40021    0.00097     0.40118
 =======================================================================
   * Total *    0.00010     26.99130    48.75358    0.25503    75.99990

 Normal termination of Gaussian 16 at Sun Dec 13 17:28:10 2020.
