 Gaussian 16, Revision A.03,

 -----------------------------------------------------------
 # opt freq B3LYP/6-31G(d) empiricaldispersion=gd3bj scf=xqc
 -----------------------------------------------------------

 -------------------------------
 CID_131879112_JID_2914_neutraal
 -------------------------------
 Symbolic Z-matrix:
 Charge =  0 Multiplicity = 1

 SCF Done:  E(RB3LYP) =  -591.940606725     A.U. after   15 cycles
 SCF Done:  E(RB3LYP) =  -591.946956737     A.U. after   12 cycles
 SCF Done:  E(RB3LYP) =  -591.947853569     A.U. after   12 cycles
 SCF Done:  E(RB3LYP) =  -591.947414789     A.U. after   13 cycles
 SCF Done:  E(RB3LYP) =  -591.948784441     A.U. after   12 cycles
 SCF Done:  E(RB3LYP) =  -591.948941330     A.U. after   12 cycles
 SCF Done:  E(RB3LYP) =  -591.948997466     A.U. after   12 cycles
 SCF Done:  E(RB3LYP) =  -591.949046834     A.U. after   10 cycles
 SCF Done:  E(RB3LYP) =  -591.949063822     A.U. after    9 cycles
 SCF Done:  E(RB3LYP) =  -591.949076486     A.U. after   11 cycles
 SCF Done:  E(RB3LYP) =  -591.949080088     A.U. after    9 cycles
 SCF Done:  E(RB3LYP) =  -591.949085518     A.U. after   10 cycles
 SCF Done:  E(RB3LYP) =  -591.949087064     A.U. after    9 cycles
 SCF Done:  E(RB3LYP) =  -591.949087184     A.U. after    8 cycles
 Optimization completed.
    -- Stationary point found.
 Normal termination of Gaussian 16 at Wed Dec  9 18:13:24 2020.

 --------------------------------------------------------------------
 #N Geom=AllCheck Guess=TCheck SCRF=Check GenChk RB3LYP/6-31G(d) Freq
 --------------------------------------------------------------------

 Structure from the checkpoint file:  "JID_2914.chk"
 -------------------------------
 CID_131879112_JID_2914_neutraal
 -------------------------------
 Charge =  0 Multiplicity = 1

 SCF Done:  E(RB3LYP) =  -591.949087184     A.U. after    1 cycles

  Exact polarizability: 109.681   0.019  99.326  -9.058  -7.125  71.998
 Approx polarizability: 145.257  -5.741 149.080 -13.340 -20.895 116.584

                      1                      2                      3
                      A                      A                      A
 Frequencies --     33.5053                42.9711                71.2121
 Red. masses --      4.3631                 3.7577                 4.3837
 Frc consts  --      0.0029                 0.0041                 0.0131
 IR Inten    --      1.6670                 1.3545                 1.0460

                      4                      5                      6
                      A                      A                      A
 Frequencies --     93.8709               111.3789               173.0472
 Red. masses --      3.5503                 6.4109                 4.2424
 Frc consts  --      0.0184                 0.0469                 0.0748
 IR Inten    --      1.4016                 0.0881                 1.9839

                      7                      8                      9
                      A                      A                      A
 Frequencies --    212.6407               249.9894               262.9219
 Red. masses --      1.6353                 2.1963                 2.8024
 Frc consts  --      0.0436                 0.0809                 0.1141
 IR Inten    --      3.0104                 0.7063                 3.6119

                     10                     11                     12
                      A                      A                      A
 Frequencies --    332.3125               390.2958               446.6504
 Red. masses --      2.4290                 2.6574                 3.5104
 Frc consts  --      0.1580                 0.2385                 0.4126
 IR Inten    --      6.7167                 3.0489                 9.7084

                     13                     14                     15
                      A                      A                      A
 Frequencies --    469.9320               493.4870               563.7360
 Red. masses --      1.5562                 4.0575                 1.8731
 Frc consts  --      0.2025                 0.5822                 0.3507
 IR Inten    --     40.9180                10.7167                37.9042

                     16                     17                     18
                      A                      A                      A
 Frequencies --    574.2323               620.5488               663.5619
 Red. masses --      3.7380                 5.1582                 3.8933
 Frc consts  --      0.7262                 1.1703                 1.0100
 IR Inten    --     29.6125                 2.3630                28.0150

                     19                     20                     21
                      A                      A                      A
 Frequencies --    693.3100               727.0767               794.7593
 Red. masses --      4.5568                 1.1378                 1.4726
 Frc consts  --      1.2905                 0.3544                 0.5480
 IR Inten    --      4.9408                38.3042                 5.5601

                     22                     23                     24
                      A                      A                      A
 Frequencies --    811.8869               858.2371               870.7827
 Red. masses --      3.9636                 2.3219                 3.7884
 Frc consts  --      1.5393                 1.0076                 1.6925
 IR Inten    --     10.8755                 7.6984                12.2052

                     25                     26                     27
                      A                      A                      A
 Frequencies --    935.4956               960.7757               968.6616
 Red. masses --      2.7947                 2.4109                 2.2219
 Frc consts  --      1.4410                 1.3112                 1.2284
 IR Inten    --     14.2766                 0.0903                 4.6392

                     28                     29                     30
                      A                      A                      A
 Frequencies --    994.9715              1007.8884              1057.7641
 Red. masses --      2.1903                 2.4461                 3.7341
 Frc consts  --      1.2776                 1.4640                 2.4616
 IR Inten    --      1.3115                13.8398                48.5893

                     31                     32                     33
                      A                      A                      A
 Frequencies --   1131.6088              1158.8876              1161.7267
 Red. masses --      1.9770                 1.4810                 1.3206
 Frc consts  --      1.4916                 1.1719                 1.0501
 IR Inten    --     36.5520                63.6925                48.0447

                     34                     35                     36
                      A                      A                      A
 Frequencies --   1202.4093              1209.4350              1224.1208
 Red. masses --      2.0499                 1.7228                 2.3985
 Frc consts  --      1.7462                 1.4847                 2.1175
 IR Inten    --     25.3128                 4.2516                71.7826

                     37                     38                     39
                      A                      A                      A
 Frequencies --   1276.8099              1300.0131              1327.4310
 Red. masses --      2.0197                 2.0273                 1.7530
 Frc consts  --      1.9399                 2.0186                 1.8200
 IR Inten    --    227.5126                67.5785                15.7329

                     40                     41                     42
                      A                      A                      A
 Frequencies --   1340.9836              1357.9009              1418.5470
 Red. masses --      1.1474                 1.8658                 1.3043
 Frc consts  --      1.2156                 2.0270                 1.5463
 IR Inten    --     18.0162                46.9373                 6.7295

                     43                     44                     45
                      A                      A                      A
 Frequencies --   1441.0951              1445.2691              1468.0205
 Red. masses --      2.4309                 1.3131                 1.1172
 Frc consts  --      2.9744                 1.6160                 1.4185
 IR Inten    --     89.2031                15.9021                10.7637

                     46                     47                     48
                      A                      A                      A
 Frequencies --   1488.1158              1516.6437              1520.5719
 Red. masses --      1.0949                 1.0491                 1.0793
 Frc consts  --      1.4286                 1.4218                 1.4703
 IR Inten    --      7.6853                 7.1376                 5.9297

                     49                     50                     51
                      A                      A                      A
 Frequencies --   1536.1410              1722.0066              1838.3477
 Red. masses --      1.0588                 6.8887                11.3686
 Frc consts  --      1.4721                12.0352                22.6367
 IR Inten    --      8.5142                30.6549               530.9901

                     52                     53                     54
                      A                      A                      A
 Frequencies --   1846.9040              3050.6536              3057.8280
 Red. masses --     10.9854                 1.0686                 1.0612
 Frc consts  --     22.0778                 5.8595                 5.8463
 IR Inten    --    133.1792                10.5862                10.1014

                     55                     56                     57
                      A                      A                      A
 Frequencies --   3063.5498              3089.5975              3101.4601
 Red. masses --      1.0359                 1.1014                 1.0594
 Frc consts  --      5.7283                 6.1942                 6.0041
 IR Inten    --     11.2374                 5.6285                25.0066

                     58                     59                     60
                      A                      A                      A
 Frequencies --   3130.8258              3143.3111              3158.9024
 Red. masses --      1.1019                 1.1032                 1.0952
 Frc consts  --      6.3634                 6.4219                 6.4388
 IR Inten    --     24.4104                 8.3403                 3.0997

                     61                     62                     63
                      A                      A                      A
 Frequencies --   3163.9189              3259.5498              3647.6631
 Red. masses --      1.1092                 1.0958                 1.0788
 Frc consts  --      6.5418                 6.8594                 8.4570
 IR Inten    --     22.3269                 2.6436                73.2603

 - Thermochemistry -
 -------------------
 Temperature   298.150 Kelvin.  Pressure   1.00000 Atm.
 Atom     1 has atomic number  6 and mass  12.00000

 Molecular mass:   169.07389 amu.
 Principal axes and moments of inertia in atomic units:
                           1         2         3
     Eigenvalues --  1212.550702987.242643739.57391
           X            0.99867   0.05147  -0.00393
           Y           -0.05136   0.99842   0.02292
           Z            0.00511  -0.02269   0.99973
 This molecule is an asymmetric top.
 Rotational symmetry number  1.
 Warning -- assumption of classical behavior for rotation
           may cause significant error
 Rotational temperatures (Kelvin)      0.07143     0.02899     0.02316
 Rotational constants (GHZ):           1.48838     0.60415     0.48261
 Zero-point vibrational energy     492192.5 (Joules/Mol)
                                  117.63682 (Kcal/Mol)
 Warning -- explicit consideration of  17 degrees of freedom as
           vibrations may cause significant error
 Vibrational temperatures:     48.21    61.83   102.46   135.06   160.25
          (Kelvin)            248.98   305.94   359.68   378.29   478.12
                              561.55   642.63   676.13   710.02   811.09
                              826.19   892.83   954.72   997.52  1046.10
                             1143.48  1168.12  1234.81  1252.86  1345.97
                             1382.34  1393.69  1431.54  1450.13  1521.89
                             1628.13  1667.38  1671.47  1730.00  1740.11
                             1761.24  1837.04  1870.43  1909.88  1929.38
                             1953.72  2040.97  2073.41  2079.42  2112.15
                             2141.07  2182.11  2187.76  2210.16  2477.58
                             2644.97  2657.28  4389.21  4399.53  4407.76
                             4445.24  4462.31  4504.56  4522.52  4544.96
                             4552.17  4689.77  5248.17

 Zero-point correction=                           0.187466 (Hartree/Particle)
 Thermal correction to Energy=                    0.199385
 Thermal correction to Enthalpy=                  0.200329
 Thermal correction to Gibbs Free Energy=         0.147871
 Sum of electronic and zero-point Energies=           -591.761621
 Sum of electronic and thermal Energies=              -591.749702
 Sum of electronic and thermal Enthalpies=            -591.748758
 Sum of electronic and thermal Free Energies=         -591.801216

                     E (Thermal)             CV                S
                      KCal/Mol        Cal/Mol-Kelvin    Cal/Mol-Kelvin
 Total                  125.116             43.227            110.407
 Electronic               0.000              0.000              0.000
 Translational            0.889              2.981             41.283
 Rotational               0.889              2.981             30.983
 Vibrational            123.338             37.265             38.141
 Vibration     1          0.594              1.983              5.610
 Vibration     2          0.595              1.980              5.117
 Vibration     3          0.598              1.968              4.120
 Vibration     4          0.603              1.954              3.578
 Vibration     5          0.607              1.940              3.245
 Vibration     6          0.627              1.876              2.402
 Vibration     7          0.644              1.822              2.021
 Vibration     8          0.663              1.763              1.731
 Vibration     9          0.670              1.741              1.642
 Vibration    10          0.714              1.611              1.249
 Vibration    11          0.758              1.491              0.999
 Vibration    12          0.806              1.368              0.806
 Vibration    13          0.827              1.317              0.738
 Vibration    14          0.849              1.264              0.675
 Vibration    15          0.920              1.110              0.516
 Vibration    16          0.931              1.087              0.496
 Vibration    17          0.981              0.989              0.416

 Optimization completed.
    -- Stationary point found.
 Normal termination of Gaussian 16 at Wed Dec  9 18:18:42 2020.

 ----------------------------------------------------------------------
 # B3LYP/6-311++G(d,p) empiricaldispersion=gd3bj scf=xqc pop=npa geom=c
 heck
 ----------------------------------------------------------------------

 ---------------------------------------
 CID_131879112_JID_2914_Energie_neutraal
 ---------------------------------------
 Structure from the checkpoint file:  "JID_2914.chk"
 Charge =  0 Multiplicity = 1

 SCF Done:  E(RB3LYP) =  -592.126702546     A.U. after   15 cycles
 Normal termination of Gaussian 16 at Wed Dec  9 18:21:20 2020.

 ----------------------------------------------------------------------
 # B3LYP/6-311++G(d,p) empiricaldispersion=gd3bj scf=xqc pop=npa geom=c
 heck
 ----------------------------------------------------------------------

 -------------------------------------
 CID_131879112_JID_2914_Energie_kation
 -------------------------------------
 Structure from the checkpoint file:  "JID_2914.chk"
 Charge =  1 Multiplicity = 2

 SCF Done:  E(UB3LYP) =  -591.820529167     A.U. after   20 cycles
 Normal termination of Gaussian 16 at Wed Dec  9 18:25:42 2020.
 Gaussian 16:  ES64L-G16RevA.03 25-Dec-2016

 ----------------------------------------------------------------------
 # B3LYP/6-311++G(d,p) empiricaldispersion=gd3bj scf=xqc pop=npa geom=c
 heck
 ----------------------------------------------------------------------

 ------------------------------------
 CID_131879112_JID_2914_Energie_anion
 ------------------------------------
 Structure from the checkpoint file:  "JID_2914.chk"
 Charge = -1 Multiplicity = 2

                         Standard orientation:
 ---------------------------------------------------------------------
 Center     Atomic      Atomic             Coordinates (Angstroms)
 Number     Number       Type             X           Y           Z
 ---------------------------------------------------------------------
      1          6           0        2.438828    1.794868    0.918546
      2          6           0        2.832166    0.995439   -0.312174
      3          8           0        1.726241    0.172321   -0.767614
      4          6           0        1.552760   -1.010749   -0.128545
      5          8           0        2.296073   -1.442154    0.720769
      6          6           0        0.288374   -1.698371   -0.625441
      7          6           0       -0.950938   -0.969024   -0.201743
      8          6           0       -1.980560   -1.393499    0.547420
      9          6           0       -2.986724   -0.279119    0.665225
     10          6           0       -2.336628    0.880453   -0.111228
     11          8           0       -2.738403    2.018554   -0.254692
     12          7           0       -1.161582    0.358111   -0.626846
     13          1           0        1.549819    2.402670    0.721442
     14          1           0        3.257540    2.464286    1.204519
     15          1           0        2.231800    1.126836    1.758890
     16          1           0        3.053753    1.641158   -1.164421
     17          1           0        3.687385    0.346220   -0.113275
     18          1           0        0.332567   -1.751648   -1.721461
     19          1           0        0.276102   -2.711163   -0.221037
     20          1           0       -2.078176   -2.379983    0.979485
     21          1           0       -3.183434    0.038465    1.696715
     22          1           0       -3.960894   -0.515195    0.217512
     23          1           0       -0.450338    0.921817   -1.070514
 ---------------------------------------------------------------------

 SCF Done:  E(UB3LYP) =  -592.114739352     A.U. after   33 cycles
 SCF Done:  E(UB3LYP) =  -592.114739351     a.u. after    1 cycles

 The electronic state is 2-A.
 Alpha  occ. eigenvalues --  -19.07168 -19.01661 -18.99790 -14.24548 -10.20578
 Alpha  occ. eigenvalues --  -10.17858 -10.13153 -10.12104 -10.09498 -10.08779
 Alpha  occ. eigenvalues --  -10.07236 -10.06499  -1.01102  -0.94676  -0.92695
 Alpha  occ. eigenvalues --   -0.85776  -0.70243  -0.68829  -0.66451  -0.59124
 Alpha  occ. eigenvalues --   -0.55297  -0.50448  -0.48370  -0.46405  -0.41911
 Alpha  occ. eigenvalues --   -0.40046  -0.38788  -0.36805  -0.36649  -0.34687
 Alpha  occ. eigenvalues --   -0.34478  -0.33991  -0.31529  -0.30977  -0.30625
 Alpha  occ. eigenvalues --   -0.29769  -0.28385  -0.28150  -0.26802  -0.25126
 Alpha  occ. eigenvalues --   -0.23397  -0.21400  -0.18572  -0.16374  -0.12047
 Alpha  occ. eigenvalues --    0.04487
 Alpha virt. eigenvalues --    0.06328   0.07278   0.08152   0.08676   0.09290
 Alpha virt. eigenvalues --    0.09649   0.09851   0.10450   0.11647   0.11867
 Alpha virt. eigenvalues --    0.12991   0.13590   0.13742   0.14298   0.15412

  Beta  occ. eigenvalues --  -19.07144 -19.01621 -18.99781 -14.24538 -10.20532
  Beta  occ. eigenvalues --  -10.17849 -10.13121 -10.12080 -10.09472 -10.08768
  Beta  occ. eigenvalues --  -10.07212 -10.06450  -1.01037  -0.94658  -0.92630
  Beta  occ. eigenvalues --   -0.85745  -0.70165  -0.68771  -0.66395  -0.59050
  Beta  occ. eigenvalues --   -0.55220  -0.50401  -0.48288  -0.46317  -0.41843
  Beta  occ. eigenvalues --   -0.39907  -0.38722  -0.36745  -0.36559  -0.34643
  Beta  occ. eigenvalues --   -0.34414  -0.33936  -0.31482  -0.30911  -0.30584
  Beta  occ. eigenvalues --   -0.29680  -0.28321  -0.28092  -0.26714  -0.25082
  Beta  occ. eigenvalues --   -0.23311  -0.21259  -0.18525  -0.16357  -0.11889
  Beta virt. eigenvalues --    0.06936   0.07364   0.07941   0.08605   0.09208
  Beta virt. eigenvalues --    0.09831   0.10143   0.10285   0.10825   0.12106
  Beta virt. eigenvalues --    0.12202   0.13246   0.13768   0.13854   0.14419

 Mulliken charges and spin densities:
               1          2
     1  C    0.155067  -0.538914
     2  C    0.500833  -0.691730
     3  O   -0.085088   0.083549
     4  C   -0.543044   0.485496
     5  O   -0.287410   0.039257
     6  C    3.204223  -3.935728
     7  C    0.122344   0.121856
     8  C   -1.913433   2.066714
     9  C    1.403685  -2.056653
    10  C   -0.525067   0.691238
    11  O   -0.371618   0.007921
    12  N   -0.208345   0.132723
    13  H    0.141709   0.005080
    14  H   -0.319717   0.460175
    15  H    0.044345   0.131486
    16  H   -0.716900   0.901072
    17  H    0.022653   0.145717
    18  H   -0.838362   1.072693
    19  H    0.019158   0.179442
    20  H   -0.942047   1.125887
    21  H   -0.007119   0.189089
    22  H   -0.000701   0.175744
    23  H    0.144832   0.207888
 Sum of Mulliken charges =  -1.00000   1.00000

 Dipole moment (field-independent basis, Debye):
    X=             -0.7416    Y=              0.4851    Z=              2.4760  Tot=              2.6298
 Quadrupole moment (field-independent basis, Debye-Ang):
   XX=           -127.7448   YY=           -121.1502   ZZ=           -103.8274
   XY=             -2.7995   XZ=              2.6027   YZ=              1.7928

 Summary of Natural Population Analysis:

                                       Natural Population
                Natural  -----------------------------------------------
    Atom  No    Charge         Core      Valence    Rydberg      Total
 -----------------------------------------------------------------------
      C    1   -0.29995      0.99966     2.29448    0.00581     3.29995
      C    2   -0.01517      0.99957     2.00401    0.01159     3.01517
      O    3   -0.29250      0.99986     3.28109    0.01155     4.29250
      C    4    0.42107      0.99969     1.55357    0.02567     2.57893
      O    5   -0.29998      0.99987     3.29452    0.00560     4.29998
      C    6   -0.24924      0.99954     2.23906    0.01064     3.24924
      C    7    0.09441      0.99947     1.89303    0.01309     2.90559
      C    8   -0.12049      0.99946     2.11225    0.00878     3.12049
      C    9   -0.24699      0.99960     2.23879    0.00860     3.24699
      C   10    0.35040      0.99970     1.62747    0.02243     2.64960
      O   11   -0.31449      0.99987     3.30866    0.00596     4.31449
      N   12   -0.31916      0.99963     2.81013    0.00940     3.81916
      H   13    0.10140      0.00000     0.39741    0.00119     0.39860
      H   14    0.10294      0.00000     0.39595    0.00111     0.39706
      H   15    0.10492      0.00000     0.39417    0.00090     0.39508
      H   16    0.09421      0.00000     0.40312    0.00266     0.40579
      H   17    0.09491      0.00000     0.40385    0.00124     0.40509
      H   18    0.12446      0.00000     0.36871    0.00683     0.37554
      H   19    0.11986      0.00000     0.37879    0.00135     0.38014
      H   20    0.10644      0.00000     0.39194    0.00162     0.39356
      H   21    0.11667      0.00000     0.38206    0.00127     0.38333
      H   22    0.11615      0.00000     0.38277    0.00108     0.38385
      H   23    0.21013      0.00000     0.28699    0.00288     0.28987
 =======================================================================
   * Total *    0.00000     11.99593    32.84281    0.16126    45.00000

 Normal termination of Gaussian 16 at Wed Dec  9 18:31:47 2020.
