 Gaussian 16, Revision A.03,

 -----------------------------------------------------------
 # opt freq B3LYP/6-31G(d) empiricaldispersion=gd3bj scf=xqc
 -----------------------------------------------------------

 -------------------------------
 CID_131481615_JID_6042_neutraal
 -------------------------------
 Symbolic Z-matrix:
 Charge =  0 Multiplicity = 1

 SCF Done:  E(RB3LYP) =  -746.786498602     A.U. after   15 cycles
 SCF Done:  E(RB3LYP) =  -746.791849586     A.U. after   12 cycles
 SCF Done:  E(RB3LYP) =  -746.791903802     A.U. after   12 cycles
 SCF Done:  E(RB3LYP) =  -746.792751830     A.U. after   13 cycles
 SCF Done:  E(RB3LYP) =  -746.792972880     A.U. after   11 cycles
 SCF Done:  E(RB3LYP) =  -746.793013960     A.U. after   11 cycles
 SCF Done:  E(RB3LYP) =  -746.793031570     A.U. after   11 cycles
 SCF Done:  E(RB3LYP) =  -746.793043350     A.U. after   10 cycles
 SCF Done:  E(RB3LYP) =  -746.793051904     A.U. after   10 cycles
 SCF Done:  E(RB3LYP) =  -746.793052718     A.U. after    9 cycles
 SCF Done:  E(RB3LYP) =  -746.793052801     A.U. after    7 cycles
 Optimization completed.
    -- Stationary point found.
 Normal termination of Gaussian 16 at Thu Dec 10 21:07:41 2020.

 --------------------------------------------------------------------
 #N Geom=AllCheck Guess=TCheck SCRF=Check GenChk RB3LYP/6-31G(d) Freq
 --------------------------------------------------------------------

 Structure from the checkpoint file:  "JID_6042.chk"
 -------------------------------
 CID_131481615_JID_6042_neutraal
 -------------------------------
 Charge =  0 Multiplicity = 1

 SCF Done:  E(RB3LYP) =  -746.793052801     A.U. after    1 cycles

  Exact polarizability: 211.247   0.588 134.108  -3.908  -1.876  83.382
 Approx polarizability: 264.148  -6.882 231.111 -14.466  -2.402 127.358

                      1                      2                      3
                      A                      A                      A
 Frequencies --     36.7174                45.3600                71.8863
 Red. masses --      4.1328                 3.4192                 4.0552
 Frc consts  --      0.0033                 0.0041                 0.0123
 IR Inten    --      2.1952                 0.5776                 1.7471

                      4                      5                      6
                      A                      A                      A
 Frequencies --     96.5905               115.1601               129.6731
 Red. masses --      4.7814                 3.7446                 2.8369
 Frc consts  --      0.0263                 0.0293                 0.0281
 IR Inten    --      0.9305                 2.6997                 0.4686

                      7                      8                      9
                      A                      A                      A
 Frequencies --    176.7667               214.6925               238.8479
 Red. masses --      3.9454                 1.9756                 1.6449
 Frc consts  --      0.0726                 0.0537                 0.0553
 IR Inten    --      4.5927                 2.4047                 4.5885

                     10                     11                     12
                      A                      A                      A
 Frequencies --    250.0388               299.0253               331.6515
 Red. masses --      3.5910                 4.1181                 2.9572
 Frc consts  --      0.1323                 0.2170                 0.1916
 IR Inten    --      0.5561                 1.2697                 8.6236

                     13                     14                     15
                      A                      A                      A
 Frequencies --    342.1727               358.9234               401.0547
 Red. masses --      2.4039                 4.0063                 4.4419
 Frc consts  --      0.1658                 0.3041                 0.4209
 IR Inten    --      4.2329                15.5084                 1.5445

                     16                     17                     18
                      A                      A                      A
 Frequencies --    404.3360               454.2643               465.9162
 Red. masses --      3.9757                 3.1946                 2.3618
 Frc consts  --      0.3830                 0.3884                 0.3021
 IR Inten    --      1.1053                 9.2592                 9.1923

                     19                     20                     21
                      A                      A                      A
 Frequencies --    524.3318               554.7185               572.7327
 Red. masses --      5.1844                 2.0859                 3.6114
 Frc consts  --      0.8398                 0.3782                 0.6980
 IR Inten    --     14.2323                 2.2625                 2.2294

                     22                     23                     24
                      A                      A                      A
 Frequencies --    618.2016               638.9250               699.4694
 Red. masses --      5.4117                 4.0371                 3.1519
 Frc consts  --      1.2185                 0.9710                 0.9086
 IR Inten    --      7.2144                10.1750                57.4338

                     25                     26                     27
                      A                      A                      A
 Frequencies --    746.9403               771.7084               777.2342
 Red. masses --      3.8360                 3.0547                 3.1596
 Frc consts  --      1.2610                 1.0718                 1.1246
 IR Inten    --     15.8281                10.8028                15.7664

                     28                     29                     30
                      A                      A                      A
 Frequencies --    788.8534               835.3443               843.0910
 Red. masses --      2.0591                 1.8243                 2.9790
 Frc consts  --      0.7549                 0.7500                 1.2476
 IR Inten    --     18.3092                 8.4592                 4.9558

                     31                     32                     33
                      A                      A                      A
 Frequencies --    861.8971               882.0673               914.7923
 Red. masses --      1.5799                 2.8161                 1.9821
 Frc consts  --      0.6915                 1.2909                 0.9773
 IR Inten    --     11.9589                 6.6018                13.9407

                     34                     35                     36
                      A                      A                      A
 Frequencies --    944.7487               956.1003               968.0257
 Red. masses --      1.7866                 2.5009                 1.3788
 Frc consts  --      0.9395                 1.3469                 0.7612
 IR Inten    --     15.3782                29.4567                 0.6172

                     37                     38                     39
                      A                      A                      A
 Frequencies --    972.8995               991.1941              1048.6353
 Red. masses --      1.5014                 2.6902                 3.2431
 Frc consts  --      0.8373                 1.5572                 2.1012
 IR Inten    --      1.2245                 7.0520                30.9894

                     40                     41                     42
                      A                      A                      A
 Frequencies --   1084.7217              1103.6748              1124.1858
 Red. masses --      3.2995                 2.1358                 2.3309
 Frc consts  --      2.2873                 1.5328                 1.7356
 IR Inten    --     87.0470                27.7288                19.0415

                     43                     44                     45
                      A                      A                      A
 Frequencies --   1138.8663              1153.3728              1164.7350
 Red. masses --      2.2667                 1.6791                 2.3087
 Frc consts  --      1.7322                 1.3160                 1.8453
 IR Inten    --     94.4053               134.0564                 8.4422

                     46                     47                     48
                      A                      A                      A
 Frequencies --   1209.3442              1220.0716              1251.4986
 Red. masses --      1.8216                 2.1488                 1.2974
 Frc consts  --      1.5697                 1.8846                 1.1972
 IR Inten    --      7.0196                68.1303                55.7415

                     49                     50                     51
                      A                      A                      A
 Frequencies --   1262.7816              1290.4750              1301.0352
 Red. masses --      1.9425                 1.7072                 1.8321
 Frc consts  --      1.8250                 1.6751                 1.8272
 IR Inten    --    231.1123                 1.3682               196.0757

                     52                     53                     54
                      A                      A                      A
 Frequencies --   1319.6775              1336.3772              1344.4324
 Red. masses --      2.5790                 1.3476                 1.1204
 Frc consts  --      2.6463                 1.4180                 1.1932
 IR Inten    --    383.3433                27.4052                 4.6047

                     55                     56                     57
                      A                      A                      A
 Frequencies --   1346.3592              1401.0895              1410.2960
 Red. masses --      5.1045                 1.2867                 1.4475
 Frc consts  --      5.4516                 1.4882                 1.6962
 IR Inten    --     78.8170                17.9202                 0.8922

                     58                     59                     60
                      A                      A                      A
 Frequencies --   1418.9464              1433.7375              1443.4093
 Red. masses --      1.2854                 1.3533                 1.3405
 Frc consts  --      1.5248                 1.6391                 1.6455
 IR Inten    --     20.7993                 8.0975                11.8913

                     61                     62                     63
                      A                      A                      A
 Frequencies --   1465.1736              1484.1819              1501.8150
 Red. masses --      3.8317                 1.2304                 1.1336
 Frc consts  --      4.8464                 1.5968                 1.5063
 IR Inten    --     67.7009                 1.4713                 6.1418

                     64                     65                     66
                      A                      A                      A
 Frequencies --   1513.1023              1515.4065              1518.4251
 Red. masses --      1.1181                 1.0637                 1.0861
 Frc consts  --      1.5082                 1.4393                 1.4755
 IR Inten    --      7.4864                17.8261                13.3925

                     67                     68                     69
                      A                      A                      A
 Frequencies --   1522.0914              1538.4365              1545.2526
 Red. masses --      1.2758                 1.0624                 2.1573
 Frc consts  --      1.7415                 1.4815                 3.0350
 IR Inten    --      8.1678                11.6959                57.9170

                     70                     71                     72
                      A                      A                      A
 Frequencies --   1620.1739              1664.0396              1794.4549
 Red. masses --      7.1991                 6.4252                11.5865
 Frc consts  --     11.1340                10.4824                21.9820
 IR Inten    --      3.4362                57.5198               219.6403

                     73                     74                     75
                      A                      A                      A
 Frequencies --   3030.3623              3032.5932              3048.5134
 Red. masses --      1.0607                 1.0681                 1.0617
 Frc consts  --      5.7391                 5.7876                 5.8134
 IR Inten    --     23.3220                34.8894                43.5879

                     76                     77                     78
                      A                      A                      A
 Frequencies --   3061.1699              3072.0024              3092.7667
 Red. masses --      1.0364                 1.1002                 1.0588
 Frc consts  --      5.7222                 6.1172                 5.9669
 IR Inten    --     20.6074                53.9991                33.1960

                     79                     80                     81
                      A                      A                      A
 Frequencies --   3093.3548              3114.5201              3126.5349
 Red. masses --      1.1052                 1.1000                 1.1020
 Frc consts  --      6.2307                 6.2869                 6.3470
 IR Inten    --     42.1030                48.0272                27.8054

                     82                     83                     84
                      A                      A                      A
 Frequencies --   3139.8259              3159.4089              3211.9018
 Red. masses --      1.1044                 1.1067                 1.0896
 Frc consts  --      6.4151                 6.5085                 6.6230
 IR Inten    --      9.1106                27.6411                 6.1896

                     85                     86                     87
                      A                      A                      A
 Frequencies --   3237.1945              3238.4791              3480.1820
 Red. masses --      1.0908                 1.0932                 1.0728
 Frc consts  --      6.7350                 6.7550                 7.6556
 IR Inten    --      1.0076                 3.2073                 0.8369

 - Thermochemistry -
 -------------------
 Temperature   298.150 Kelvin.  Pressure   1.00000 Atm.
 Atom     1 has atomic number  6 and mass  12.00000

 Molecular mass:   221.10519 amu.
 Principal axes and moments of inertia in atomic units:
                           1         2         3
     Eigenvalues --  1145.296367586.625018407.72803
           X            0.99995   0.00708   0.00699
           Y           -0.00701   0.99993  -0.00964
           Z           -0.00706   0.00959   0.99993
 This molecule is an asymmetric top.
 Rotational symmetry number  1.
 Warning -- assumption of classical behavior for rotation
           may cause significant error
 Rotational temperatures (Kelvin)      0.07563     0.01142     0.01030
 Rotational constants (GHZ):           1.57579     0.23788     0.21465
 Zero-point vibrational energy     681425.5 (Joules/Mol)
                                  162.86459 (Kcal/Mol)
 Warning -- explicit consideration of  22 degrees of freedom as
           vibrations may cause significant error
 Vibrational temperatures:     52.83    65.26   103.43   138.97   165.69
          (Kelvin)            186.57   254.33   308.89   343.65   359.75
                              430.23   477.17   492.31   516.41   577.03
                              581.75   653.58   670.35   754.40   798.12
                              824.03   889.45   919.27  1006.38  1074.68
                             1110.32  1118.27  1134.98  1201.87  1213.02
                             1240.08  1269.10  1316.18  1359.28  1375.62
                             1392.77  1399.79  1426.11  1508.75  1560.67
                             1587.94  1617.45  1638.57  1659.45  1675.79
                             1739.98  1755.41  1800.63  1816.86  1856.71
                             1871.90  1898.72  1922.75  1934.34  1937.11
                             2015.86  2029.10  2041.55  2062.83  2076.74
                             2108.06  2135.41  2160.78  2177.02  2180.33
                             2184.68  2189.95  2213.47  2223.27  2331.07
                             2394.18  2581.82  4360.02  4363.23  4386.13
                             4404.34  4419.93  4449.80  4450.65  4481.10
                             4498.39  4517.51  4545.68  4621.21  4657.60
                             4659.45  5007.21

 Zero-point correction=                           0.259541 (Hartree/Particle)
 Thermal correction to Energy=                    0.273978
 Thermal correction to Enthalpy=                  0.274922
 Thermal correction to Gibbs Free Energy=         0.217336
 Sum of electronic and zero-point Energies=           -746.533512
 Sum of electronic and thermal Energies=              -746.519075
 Sum of electronic and thermal Enthalpies=            -746.518131
 Sum of electronic and thermal Free Energies=         -746.575716

                     E (Thermal)             CV                S
                      KCal/Mol        Cal/Mol-Kelvin    Cal/Mol-Kelvin
 Total                  171.923             55.468            121.198
 Electronic               0.000              0.000              0.000
 Translational            0.889              2.981             42.083
 Rotational               0.889              2.981             32.657
 Vibrational            170.146             49.507             46.458
 Vibration     1          0.594              1.982              5.429
 Vibration     2          0.595              1.979              5.010
 Vibration     3          0.598              1.967              4.101
 Vibration     4          0.603              1.952              3.522
 Vibration     5          0.608              1.937              3.180
 Vibration     6          0.612              1.924              2.951
 Vibration     7          0.628              1.871              2.362
 Vibration     8          0.645              1.819              2.003
 Vibration     9          0.657              1.781              1.811
 Vibration    10          0.663              1.763              1.730
 Vibration    11          0.692              1.676              1.422
 Vibration    12          0.714              1.612              1.252
 Vibration    13          0.721              1.591              1.202
 Vibration    14          0.734              1.557              1.127
 Vibration    15          0.767              1.468              0.959
 Vibration    16          0.770              1.461              0.947
 Vibration    17          0.813              1.351              0.783
 Vibration    18          0.823              1.326              0.749
 Vibration    19          0.879              1.196              0.600
 Vibration    20          0.910              1.129              0.534
 Vibration    21          0.929              1.090              0.499
 Vibration    22          0.978              0.993              0.419

 Optimization completed.
    -- Stationary point found.
 Normal termination of Gaussian 16 at Thu Dec 10 21:16:21 2020.

 ----------------------------------------------------------------------
 # B3LYP/6-311++G(d,p) empiricaldispersion=gd3bj scf=xqc pop=npa geom=c
 heck
 ----------------------------------------------------------------------

 ---------------------------------------
 CID_131481615_JID_6042_Energie_neutraal
 ---------------------------------------
 Structure from the checkpoint file:  "JID_6042.chk"
 Charge =  0 Multiplicity = 1

 SCF Done:  E(RB3LYP) =  -747.001655312     A.U. after   15 cycles
 Normal termination of Gaussian 16 at Thu Dec 10 21:19:52 2020.

 ----------------------------------------------------------------------
 # B3LYP/6-311++G(d,p) empiricaldispersion=gd3bj scf=xqc pop=npa geom=c
 heck
 ----------------------------------------------------------------------

 -------------------------------------
 CID_131481615_JID_6042_Energie_kation
 -------------------------------------
 Structure from the checkpoint file:  "JID_6042.chk"
 Charge =  1 Multiplicity = 2

 SCF Done:  E(UB3LYP) =  -746.692540514     A.U. after   29 cycles
 Normal termination of Gaussian 16 at Thu Dec 10 21:30:43 2020.
 Gaussian 16:  ES64L-G16RevA.03 25-Dec-2016

 ----------------------------------------------------------------------
 # B3LYP/6-311++G(d,p) empiricaldispersion=gd3bj scf=xqc pop=npa geom=c
 heck
 ----------------------------------------------------------------------

 ------------------------------------
 CID_131481615_JID_6042_Energie_anion
 ------------------------------------
 Structure from the checkpoint file:  "JID_6042.chk"
 Charge = -1 Multiplicity = 2

                         Standard orientation:
 ---------------------------------------------------------------------
 Center     Atomic      Atomic             Coordinates (Angstroms)
 Number     Number       Type             X           Y           Z
 ---------------------------------------------------------------------
      1          6           0        5.335306   -0.058285    0.770750
      2          6           0        4.669246    0.192452   -0.572881
      3          8           0        3.287264    0.578353   -0.407738
      4          6           0        2.401376   -0.432653   -0.237476
      5          8           0        2.717612   -1.607629   -0.239287
      6          6           0        1.013723    0.063626   -0.054898
      7          6           0       -0.003036   -0.880397    0.129704
      8          6           0       -1.329970   -0.496475    0.311834
      9          6           0       -1.635611    0.881089    0.292535
     10          6           0       -0.623547    1.829379    0.114434
     11          6           0        0.696072    1.428122   -0.053876
     12          8           0       -2.907038    1.350566    0.499708
     13          6           0       -3.904145    0.952709   -0.454892
     14          6           0       -4.474054   -0.434352   -0.190510
     15          6           0       -3.450650   -1.564090   -0.356729
     16          7           0       -2.303963   -1.520696    0.553449
     17          1           0        5.246144    0.820861    1.417116
     18          1           0        6.399864   -0.274327    0.625354
     19          1           0        4.874169   -0.914487    1.269719
     20          1           0        5.124221    1.036777   -1.096317
     21          1           0        4.713134   -0.696126   -1.207125
     22          1           0        0.241554   -1.936255    0.143803
     23          1           0       -0.898905    2.879059    0.115053
     24          1           0        1.480084    2.162846   -0.193660
     25          1           0       -3.477434    1.012432   -1.465856
     26          1           0       -4.687457    1.711067   -0.368883
     27          1           0       -4.885036   -0.457456    0.827975
     28          1           0       -5.316261   -0.597926   -0.878116
     29          1           0       -3.951226   -2.528799   -0.209967
     30          1           0       -3.054027   -1.564632   -1.379429
     31          1           0       -2.632031   -1.465222    1.516761
 ---------------------------------------------------------------------

 SCF Done:  E(UB3LYP) =  -746.999100011     A.U. after   33 cycles
 SCF Done:  E(UB3LYP) =  -746.999100011     a.u. after    1 cycles

 The electronic state is 2-A.
 Alpha  occ. eigenvalues --  -19.03156 -19.02312 -18.95762 -14.19305 -10.14312
 Alpha  occ. eigenvalues --  -10.11840 -10.11368 -10.09348 -10.09084 -10.07448
 Alpha  occ. eigenvalues --  -10.06734 -10.06456 -10.04450 -10.04393 -10.03689
 Alpha  occ. eigenvalues --  -10.03560  -0.96858  -0.93980  -0.87620  -0.80337
 Alpha  occ. eigenvalues --   -0.72508  -0.67714  -0.66159  -0.62632  -0.60377
 Alpha  occ. eigenvalues --   -0.57277  -0.54714  -0.49970  -0.47827  -0.47560
 Alpha  occ. eigenvalues --   -0.43789  -0.42182  -0.39626  -0.38045  -0.36945
 Alpha  occ. eigenvalues --   -0.35799  -0.34944  -0.34190  -0.33468  -0.32703
 Alpha  occ. eigenvalues --   -0.31010  -0.30419  -0.29721  -0.29100  -0.28797
 Alpha  occ. eigenvalues --   -0.28029  -0.27414  -0.26070  -0.24867  -0.23492
 Alpha  occ. eigenvalues --   -0.23182  -0.22216  -0.21297  -0.17929  -0.17051
 Alpha  occ. eigenvalues --   -0.14083  -0.13159  -0.12378  -0.11489   0.04541
 Alpha virt. eigenvalues --    0.06348   0.06946   0.08273   0.08882   0.09198
 Alpha virt. eigenvalues --    0.09501   0.10033   0.11113   0.11252   0.11354
 Alpha virt. eigenvalues --    0.11693   0.12422   0.13142   0.13262   0.13625

  Beta  occ. eigenvalues --  -19.03105 -19.02313 -18.95530 -14.19302 -10.14084
  Beta  occ. eigenvalues --  -10.11841 -10.11310 -10.09346 -10.08787 -10.07508
  Beta  occ. eigenvalues --  -10.06714 -10.06435 -10.04469 -10.04317 -10.03562
  Beta  occ. eigenvalues --  -10.03416  -0.96628  -0.93864  -0.87263  -0.80329
  Beta  occ. eigenvalues --   -0.72270  -0.67568  -0.66101  -0.62379  -0.60126
  Beta  occ. eigenvalues --   -0.57102  -0.54581  -0.49829  -0.47740  -0.47210
  Beta  occ. eigenvalues --   -0.43643  -0.42117  -0.39500  -0.37973  -0.36857
  Beta  occ. eigenvalues --   -0.35594  -0.34831  -0.33938  -0.33305  -0.32442
  Beta  occ. eigenvalues --   -0.30860  -0.30332  -0.29518  -0.29026  -0.28747
  Beta  occ. eigenvalues --   -0.27880  -0.26785  -0.25922  -0.24793  -0.23215
  Beta  occ. eigenvalues --   -0.23028  -0.22086  -0.20941  -0.17229  -0.16854
  Beta  occ. eigenvalues --   -0.13852  -0.12787  -0.12080  -0.10445
  Beta virt. eigenvalues --    0.06832   0.07003   0.08451   0.08962   0.09095
  Beta virt. eigenvalues --    0.09478   0.09846   0.10094   0.11081   0.11372
  Beta virt. eigenvalues --    0.11463   0.11863   0.12511   0.13083   0.13182

 Mulliken charges and spin densities:
               1          2
     1  C    0.051450  -0.389892
     2  C   -0.293888   0.111556
     3  O   -0.021063   0.009278
     4  C   -0.374157   0.083032
     5  O   -0.340071   0.084855
     6  C    1.115661  -0.038032
     7  C   -0.157184   0.038259
     8  C   -0.248554  -0.076564
     9  C   -0.768297   0.303430
    10  C    0.203237  -0.222346
    11  C   -0.801228   0.299247
    12  O   -0.138663   0.027462
    13  C    0.187203  -0.426148
    14  C    0.315215  -0.524594
    15  C   -0.335663   0.006296
    16  N   -0.047258   0.005967
    17  H    0.056058   0.074449
    18  H   -0.046892   0.160111
    19  H    0.085164   0.091277
    20  H    0.054680   0.080191
    21  H    0.168106  -0.003674
    22  H    0.181224   0.002997
    23  H    0.124525   0.039778
    24  H    0.142930   0.005239
    25  H    0.133299  -0.012387
    26  H   -0.457319   0.643138
    27  H    0.077446   0.064564
    28  H   -0.374237   0.502889
    29  H    0.123626   0.048506
    30  H    0.137786  -0.002350
    31  H    0.246863   0.013466
 Sum of Mulliken charges =  -1.00000   1.00000

 Dipole moment (field-independent basis, Debye):
    X=              1.6019    Y=              0.3703    Z=             -0.1045  Tot=              1.6475
 Quadrupole moment (field-independent basis, Debye-Ang):
   XX=           -175.0396   YY=           -120.3430   ZZ=           -107.7357
   XY=             14.6031   XZ=             -5.6998   YZ=             -1.9497

 Summary of Natural Population Analysis:

                                       Natural Population
                Natural  -----------------------------------------------
    Atom  No    Charge         Core      Valence    Rydberg      Total
 -----------------------------------------------------------------------
      C    1   -0.29865      0.99966     2.29473    0.00426     3.29865
      C    2   -0.01601      0.99959     2.00508    0.01134     3.01601
      O    3   -0.28649      0.99986     3.27852    0.00811     4.28649
      C    4    0.42621      0.99963     1.54963    0.02454     2.57379
      O    5   -0.30573      0.99987     3.30079    0.00507     4.30573
      C    6   -0.06747      0.99946     2.05867    0.00934     3.06747
      C    7   -0.04323      0.99950     2.03559    0.00814     3.04323
      C    8    0.02756      0.99941     1.96217    0.01086     2.97244
      C    9    0.19787      0.99932     1.78968    0.01313     2.80213
      C   10   -0.13874      0.99953     2.12965    0.00956     3.13874
      C   11   -0.06106      0.99955     2.05313    0.00838     3.06106
      O   12   -0.29429      0.99986     3.28444    0.00999     4.29429
      C   13   -0.00605      0.99955     1.99247    0.01403     3.00605
      C   14   -0.21425      0.99962     2.20519    0.00943     3.21425
      C   15   -0.08667      0.99962     2.07458    0.01247     3.08667
      N   16   -0.34173      0.99973     2.82981    0.01219     3.84173
      H   17    0.09675      0.00000     0.40184    0.00141     0.40325
      H   18    0.09435      0.00000     0.40417    0.00148     0.40565
      H   19    0.10852      0.00000     0.39004    0.00144     0.39148
      H   20    0.08238      0.00000     0.41612    0.00150     0.41762
      H   21    0.09330      0.00000     0.40499    0.00172     0.40670
      H   22    0.11012      0.00000     0.38862    0.00126     0.38988
      H   23    0.09978      0.00000     0.39912    0.00110     0.40022
      H   24    0.10253      0.00000     0.39643    0.00104     0.39747
      H   25    0.08077      0.00000     0.41798    0.00125     0.41923
      H   26    0.09117      0.00000     0.40674    0.00209     0.40883
      H   27    0.09447      0.00000     0.40413    0.00140     0.40553
      H   28    0.09994      0.00000     0.39810    0.00196     0.40006
      H   29    0.08935      0.00000     0.40967    0.00098     0.41065
      H   30    0.09228      0.00000     0.40657    0.00115     0.40772
      H   31    0.17304      0.00000     0.32462    0.00235     0.32696
 =======================================================================
   * Total *    0.00000     15.99378    42.81326    0.19296    59.00000

 Normal termination of Gaussian 16 at Thu Dec 10 21:43:34 2020.
