 Gaussian 16, Revision A.03,

 -----------------------------------------------------------
 # opt freq B3LYP/6-31G(d) empiricaldispersion=gd3bj scf=xqc
 -----------------------------------------------------------

 ------------------------------
 CID_21296951_JID_3011_neutraal
 ------------------------------
 Symbolic Z-matrix:
 Charge =  0 Multiplicity = 1

 SCF Done:  E(RB3LYP) =  -558.246529388     A.U. after   15 cycles
 SCF Done:  E(RB3LYP) =  -558.250464794     A.U. after   12 cycles
 SCF Done:  E(RB3LYP) =  -558.250572043     A.U. after   13 cycles
 SCF Done:  E(RB3LYP) =  -558.251174997     A.U. after   12 cycles
 SCF Done:  E(RB3LYP) =  -558.251322532     A.U. after   11 cycles
 SCF Done:  E(RB3LYP) =  -558.251460756     A.U. after   12 cycles
 SCF Done:  E(RB3LYP) =  -558.251513989     A.U. after   10 cycles
 SCF Done:  E(RB3LYP) =  -558.251536581     A.U. after   10 cycles
 SCF Done:  E(RB3LYP) =  -558.251540879     A.U. after    9 cycles
 SCF Done:  E(RB3LYP) =  -558.251542305     A.U. after    8 cycles
 SCF Done:  E(RB3LYP) =  -558.251544386     A.U. after    9 cycles
 SCF Done:  E(RB3LYP) =  -558.251545051     A.U. after    9 cycles
 SCF Done:  E(RB3LYP) =  -558.251545331     A.U. after    8 cycles
 SCF Done:  E(RB3LYP) =  -558.251545388     A.U. after    7 cycles
 SCF Done:  E(RB3LYP) =  -558.251545398     A.U. after    6 cycles
 Optimization completed.
    -- Stationary point found.
 Normal termination of Gaussian 16 at Sun Dec 13 12:26:21 2020.

 --------------------------------------------------------------------
 #N Geom=AllCheck Guess=TCheck SCRF=Check GenChk RB3LYP/6-31G(d) Freq
 --------------------------------------------------------------------

 Structure from the checkpoint file:  "JID_3011.chk"
 ------------------------------
 CID_21296951_JID_3011_neutraal
 ------------------------------
 Charge =  0 Multiplicity = 1

 SCF Done:  E(RB3LYP) =  -558.251545398     A.U. after    1 cycles

  Exact polarizability: 162.655  -0.499 137.379   2.860   1.739  73.872
 Approx polarizability: 221.220   0.665 217.456   5.649  -0.793 113.189

 ******    1 imaginary frequencies (negative Signs) ******

                      1                      2                      3
                      A                      A                      A
 Frequencies --    -17.2076                33.1005                42.1948
 Red. masses --      1.0161                 1.0142                 4.4093
 Frc consts  --      0.0002                 0.0007                 0.0046
 IR Inten    --      0.1172                 0.3275                 3.2790

                      4                      5                      6
                      A                      A                      A
 Frequencies --     73.9329               105.8490               151.2426
 Red. masses --      3.3959                 3.8135                 2.6377
 Frc consts  --      0.0109                 0.0252                 0.0355
 IR Inten    --      3.0842                 3.6375                 0.3845

                      7                      8                      9
                      A                      A                      A
 Frequencies --    179.9618               196.0005               214.7391
 Red. masses --      1.2770                 2.5833                 1.1388
 Frc consts  --      0.0244                 0.0585                 0.0309
 IR Inten    --      1.0292                 1.1573                 0.0758

                     10                     11                     12
                      A                      A                      A
 Frequencies --    225.1196               253.9136               292.2865
 Red. masses --      3.0159                 2.7616                 4.1729
 Frc consts  --      0.0901                 0.1049                 0.2100
 IR Inten    --      0.4039                 1.9533                 4.5077

                     13                     14                     15
                      A                      A                      A
 Frequencies --    308.9038               356.1341               403.8050
 Red. masses --      3.9403                 3.6471                 2.4029
 Frc consts  --      0.2215                 0.2725                 0.2308
 IR Inten    --      0.7329                 0.6768                 0.8133

                     16                     17                     18
                      A                      A                      A
 Frequencies --    484.7707               522.5578               524.4668
 Red. masses --      3.1936                 3.6080                 4.1139
 Frc consts  --      0.4422                 0.5805                 0.6667
 IR Inten    --      0.9052                 0.3112                 0.3001

                     19                     20                     21
                      A                      A                      A
 Frequencies --    543.3294               556.9764               589.1153
 Red. masses --      4.3053                 4.2395                 3.5043
 Frc consts  --      0.7488                 0.7749                 0.7166
 IR Inten    --      8.2275                 3.7580                 5.5964

                     22                     23                     24
                      A                      A                      A
 Frequencies --    603.9427               635.1959               713.8243
 Red. masses --      3.2920                 4.2319                 2.4857
 Frc consts  --      0.7075                 1.0060                 0.7462
 IR Inten    --      6.5173                 5.0170                 5.9852

                     25                     26                     27
                      A                      A                      A
 Frequencies --    810.2145               862.6228               876.3311
 Red. masses --      4.3484                 1.4183                 1.3043
 Frc consts  --      1.6818                 0.6218                 0.5902
 IR Inten    --      0.7718                20.3805                 0.6559

                     28                     29                     30
                      A                      A                      A
 Frequencies --    900.9495               961.6474               979.3775
 Red. masses --      1.3969                 2.6275                 3.6824
 Frc consts  --      0.6681                 1.4316                 2.0811
 IR Inten    --      1.3110                 4.3294                 2.2604

                     31                     32                     33
                      A                      A                      A
 Frequencies --   1018.9738              1023.6561              1047.6297
 Red. masses --      1.5183                 5.6355                 1.4548
 Frc consts  --      0.9288                 3.4793                 0.9408
 IR Inten    --     35.5874                 0.8997                 1.3094

                     34                     35                     36
                      A                      A                      A
 Frequencies --   1050.6851              1060.4525              1073.9560
 Red. masses --      1.6355                 1.7291                 1.5131
 Frc consts  --      1.0637                 1.1456                 1.0282
 IR Inten    --     36.1139                 4.5122                12.1733

                     37                     38                     39
                      A                      A                      A
 Frequencies --   1076.2742              1150.9543              1162.8781
 Red. masses --      1.5144                 1.3792                 1.4457
 Frc consts  --      1.0336                 1.0764                 1.1519
 IR Inten    --      4.9586                10.3277                30.6618

                     40                     41                     42
                      A                      A                      A
 Frequencies --   1172.9806              1206.4266              1248.7945
 Red. masses --      2.3840                 1.4296                 2.9583
 Frc consts  --      1.9326                 1.2259                 2.7181
 IR Inten    --     54.0391                 2.2845                12.2860

                     43                     44                     45
                      A                      A                      A
 Frequencies --   1320.1340              1340.9756              1364.8706
 Red. masses --      2.0311                 3.0021                 3.4422
 Frc consts  --      2.0855                 3.1806                 3.7781
 IR Inten    --     40.9538                11.3560                 4.2671

                     46                     47                     48
                      A                      A                      A
 Frequencies --   1388.4107              1423.5865              1440.8072
 Red. masses --      2.7695                 1.5478                 1.2338
 Frc consts  --      3.1454                 1.8481                 1.5091
 IR Inten    --    185.2979               123.5656                 0.0442

                     49                     50                     51
                      A                      A                      A
 Frequencies --   1443.1898              1484.7540              1488.9647
 Red. masses --      1.2792                 1.5202                 1.3131
 Frc consts  --      1.5697                 1.9745                 1.7152
 IR Inten    --      1.4530                31.0329                 4.1114

                     52                     53                     54
                      A                      A                      A
 Frequencies --   1497.9791              1503.0508              1518.1125
 Red. masses --      2.1643                 1.1010                 1.0636
 Frc consts  --      2.8613                 1.4655                 1.4443
 IR Inten    --      0.4701                12.3431                18.0494

                     55                     56                     57
                      A                      A                      A
 Frequencies --   1518.2893              1519.1922              1530.1680
 Red. masses --      1.0499                 1.0538                 1.1685
 Frc consts  --      1.4259                 1.4330                 1.6119
 IR Inten    --      6.6225                 2.2247                 8.1840

                     58                     59                     60
                      A                      A                      A
 Frequencies --   1532.7234              1539.3467              1548.7047
 Red. masses --      1.1359                 1.3980                 1.0920
 Frc consts  --      1.5722                 1.9518                 1.5432
 IR Inten    --      9.5094                50.7656                29.4277

                     61                     62                     63
                      A                      A                      A
 Frequencies --   1658.0760              1664.9633              1778.6456
 Red. masses --      5.4403                 5.8048                10.4270
 Frc consts  --      8.8122                 9.4809                19.4352
 IR Inten    --     64.5856                30.3327               225.1937

                     64                     65                     66
                      A                      A                      A
 Frequencies --   3034.1316              3041.6260              3042.3080
 Red. masses --      1.0523                 1.0400                 1.0410
 Frc consts  --      5.7079                 5.6688                 5.6766
 IR Inten    --     44.0548                47.3758                19.4719

                     67                     68                     69
                      A                      A                      A
 Frequencies --   3057.7689              3097.9436              3100.7271
 Red. masses --      1.0399                 1.0967                 1.0948
 Frc consts  --      5.7288                 6.2011                 6.2017
 IR Inten    --      8.1703                21.3793                21.7767

                     70                     71                     72
                      A                      A                      A
 Frequencies --   3118.4988              3124.6874              3128.5667
 Red. masses --      1.1003                 1.1024                 1.1029
 Frc consts  --      6.3047                 6.3415                 6.3605
 IR Inten    --     13.0543                17.0422                15.9533

                     73                     74                     75
                      A                      A                      A
 Frequencies --   3129.2716              3167.8573              3173.4859
 Red. masses --      1.0831                 1.1041                 1.0899
 Frc consts  --      6.2490                 6.5281                 6.4673
 IR Inten    --     20.4997                21.4560                20.7090

                     76                     77                     78
                      A                      A                      A
 Frequencies --   3179.6650              3195.6503              3250.6211
 Red. masses --      1.1001                 1.0897                 1.0912
 Frc consts  --      6.5530                 6.5566                 6.7935
 IR Inten    --      5.9968                11.3729                 1.1964

 - Thermochemistry -
 -------------------
 Temperature   298.150 Kelvin.  Pressure   1.00000 Atm.
 Atom     1 has atomic number  6 and mass  12.00000

 Molecular mass:   177.11536 amu.
 Principal axes and moments of inertia in atomic units:
                           1         2         3
     Eigenvalues --  1443.755283387.865704510.38502
           X            0.99979  -0.01910   0.00803
           Y            0.01902   0.99976   0.01076
           Z           -0.00823  -0.01061   0.99991
 This molecule is an asymmetric top.
 Rotational symmetry number  1.
 Warning -- assumption of classical behavior for rotation
           may cause significant error
 Rotational temperatures (Kelvin)      0.05999     0.02557     0.01920
 Rotational constants (GHZ):           1.25003     0.53271     0.40013
    1 imaginary frequencies ignored.
 Zero-point vibrational energy     628302.2 (Joules/Mol)
                                  150.16782 (Kcal/Mol)
 Warning -- explicit consideration of  21 degrees of freedom as
           vibrations may cause significant error
 Vibrational temperatures:     47.62    60.71   106.37   152.29   217.60
          (Kelvin)            258.92   282.00   308.96   323.90   365.33
                              420.54   444.44   512.40   580.99   697.48
                              751.84   754.59   781.73   801.36   847.61
                              868.94   913.91  1027.03  1165.72  1241.12
                             1260.85  1296.27  1383.60  1409.11  1466.08
                             1472.81  1507.31  1511.70  1525.75  1545.18
                             1548.52  1655.97  1673.12  1687.66  1735.78
                             1796.74  1899.38  1929.36  1963.74  1997.61
                             2048.22  2073.00  2076.43  2136.23  2142.29
                             2155.26  2162.55  2184.23  2184.48  2185.78
                             2201.57  2205.25  2214.78  2228.24  2385.60
                             2395.51  2559.07  4365.44  4376.22  4377.20
                             4399.45  4457.25  4461.25  4486.82  4495.73
                             4501.31  4502.32  4557.84  4565.94  4574.83
                             4597.83  4676.92

 Zero-point correction=                           0.239308 (Hartree/Particle)
 Thermal correction to Energy=                    0.252562
 Thermal correction to Enthalpy=                  0.253507
 Thermal correction to Gibbs Free Energy=         0.198754
 Sum of electronic and zero-point Energies=           -558.012238
 Sum of electronic and thermal Energies=              -557.998983
 Sum of electronic and thermal Enthalpies=            -557.998039
 Sum of electronic and thermal Free Energies=         -558.052792

                     E (Thermal)             CV                S
                      KCal/Mol        Cal/Mol-Kelvin    Cal/Mol-Kelvin
 Total                  158.485             49.056            115.237
 Electronic               0.000              0.000              0.000
 Translational            0.889              2.981             41.422
 Rotational               0.889              2.981             31.468
 Vibrational            156.708             43.094             42.348
 Vibration     1          0.594              1.983              5.634
 Vibration     2          0.595              1.980              5.153
 Vibration     3          0.599              1.966              4.046
 Vibration     4          0.605              1.945              3.344
 Vibration     5          0.619              1.901              2.657
 Vibration     6          0.629              1.867              2.329
 Vibration     7          0.636              1.845              2.170
 Vibration     8          0.645              1.819              2.003
 Vibration     9          0.650              1.803              1.918
 Vibration    10          0.665              1.756              1.703
 Vibration    11          0.688              1.688              1.461
 Vibration    12          0.698              1.657              1.368
 Vibration    13          0.732              1.563              1.139
 Vibration    14          0.769              1.462              0.949
 Vibration    15          0.841              1.284              0.697
 Vibration    16          0.878              1.200              0.604
 Vibration    17          0.879              1.196              0.600
 Vibration    18          0.898              1.154              0.558
 Vibration    19          0.912              1.124              0.530
 Vibration    20          0.946              1.055              0.469
 Vibration    21          0.962              1.023              0.443

                           ! Non-Optimized Parameters !
 Normal termination of Gaussian 16 at Sun Dec 13 12:33:04 2020.

 ----------------------------------------------------------------------
 # B3LYP/6-311++G(d,p) empiricaldispersion=gd3bj scf=xqc pop=npa geom=c
 heck
 ----------------------------------------------------------------------

 --------------------------------------
 CID_21296951_JID_3011_Energie_neutraal
 --------------------------------------
 Structure from the checkpoint file:  "JID_3011.chk"
 Charge =  0 Multiplicity = 1

 SCF Done:  E(RB3LYP) =  -558.403414606     A.U. after   15 cycles
 Normal termination of Gaussian 16 at Sun Dec 13 12:35:42 2020.

 ----------------------------------------------------------------------
 # B3LYP/6-311++G(d,p) empiricaldispersion=gd3bj scf=xqc pop=npa geom=c
 heck
 ----------------------------------------------------------------------

 ------------------------------------
 CID_21296951_JID_3011_Energie_kation
 ------------------------------------
 Structure from the checkpoint file:  "JID_3011.chk"
 Charge =  1 Multiplicity = 2

 SCF Done:  E(UB3LYP) =  -558.115434074     A.U. after   24 cycles
 Normal termination of Gaussian 16 at Sun Dec 13 12:41:19 2020.
 Gaussian 16:  ES64L-G16RevA.03 25-Dec-2016

 ----------------------------------------------------------------------
 # B3LYP/6-311++G(d,p) empiricaldispersion=gd3bj scf=xqc pop=npa geom=c
 heck
 ----------------------------------------------------------------------

 -----------------------------------
 CID_21296951_JID_3011_Energie_anion
 -----------------------------------
 Structure from the checkpoint file:  "JID_3011.chk"
 Charge = -1 Multiplicity = 2

                         Standard orientation:
 ---------------------------------------------------------------------
 Center     Atomic      Atomic             Coordinates (Angstroms)
 Number     Number       Type             X           Y           Z
 ---------------------------------------------------------------------
      1          6           0       -2.356646    2.677635    0.375592
      2          6           0       -1.774849    1.296804    0.187317
      3          6           0       -2.606613    0.197764   -0.052211
      4          6           0       -2.083830   -1.089001   -0.198154
      5          6           0       -0.701005   -1.267688   -0.099123
      6          6           0        0.146877   -0.181366    0.142932
      7          6           0       -0.396202    1.099726    0.286372
      8          7           0        1.552167   -0.405864    0.280017
      9          6           0        1.973813   -1.654327    0.912848
     10          6           0        2.470345    0.439600   -0.328440
     11          8           0        2.141784    1.453755   -0.926814
     12          6           0        3.937453    0.047153   -0.211720
     13          6           0       -2.985090   -2.262451   -0.499914
     14          1           0       -3.336569    2.766551   -0.104350
     15          1           0       -2.491073    2.910103    1.440312
     16          1           0       -1.699671    3.446075   -0.044665
     17          1           0       -3.681339    0.348524   -0.128511
     18          1           0       -0.285767   -2.262229   -0.231512
     19          1           0        0.260134    1.940625    0.465116
     20          1           0        2.112232   -2.471499    0.191773
     21          1           0        2.909914   -1.510640    1.453863
     22          1           0        1.211218   -1.954789    1.633226
     23          1           0        4.285591    0.097058    0.826703
     24          1           0        4.129847   -0.966688   -0.578680
     25          1           0        4.507791    0.760325   -0.807034
     26          1           0       -4.003635   -2.085577   -0.139736
     27          1           0       -3.048053   -2.447105   -1.580415
     28          1           0       -2.615586   -3.182810   -0.034691
 ---------------------------------------------------------------------

 SCF Done:  E(UB3LYP) =  -558.391518963     A.U. after   33 cycles
 SCF Done:  E(UB3LYP) =  -558.391518964     a.u. after    1 cycles

 The electronic state is 2-A.
 Alpha  occ. eigenvalues --  -18.98613 -14.24949 -10.17378 -10.11503 -10.09798
 Alpha  occ. eigenvalues --  -10.08539 -10.08538 -10.07919 -10.07137 -10.07113
 Alpha  occ. eigenvalues --  -10.06857 -10.06828 -10.06676  -0.93980  -0.84416
 Alpha  occ. eigenvalues --   -0.75960  -0.68802  -0.67117  -0.63233  -0.60756
 Alpha  occ. eigenvalues --   -0.59750  -0.58235  -0.52234  -0.48015  -0.44170
 Alpha  occ. eigenvalues --   -0.40741  -0.39271  -0.37897  -0.37833  -0.35705
 Alpha  occ. eigenvalues --   -0.33355  -0.32965  -0.32197  -0.31762  -0.30932
 Alpha  occ. eigenvalues --   -0.30756  -0.30511  -0.30053  -0.29280  -0.28438
 Alpha  occ. eigenvalues --   -0.26771  -0.25676  -0.24892  -0.24510  -0.18046
 Alpha  occ. eigenvalues --   -0.15839  -0.14096  -0.12358   0.04349
 Alpha virt. eigenvalues --    0.06279   0.07073   0.07764   0.08168   0.08393
 Alpha virt. eigenvalues --    0.08776   0.09303   0.09763   0.10708   0.11056
 Alpha virt. eigenvalues --    0.11241   0.11527   0.12762   0.12901   0.13422

  Beta  occ. eigenvalues --  -18.98601 -14.24947 -10.17369 -10.11498 -10.09734
  Beta  occ. eigenvalues --  -10.08542 -10.08531 -10.07911 -10.07107 -10.07070
  Beta  occ. eigenvalues --  -10.06832 -10.06813 -10.06674  -0.93957  -0.84396
  Beta  occ. eigenvalues --   -0.75942  -0.68781  -0.67085  -0.63175  -0.60680
  Beta  occ. eigenvalues --   -0.59717  -0.58186  -0.52198  -0.47979  -0.44126
  Beta  occ. eigenvalues --   -0.40690  -0.39229  -0.37859  -0.37787  -0.35656
  Beta  occ. eigenvalues --   -0.33330  -0.32930  -0.32169  -0.31712  -0.30902
  Beta  occ. eigenvalues --   -0.30731  -0.30480  -0.30020  -0.29222  -0.28406
  Beta  occ. eigenvalues --   -0.26722  -0.25652  -0.24855  -0.24484  -0.18009
  Beta  occ. eigenvalues --   -0.15803  -0.14055  -0.12320
  Beta virt. eigenvalues --    0.06373   0.07310   0.07465   0.07921   0.08271
  Beta virt. eigenvalues --    0.09009   0.09449   0.09658   0.10313   0.11085
  Beta virt. eigenvalues --    0.11315   0.11485   0.11949   0.13074   0.13249

 Mulliken charges and spin densities:
               1          2
     1  C    0.153212  -0.632859
     2  C    0.854709  -0.037225
     3  C   -1.455767  -0.377695
     4  C    0.313799   0.750384
     5  C   -0.107227   0.295874
     6  C   -0.845451   0.235692
     7  C   -0.232628   0.157381
     8  N   -0.043123   0.255804
     9  C    1.564081  -1.988568
    10  C   -1.030664   1.239159
    11  O   -0.330959   0.009503
    12  C    1.408779  -2.029579
    13  C    1.139576  -1.665477
    14  H    0.047718   0.081976
    15  H    0.067805   0.094288
    16  H    0.117658   0.028473
    17  H   -0.096119   0.202151
    18  H    0.047831   0.105790
    19  H    0.083290   0.112970
    20  H   -0.614583   0.821844
    21  H   -0.616300   0.776860
    22  H   -0.335594   0.499029
    23  H   -0.280220   0.458145
    24  H   -0.299214   0.471597
    25  H    0.029246   0.138374
    26  H   -0.231152   0.370940
    27  H   -0.023891   0.188697
    28  H   -0.284811   0.436470
 Sum of Mulliken charges =  -1.00000   1.00000

 Dipole moment (field-independent basis, Debye):
    X=             -4.6742    Y=              5.3307    Z=             -1.0218  Tot=              7.1631
 Quadrupole moment (field-independent basis, Debye-Ang):
   XX=           -148.1992   YY=           -128.8572   ZZ=           -110.7980
   XY=              2.9517   XZ=             -4.3546   YZ=              5.8001

 Summary of Natural Population Analysis:

                                       Natural Population
                Natural  -----------------------------------------------
    Atom  No    Charge         Core      Valence    Rydberg      Total
 -----------------------------------------------------------------------
      C    1   -0.29074      0.99964     2.28622    0.00488     3.29074
      C    2   -0.01174      0.99952     2.00408    0.00813     3.01174
      C    3   -0.11031      0.99947     2.10153    0.00932     3.11031
      C    4   -0.01013      0.99952     2.00063    0.00998     3.01013
      C    5   -0.11548      0.99947     2.10732    0.00869     3.11548
      C    6    0.09628      0.99946     1.89181    0.01245     2.90372
      C    7   -0.10287      0.99947     2.09536    0.00804     3.10287
      N    8   -0.25528      0.99962     2.74368    0.01198     3.75528
      C    9   -0.17929      0.99963     2.17155    0.00812     3.17929
      C   10    0.35057      0.99967     1.62736    0.02240     2.64943
      O   11   -0.31965      0.99988     3.31399    0.00579     4.31965
      C   12   -0.33195      0.99963     2.32703    0.00528     3.33195
      C   13   -0.29022      0.99964     2.28551    0.00507     3.29022
      H   14    0.09941      0.00000     0.39969    0.00090     0.40059
      H   15    0.10234      0.00000     0.39638    0.00128     0.39766
      H   16    0.10292      0.00000     0.39613    0.00095     0.39708
      H   17    0.09576      0.00000     0.40331    0.00093     0.40424
      H   18    0.10637      0.00000     0.39216    0.00147     0.39363
      H   19    0.11124      0.00000     0.38738    0.00138     0.38876
      H   20    0.09788      0.00000     0.39847    0.00365     0.40212
      H   21    0.10616      0.00000     0.39094    0.00290     0.39384
      H   22    0.10478      0.00000     0.39356    0.00166     0.39522
      H   23    0.11197      0.00000     0.38623    0.00180     0.38803
      H   24    0.11110      0.00000     0.38758    0.00132     0.38890
      H   25    0.11085      0.00000     0.38831    0.00085     0.38915
      H   26    0.10120      0.00000     0.39765    0.00116     0.39880
      H   27    0.10373      0.00000     0.39506    0.00121     0.39627
      H   28    0.10510      0.00000     0.39355    0.00135     0.39490
 =======================================================================
   * Total *   -0.00000     12.99461    34.86245    0.14293    48.00000

 Normal termination of Gaussian 16 at Sun Dec 13 12:48:49 2020.
