 Gaussian 16, Revision A.03,

 -----------------------------------------------------------
 # opt freq B3LYP/6-31G(d) empiricaldispersion=gd3bj scf=xqc
 -----------------------------------------------------------

 ---------------------------
 CID_64685_JID_1261_neutraal
 ---------------------------
 Symbolic Z-matrix:
 Charge =  0 Multiplicity = 1

 SCF Done:  E(RB3LYP) =  -467.168040875     A.U. after   13 cycles
 SCF Done:  E(RB3LYP) =  -467.171231226     A.U. after   11 cycles
 SCF Done:  E(RB3LYP) =  -467.171659705     A.U. after   10 cycles
 SCF Done:  E(RB3LYP) =  -467.171729993     A.U. after    9 cycles
 SCF Done:  E(RB3LYP) =  -467.171761373     A.U. after    9 cycles
 SCF Done:  E(RB3LYP) =  -467.171782988     A.U. after    9 cycles
 SCF Done:  E(RB3LYP) =  -467.171788133     A.U. after    9 cycles
 SCF Done:  E(RB3LYP) =  -467.171790854     A.U. after    7 cycles
 SCF Done:  E(RB3LYP) =  -467.171791834     A.U. after    7 cycles
 SCF Done:  E(RB3LYP) =  -467.171791927     A.U. after    7 cycles
 Optimization completed.
    -- Stationary point found.
 Normal termination of Gaussian 16 at Tue Dec  8 19:34:05 2020.

 --------------------------------------------------------------------
 #N Geom=AllCheck Guess=TCheck SCRF=Check GenChk RB3LYP/6-31G(d) Freq
 --------------------------------------------------------------------

 Structure from the checkpoint file:  "JID_1261.chk"
 ---------------------------
 CID_64685_JID_1261_neutraal
 ---------------------------
 Charge =  0 Multiplicity = 1

 SCF Done:  E(RB3LYP) =  -467.171791927     A.U. after    1 cycles

  Exact polarizability: 103.588  -1.781  99.450  -1.933   0.559  97.556
 Approx polarizability: 146.633  -1.288 141.099  -2.292   2.177 142.056

                      1                      2                      3
                      A                      A                      A
 Frequencies --    107.2162               187.2402               221.5111
 Red. masses --      2.2687                 1.1983                 1.9673
 Frc consts  --      0.0154                 0.0248                 0.0569
 IR Inten    --      1.1509                 1.1248                 2.5943

                      4                      5                      6
                      A                      A                      A
 Frequencies --    225.6063               229.8389               238.3961
 Red. masses --      1.3154                 1.3090                 2.0445
 Frc consts  --      0.0394                 0.0407                 0.0685
 IR Inten    --      0.1487                 0.1647                 0.1950

                      7                      8                      9
                      A                      A                      A
 Frequencies --    256.1831               298.5506               312.9025
 Red. masses --      2.1122                 1.2238                 2.8358
 Frc consts  --      0.0817                 0.0643                 0.1636
 IR Inten    --      0.0264                75.9871                 6.9637

                     10                     11                     12
                      A                      A                      A
 Frequencies --    351.9515               378.1744               398.1766
 Red. masses --      2.5437                 1.7293                 2.5961
 Frc consts  --      0.1856                 0.1457                 0.2425
 IR Inten    --      1.5826                17.2390                 2.8997

                     13                     14                     15
                      A                      A                      A
 Frequencies --    430.5336               466.2972               499.7357
 Red. masses --      2.0325                 2.5544                 3.3546
 Frc consts  --      0.2220                 0.3272                 0.4936
 IR Inten    --      0.1199                 8.4144                 1.0940

                     16                     17                     18
                      A                      A                      A
 Frequencies --    530.2504               577.8869               597.0917
 Red. masses --      2.7276                 3.9247                 3.2426
 Frc consts  --      0.4519                 0.7722                 0.6811
 IR Inten    --      1.9834                 1.8467                 1.6520

                     19                     20                     21
                      A                      A                      A
 Frequencies --    654.8466               753.1594               777.0591
 Red. masses --      3.4889                 2.5772                 2.3128
 Frc consts  --      0.8815                 0.8614                 0.8228
 IR Inten    --      1.1106                 2.0614                 0.6714

                     22                     23                     24
                      A                      A                      A
 Frequencies --    845.4178               847.2243               895.5102
 Red. masses --      1.4641                 2.3153                 2.3325
 Frc consts  --      0.6166                 0.9792                 1.1021
 IR Inten    --      3.4069                 0.9654                 4.1946

                     25                     26                     27
                      A                      A                      A
 Frequencies --    935.3174               953.4130               962.0906
 Red. masses --      2.5058                 1.7395                 1.8065
 Frc consts  --      1.2915                 0.9316                 0.9852
 IR Inten    --      2.2578                 1.9541                 0.7051

                     28                     29                     30
                      A                      A                      A
 Frequencies --    969.4285               970.8982               998.7409
 Red. masses --      1.4387                 1.8530                 2.1400
 Frc consts  --      0.7966                 1.0291                 1.2577
 IR Inten    --      1.4556                 1.9115                 5.2038

                     31                     32                     33
                      A                      A                      A
 Frequencies --   1024.6156              1041.1477              1057.4112
 Red. masses --      1.5962                 1.9093                 1.5698
 Frc consts  --      0.9873                 1.2194                 1.0342
 IR Inten    --      4.6508                 1.9491                 1.3697

                     34                     35                     36
                      A                      A                      A
 Frequencies --   1095.0407              1114.2380              1136.5803
 Red. masses --      1.8229                 1.4227                 1.4318
 Frc consts  --      1.2879                 1.0407                 1.0898
 IR Inten    --     47.7720                13.4671                75.2808

                     37                     38                     39
                      A                      A                      A
 Frequencies --   1155.6069              1179.8547              1196.1351
 Red. masses --      2.0264                 2.1543                 1.7649
 Frc consts  --      1.5944                 1.7669                 1.4877
 IR Inten    --      5.9569                 3.0020                 5.8088

                     40                     41                     42
                      A                      A                      A
 Frequencies --   1227.2222              1236.4024              1264.5796
 Red. masses --      1.7451                 1.8672                 2.0222
 Frc consts  --      1.5486                 1.6818                 1.9053
 IR Inten    --      0.0957                 2.2016                 2.7445

                     43                     44                     45
                      A                      A                      A
 Frequencies --   1271.0951              1285.0754              1307.8652
 Red. masses --      1.8339                 1.5698                 1.8233
 Frc consts  --      1.7457                 1.5274                 1.8375
 IR Inten    --      9.8512                 0.5608                 4.1604

                     46                     47                     48
                      A                      A                      A
 Frequencies --   1314.4036              1328.6517              1347.8520
 Red. masses --      1.4325                 1.6286                 1.5045
 Frc consts  --      1.4582                 1.6939                 1.6104
 IR Inten    --      2.5471                 4.3387                 0.2617

                     49                     50                     51
                      A                      A                      A
 Frequencies --   1356.4437              1375.6367              1432.7698
 Red. masses --      1.7041                 1.8701                 1.2442
 Frc consts  --      1.8474                 2.0850                 1.5048
 IR Inten    --      0.1365                 2.4208                 7.4315

                     52                     53                     54
                      A                      A                      A
 Frequencies --   1436.2285              1452.5656              1466.9426
 Red. masses --      1.2863                 1.2156                 1.1767
 Frc consts  --      1.5633                 1.5112                 1.4919
 IR Inten    --      4.0819                 2.8871                39.9617

                     55                     56                     57
                      A                      A                      A
 Frequencies --   1512.8316              1518.0302              1524.1629
 Red. masses --      1.0629                 1.0541                 1.0503
 Frc consts  --      1.4333                 1.4311                 1.4375
 IR Inten    --      0.1568                 2.8748                 2.7129

                     58                     59                     60
                      A                      A                      A
 Frequencies --   1529.3317              1532.6600              1537.0084
 Red. masses --      1.0662                 1.0653                 1.0545
 Frc consts  --      1.4693                 1.4743                 1.4677
 IR Inten    --      7.0884                 5.2656                 0.8602

                     61                     62                     63
                      A                      A                      A
 Frequencies --   1542.5953              1554.1895              1562.2529
 Red. masses --      1.0653                 1.0590                 1.0881
 Frc consts  --      1.4936                 1.5072                 1.5647
 IR Inten    --      1.7396                 3.5463                10.8172

                     64                     65                     66
                      A                      A                      A
 Frequencies --   3042.6910              3048.2921              3054.8223
 Red. masses --      1.0357                 1.0403                 1.0413
 Frc consts  --      5.6493                 5.6952                 5.7253
 IR Inten    --     20.6742                10.4377                58.3664

                     67                     68                     69
                      A                      A                      A
 Frequencies --   3058.3761              3062.4751              3072.7399
 Red. masses --      1.0639                 1.0624                 1.0632
 Frc consts  --      5.8631                 5.8707                 5.9144
 IR Inten    --     14.9310                36.5227                46.8755

                     70                     71                     72
                      A                      A                      A
 Frequencies --   3089.9744              3090.3906              3093.8884
 Red. masses --      1.0913                 1.0929                 1.0961
 Frc consts  --      6.1390                 6.1498                 6.1818
 IR Inten    --      6.5167                18.5577                28.8077

                     73                     74                     75
                      A                      A                      A
 Frequencies --   3100.1958              3105.1170              3107.3619
 Red. masses --      1.1019                 1.1005                 1.1005
 Frc consts  --      6.2399                 6.2517                 6.2605
 IR Inten    --      2.6203                 9.9804                68.9435

                     76                     77                     78
                      A                      A                      A
 Frequencies --   3108.5974              3111.6503              3115.0041
 Red. masses --      1.1004                 1.1023                 1.1015
 Frc consts  --      6.2654                 6.2883                 6.2972
 IR Inten    --     52.5097                44.9709                45.1399

                     79                     80                     81
                      A                      A                      A
 Frequencies --   3148.0815              3148.8139              3746.1233
 Red. masses --      1.0960                 1.0956                 1.0655
 Frc consts  --      6.3994                 6.4002                 8.8098
 IR Inten    --     41.5232                23.7784                 5.1322

 - Thermochemistry -
 -------------------
 Temperature   298.150 Kelvin.  Pressure   1.00000 Atm.
 Atom     1 has atomic number  6 and mass  12.00000

 Molecular mass:   154.13577 amu.
 Principal axes and moments of inertia in atomic units:
                           1         2         3
     Eigenvalues --  1224.113341628.675811735.59109
           X            0.99903  -0.04038  -0.01767
           Y            0.04057   0.99912   0.01045
           Z            0.01723  -0.01115   0.99979
 This molecule is an asymmetric top.
 Rotational symmetry number  1.
 Warning -- assumption of classical behavior for rotation
           may cause significant error
 Rotational temperatures (Kelvin)      0.07076     0.05318     0.04990
 Rotational constants (GHZ):           1.47433     1.10810     1.03984
 Zero-point vibrational energy     700369.7 (Joules/Mol)
                                  167.39238 (Kcal/Mol)
 Warning -- explicit consideration of  18 degrees of freedom as
           vibrations may cause significant error
 Vibrational temperatures:    154.26   269.40   318.71   324.60   330.69
          (Kelvin)            343.00   368.59   429.55   450.20   506.38
                              544.11   572.89   619.44   670.90   719.01
                              762.91   831.45   859.08   942.18  1083.63
                             1118.01  1216.37  1218.97  1288.44  1345.71
                             1371.75  1384.23  1394.79  1396.91  1436.97
                             1474.19  1497.98  1521.38  1575.52  1603.14
                             1635.29  1662.66  1697.55  1720.97  1765.70
                             1778.91  1819.45  1828.82  1848.94  1881.73
                             1891.13  1911.63  1939.26  1951.62  1979.23
                             2061.44  2066.41  2089.92  2110.60  2176.63
                             2184.11  2192.93  2200.37  2205.16  2211.41
                             2219.45  2236.13  2247.73  4377.75  4385.81
                             4395.21  4400.32  4406.22  4420.99  4445.78
                             4446.38  4451.42  4460.49  4467.57  4470.80
                             4472.58  4476.97  4481.80  4529.39  4530.44
                             5389.84

 Zero-point correction=                           0.266757 (Hartree/Particle)
 Thermal correction to Energy=                    0.277716
 Thermal correction to Enthalpy=                  0.278660
 Thermal correction to Gibbs Free Energy=         0.232015
 Sum of electronic and zero-point Energies=           -466.905035
 Sum of electronic and thermal Energies=              -466.894076
 Sum of electronic and thermal Enthalpies=            -466.893132
 Sum of electronic and thermal Free Energies=         -466.939777

                     E (Thermal)             CV                S
                      KCal/Mol        Cal/Mol-Kelvin    Cal/Mol-Kelvin
 Total                  174.269             45.441             98.172
 Electronic               0.000              0.000              0.000
 Translational            0.889              2.981             41.008
 Rotational               0.889              2.981             29.627
 Vibrational            172.492             39.479             27.538
 Vibration     1          0.606              1.943              3.319
 Vibration     2          0.632              1.857              2.255
 Vibration     3          0.648              1.808              1.947
 Vibration     4          0.650              1.802              1.914
 Vibration     5          0.652              1.795              1.880
 Vibration     6          0.656              1.782              1.815
 Vibration     7          0.666              1.752              1.688
 Vibration     8          0.692              1.676              1.425
 Vibration     9          0.701              1.649              1.347
 Vibration    10          0.728              1.571              1.157
 Vibration    11          0.748              1.517              1.046
 Vibration    12          0.764              1.474              0.969
 Vibration    13          0.792              1.404              0.857
 Vibration    14          0.824              1.325              0.748
 Vibration    15          0.855              1.251              0.659
 Vibration    16          0.885              1.183              0.587
 Vibration    17          0.934              1.079              0.489
 Vibration    18          0.955              1.038              0.455

 Optimization completed.
    -- Stationary point found.
 Normal termination of Gaussian 16 at Tue Dec  8 19:41:28 2020.

 ----------------------------------------------------------------------
 # B3LYP/6-311++G(d,p) empiricaldispersion=gd3bj scf=xqc pop=npa geom=c
 heck
 ----------------------------------------------------------------------

 -----------------------------------
 CID_64685_JID_1261_Energie_neutraal
 -----------------------------------
 Structure from the checkpoint file:  "JID_1261.chk"
 Charge =  0 Multiplicity = 1

 SCF Done:  E(RB3LYP) =  -467.308478734     A.U. after   13 cycles
 Normal termination of Gaussian 16 at Tue Dec  8 19:44:04 2020.

 ----------------------------------------------------------------------
 # B3LYP/6-311++G(d,p) empiricaldispersion=gd3bj scf=xqc pop=npa geom=c
 heck
 ----------------------------------------------------------------------

 ---------------------------------
 CID_64685_JID_1261_Energie_kation
 ---------------------------------
 Structure from the checkpoint file:  "JID_1261.chk"
 Charge =  1 Multiplicity = 2

 SCF Done:  E(UB3LYP) =  -466.971627349     A.U. after   25 cycles
 Normal termination of Gaussian 16 at Tue Dec  8 19:50:58 2020.
 Gaussian 16:  ES64L-G16RevA.03 25-Dec-2016

 ----------------------------------------------------------------------
 # B3LYP/6-311++G(d,p) empiricaldispersion=gd3bj scf=xqc pop=npa geom=c
 heck
 ----------------------------------------------------------------------

 --------------------------------
 CID_64685_JID_1261_Energie_anion
 --------------------------------
 Structure from the checkpoint file:  "JID_1261.chk"
 Charge = -1 Multiplicity = 2

                         Standard orientation:
 ---------------------------------------------------------------------
 Center     Atomic      Atomic             Coordinates (Angstroms)
 Number     Number       Type             X           Y           Z
 ---------------------------------------------------------------------
      1          6           0       -2.339446    0.065603   -0.610549
      2          6           0       -1.089923    0.007659    0.281372
      3          6           0       -0.437996   -1.405772    0.369465
      4          6           0       -0.013469   -1.672839   -1.091911
      5          6           0        0.426041   -0.261036   -1.585019
      6          6           0        0.185242    0.658008   -0.360695
      7          6           0        1.271733    0.296840    0.697083
      8          6           0        0.853699   -1.130033    1.169199
      9          8           0        2.614853    0.414795    0.247376
     10          6           0        0.143189    2.138818   -0.693368
     11          6           0       -1.493949    0.592511    1.645052
     12          1           0       -2.706992    1.095444   -0.687506
     13          1           0       -3.144008   -0.536507   -0.171325
     14          1           0       -2.172553   -0.299440   -1.625940
     15          1           0       -1.073051   -2.187262    0.798604
     16          1           0       -0.842144   -2.065946   -1.688255
     17          1           0        0.794225   -2.410953   -1.146010
     18          1           0        1.469091   -0.221901   -1.916681
     19          1           0       -0.169129    0.073786   -2.439834
     20          1           0        1.219201    1.013164    1.521013
     21          1           0        1.640886   -1.859198    0.943551
     22          1           0        0.692117   -1.166338    2.250679
     23          1           0        2.778091   -0.297405   -0.389473
     24          1           0       -0.607063    2.359318   -1.461567
     25          1           0       -0.091146    2.741073    0.192533
     26          1           0        1.119074    2.468556   -1.066810
     27          1           0       -1.827725    1.630687    1.534234
     28          1           0       -2.333754    0.023458    2.061198
     29          1           0       -0.694679    0.582553    2.388802
 ---------------------------------------------------------------------

 SCF Done:  E(UB3LYP) =  -467.291489262     A.U. after   28 cycles

 The electronic state is 2-A.
 Alpha  occ. eigenvalues --  -19.01601 -10.10880 -10.07267 -10.06844 -10.06100
 Alpha  occ. eigenvalues --  -10.05541 -10.05527 -10.05336 -10.05143 -10.05025
 Alpha  occ. eigenvalues --  -10.04641  -0.91871  -0.76960  -0.65419  -0.64981
 Alpha  occ. eigenvalues --   -0.63346  -0.57066  -0.55951  -0.52519  -0.50872
 Alpha  occ. eigenvalues --   -0.44041  -0.41460  -0.38165  -0.37555  -0.36990
 Alpha  occ. eigenvalues --   -0.34038  -0.32375  -0.30935  -0.30270  -0.29194
 Alpha  occ. eigenvalues --   -0.28792  -0.28313  -0.27165  -0.26454  -0.25001
 Alpha  occ. eigenvalues --   -0.23917  -0.23281  -0.22867  -0.21153  -0.20908
 Alpha  occ. eigenvalues --   -0.18820  -0.18424  -0.15603   0.04859
 Alpha virt. eigenvalues --    0.07130   0.07692   0.08040   0.09519   0.09919
 Alpha virt. eigenvalues --    0.10167   0.10411   0.10805   0.12560   0.12720
 Alpha virt. eigenvalues --    0.12924   0.13208   0.13918   0.14086   0.14519

  Beta  occ. eigenvalues --  -19.01578 -10.10872 -10.07264 -10.06844 -10.06088
  Beta  occ. eigenvalues --  -10.05521 -10.05500 -10.05309 -10.05124 -10.04997
  Beta  occ. eigenvalues --  -10.04604  -0.91822  -0.76936  -0.65378  -0.64953
  Beta  occ. eigenvalues --   -0.63302  -0.56998  -0.55903  -0.52458  -0.50808
  Beta  occ. eigenvalues --   -0.43982  -0.41410  -0.38116  -0.37501  -0.36929
  Beta  occ. eigenvalues --   -0.34003  -0.32336  -0.30900  -0.30232  -0.29162
  Beta  occ. eigenvalues --   -0.28766  -0.28277  -0.27127  -0.26418  -0.24964
  Beta  occ. eigenvalues --   -0.23880  -0.23239  -0.22826  -0.21108  -0.20873
  Beta  occ. eigenvalues --   -0.18789  -0.18397  -0.15578
  Beta virt. eigenvalues --    0.07199   0.08074   0.08462   0.08845   0.10230
  Beta virt. eigenvalues --    0.10388   0.10801   0.10985   0.11241   0.13115
  Beta virt. eigenvalues --    0.13288   0.13428   0.13588   0.14077   0.14424

 Mulliken charges and spin densities:
               1          2
     1  C    1.393144  -1.879265
     2  C   -0.346204   0.305122
     3  C   -2.613960   3.047129
     4  C    1.397661  -2.011422
     5  C   -0.115156  -0.416180
     6  C   -0.426440   1.064826
     7  C   -0.990779   0.370163
     8  C    1.289092  -1.863693
     9  O   -0.201095   0.001168
    10  C    1.452916  -1.832362
    11  C    0.938254  -1.466993
    12  H   -0.143663   0.281183
    13  H   -0.166516   0.321180
    14  H   -0.120779   0.277574
    15  H   -0.836986   1.091634
    16  H   -0.182338   0.331996
    17  H   -0.467127   0.616822
    18  H   -0.088004   0.182233
    19  H   -0.272372   0.448427
    20  H    0.056947   0.156672
    21  H   -0.226461   0.369182
    22  H   -0.016982   0.161442
    23  H    0.119634   0.125975
    24  H   -0.149664   0.297499
    25  H   -0.073212   0.206926
    26  H    0.127067   0.038307
    27  H   -0.016752   0.157360
    28  H   -0.184564   0.339483
    29  H   -0.135659   0.277612
 Sum of Mulliken charges =  -1.00000   1.00000

 Dipole moment (field-independent basis, Debye):
    X=              1.6778    Y=              2.5037    Z=              0.5990  Tot=              3.0729
 Quadrupole moment (field-independent basis, Debye-Ang):
   XX=           -120.1183   YY=           -112.7030   ZZ=           -112.6497
   XY=             -2.2342   XZ=             -0.5496   YZ=             -0.7609

 Summary of Natural Population Analysis:

                                       Natural Population
                Natural  -----------------------------------------------
    Atom  No    Charge         Core      Valence    Rydberg      Total
 -----------------------------------------------------------------------
      C    1   -0.28799      0.99961     2.28039    0.00799     3.28799
      C    2   -0.03662      0.99952     2.02078    0.01632     3.03662
      C    3   -0.10611      0.99956     2.09312    0.01343     3.10611
      C    4   -0.19198      0.99963     2.18280    0.00955     3.19198
      C    5   -0.19650      0.99959     2.18590    0.01101     3.19650
      C    6   -0.04145      0.99949     2.02487    0.01710     3.04145
      C    7    0.06921      0.99947     1.91604    0.01527     2.93079
      C    8   -0.20248      0.99961     2.19331    0.00956     3.20248
      O    9   -0.37152      0.99989     3.36506    0.00656     4.37152
      C   10   -0.28756      0.99960     2.28126    0.00670     3.28756
      C   11   -0.28753      0.99961     2.28033    0.00759     3.28753
      H   12    0.09977      0.00000     0.39915    0.00108     0.40023
      H   13    0.10286      0.00000     0.39590    0.00123     0.39714
      H   14    0.10370      0.00000     0.39485    0.00145     0.39630
      H   15    0.10361      0.00000     0.39434    0.00205     0.39639
      H   16    0.10241      0.00000     0.39598    0.00162     0.39759
      H   17    0.09815      0.00000     0.40025    0.00160     0.40185
      H   18    0.09692      0.00000     0.40163    0.00144     0.40308
      H   19    0.10435      0.00000     0.39431    0.00134     0.39565
      H   20    0.08855      0.00000     0.40994    0.00151     0.41145
      H   21    0.10023      0.00000     0.39838    0.00139     0.39977
      H   22    0.10396      0.00000     0.39490    0.00114     0.39604
      H   23    0.22726      0.00000     0.26955    0.00318     0.27274
      H   24    0.10072      0.00000     0.39827    0.00101     0.39928
      H   25    0.09933      0.00000     0.39969    0.00098     0.40067
      H   26    0.10509      0.00000     0.39384    0.00107     0.39491
      H   27    0.09981      0.00000     0.39924    0.00094     0.40019
      H   28    0.10318      0.00000     0.39579    0.00103     0.39682
      H   29    0.10061      0.00000     0.39819    0.00120     0.39939
 =======================================================================
   * Total *    0.00000     10.99559    31.85805    0.14636    43.00000

 Normal termination of Gaussian 16 at Tue Dec  8 19:58:07 2020.
