 Gaussian 16, Revision A.03,

 -----------------------------------------------------------
 # opt freq B3LYP/6-31G(d) empiricaldispersion=gd3bj scf=xqc
 -----------------------------------------------------------

 -----------------------------
 CID_67768254_JID_661_neutraal
 -----------------------------
 Symbolic Z-matrix:
 Charge =  0 Multiplicity = 1

 SCF Done:  E(RB3LYP) =  -486.821513733     A.U. after   14 cycles
 SCF Done:  E(RB3LYP) =  -486.832955487     A.U. after   13 cycles
 SCF Done:  E(RB3LYP) =  -486.835955315     A.U. after   13 cycles
 SCF Done:  E(RB3LYP) =  -486.836615076     A.U. after   12 cycles
 SCF Done:  E(RB3LYP) =  -486.837172925     A.U. after   11 cycles
 SCF Done:  E(RB3LYP) =  -486.837232910     A.U. after   11 cycles
 SCF Done:  E(RB3LYP) =  -486.837271766     A.U. after   10 cycles
 SCF Done:  E(RB3LYP) =  -486.837331584     A.U. after   11 cycles
 SCF Done:  E(RB3LYP) =  -486.837295116     A.U. after   13 cycles
 SCF Done:  E(RB3LYP) =  -486.837609733     A.U. after   11 cycles
 SCF Done:  E(RB3LYP) =  -486.837625817     A.U. after   12 cycles
 SCF Done:  E(RB3LYP) =  -486.837953536     A.U. after   10 cycles
 SCF Done:  E(RB3LYP) =  -486.837976884     A.U. after   10 cycles
 SCF Done:  E(RB3LYP) =  -486.837980809     A.U. after    9 cycles
 SCF Done:  E(RB3LYP) =  -486.837981684     A.U. after    8 cycles
 Optimization completed.
    -- Stationary point found.

 1\1\GINC-NODE308\FOpt\RB3LYP\6-31G(d)\C4H10N6\VSC10255\08-Dec-2020\0\\
 # opt freq B3LYP/6-31G(d) empiricaldispersion=gd3bj scf=xqc\\CID_67768
 254_JID_661_neutraal\\0,1\C,-0.785332619,-0.9272271979,-0.4325217805\N
 ,-1.08521587,0.3017858302,0.2893646054\C,0.0912869747,1.118818921,0.04
 06433585\N,1.2620049448,0.1930347429,-0.1106449432\N,0.6422665371,-1.1
 622053671,-0.1385001757\N,2.0406381539,0.6039478471,-1.24117867\C,1.73
 35612394,-0.0361769628,-2.5574555443\N,2.5288742011,-1.269407914,-2.64
 77877387\C,3.4439016529,-1.102589307,-1.7627795307\N,3.3873569067,0.08

 Normal termination of Gaussian 16 at Tue Dec  8 12:49:40 2020.

 --------------------------------------------------------------------
 #N Geom=AllCheck Guess=TCheck SCRF=Check GenChk RB3LYP/6-31G(d) Freq
 --------------------------------------------------------------------

 Structure from the checkpoint file:  "JID_661.chk"
 -----------------------------
 CID_67768254_JID_661_neutraal
 -----------------------------
 Charge =  0 Multiplicity = 1

 SCF Done:  E(RB3LYP) =  -486.837981684     A.U. after    1 cycles

  Exact polarizability:  89.781   0.042  73.058  -2.574   2.928  68.068
 Approx polarizability: 117.649  -1.120 122.316  -4.640   9.972 109.394

                      1                      2                      3
                      A                      A                      A
 Frequencies --     76.3624               109.0645               160.5261
 Red. masses --      2.8892                 3.8920                 4.4394
 Frc consts  --      0.0099                 0.0273                 0.0674
 IR Inten    --      0.5117                 1.1716                 3.4881

                      4                      5                      6
                      A                      A                      A
 Frequencies --    248.3843               301.1424               349.0625
 Red. masses --      3.9183                 2.1549                 2.2787
 Frc consts  --      0.1424                 0.1151                 0.1636
 IR Inten    --      6.9389                 4.6130                13.7815

                      7                      8                      9
                      A                      A                      A
 Frequencies --    400.3760               507.7947               526.3949
 Red. masses --      3.7787                 2.6433                 3.1558
 Frc consts  --      0.3569                 0.4016                 0.5152
 IR Inten    --      4.3009                38.4461                21.1682

                     10                     11                     12
                      A                      A                      A
 Frequencies --    588.6631               640.8534               695.7911
 Red. masses --      2.5608                 2.1121                 3.0045
 Frc consts  --      0.5228                 0.5111                 0.8570
 IR Inten    --     37.2401                80.9753                84.8454

                     13                     14                     15
                      A                      A                      A
 Frequencies --    720.8014               820.3082               863.9818
 Red. masses --      3.6330                 4.7763                 4.1312
 Frc consts  --      1.1121                 1.8936                 1.8169
 IR Inten    --     27.3005                22.9976                33.3618

                     16                     17                     18
                      A                      A                      A
 Frequencies --    897.4276               900.9634               918.7480
 Red. masses --      1.9966                 4.7555                 2.8364
 Frc consts  --      0.9474                 2.2744                 1.4106
 IR Inten    --    107.5485                 7.3575                20.9110

                     19                     20                     21
                      A                      A                      A
 Frequencies --    925.2594               964.9162               976.6265
 Red. masses --      1.7001                 3.1992                 2.5725
 Frc consts  --      0.8575                 1.7550                 1.4457
 IR Inten    --     31.4807                20.6774                45.5087

                     22                     23                     24
                      A                      A                      A
 Frequencies --    987.0386              1000.3847              1033.2986
 Red. masses --      3.7448                 2.7060                 1.5122
 Frc consts  --      2.1495                 1.5955                 0.9513
 IR Inten    --     18.5784                 3.4454                 9.7996

                     25                     26                     27
                      A                      A                      A
 Frequencies --   1062.8192              1096.7270              1116.6394
 Red. masses --      2.7265                 2.6204                 2.5043
 Frc consts  --      1.8146                 1.8570                 1.8398
 IR Inten    --     22.5355                30.3441                 8.3519

                     28                     29                     30
                      A                      A                      A
 Frequencies --   1126.8566              1154.9074              1177.8993
 Red. masses --      3.1312                 3.1643                 1.4689
 Frc consts  --      2.3426                 2.4867                 1.2008
 IR Inten    --     15.3210                28.1191                11.2495

                     31                     32                     33
                      A                      A                      A
 Frequencies --   1211.0392              1252.0218              1318.5870
 Red. masses --      1.1401                 1.1630                 1.3244
 Frc consts  --      0.9852                 1.0741                 1.3567
 IR Inten    --      1.0862                 3.5417                 1.3660

                     34                     35                     36
                      A                      A                      A
 Frequencies --   1324.2462              1332.9429              1354.4828
 Red. masses --      1.2249                 1.4384                 1.2406
 Frc consts  --      1.2656                 1.5058                 1.3410
 IR Inten    --      0.8437                13.5104                 5.0522

                     37                     38                     39
                      A                      A                      A
 Frequencies --   1390.6758              1414.8241              1449.0164
 Red. masses --      1.2764                 1.5192                 1.2867
 Frc consts  --      1.4545                 1.7917                 1.5918
 IR Inten    --     29.2199                54.7313                13.8968

                     40                     41                     42
                      A                      A                      A
 Frequencies --   1504.2794              1517.5985              1542.4012
 Red. masses --      1.1475                 1.1025                 1.0895
 Frc consts  --      1.5299                 1.4961                 1.5272
 IR Inten    --      7.4093                 0.2210                 0.4493

                     43                     44                     45
                      A                      A                      A
 Frequencies --   1554.6519              1670.1417              3000.4163
 Red. masses --      1.1081                 5.9232                 1.0708
 Frc consts  --      1.5779                 9.7345                 5.6798
 IR Inten    --      3.4139                73.0807                59.7180

                     46                     47                     48
                      A                      A                      A
 Frequencies --   3064.9373              3068.5794              3120.6554
 Red. masses --      1.0659                 1.0702                 1.0943
 Frc consts  --      5.8996                 5.9373                 6.2790
 IR Inten    --     18.7788                47.6461                33.8898

                     49                     50                     51
                      A                      A                      A
 Frequencies --   3132.7228              3167.8682              3221.3190
 Red. masses --      1.1036                 1.0964                 1.0962
 Frc consts  --      6.3812                 6.4824                 6.7018
 IR Inten    --     26.7470                14.9144                10.3337

                     52                     53                     54
                      A                      A                      A
 Frequencies --   3486.7087              3490.1512              3552.9125
 Red. masses --      1.0745                 1.0756                 1.0771
 Frc consts  --      7.6963                 7.7194                 8.0106
 IR Inten    --      0.7212                13.7484                28.9803

 - Thermochemistry -
 -------------------
 Temperature   298.150 Kelvin.  Pressure   1.00000 Atm.
 Atom     1 has atomic number  6 and mass  12.00000

 Molecular mass:   142.09669 amu.
 Principal axes and moments of inertia in atomic units:
                           1         2         3
     Eigenvalues --   577.004851751.262531909.45077
           X            0.99998  -0.00417  -0.00547
           Y            0.00423   0.99993   0.01098
           Z            0.00542  -0.01100   0.99992
 This molecule is an asymmetric top.
 Rotational symmetry number  1.
 Warning -- assumption of classical behavior for rotation
           may cause significant error
 Rotational temperatures (Kelvin)      0.15011     0.04946     0.04536
 Rotational constants (GHZ):           3.12777     1.03054     0.94516
 Zero-point vibrational energy     445568.3 (Joules/Mol)
                                  106.49337 (Kcal/Mol)
 Warning -- explicit consideration of  10 degrees of freedom as
           vibrations may cause significant error
 Vibrational temperatures:    109.87   156.92   230.96   357.37   433.28
          (Kelvin)            502.22   576.05   730.60   757.36   846.95
                              922.05  1001.09  1037.07  1180.24  1243.08
                             1291.20  1296.29  1321.87  1331.24  1388.30
                             1405.15  1420.13  1439.33  1486.69  1529.16
                             1577.95  1606.60  1621.30  1661.65  1694.73
                             1742.42  1801.38  1897.15  1905.29  1917.81
                             1948.80  2000.87  2035.62  2084.81  2164.32
                             2183.49  2219.17  2236.80  2402.96  4316.93
                             4409.76  4415.00  4489.93  4507.29  4557.86
                             4634.76  5016.60  5021.55  5111.85

 Zero-point correction=                           0.169708 (Hartree/Particle)
 Thermal correction to Energy=                    0.177971
 Thermal correction to Enthalpy=                  0.178915
 Thermal correction to Gibbs Free Energy=         0.136356
 Sum of electronic and zero-point Energies=           -486.668274
 Sum of electronic and thermal Energies=              -486.660011
 Sum of electronic and thermal Enthalpies=            -486.659066
 Sum of electronic and thermal Free Energies=         -486.701625

                     E (Thermal)             CV                S
                      KCal/Mol        Cal/Mol-Kelvin    Cal/Mol-Kelvin
 Total                  111.679             32.431             89.573
 Electronic               0.000              0.000              0.000
 Translational            0.889              2.981             40.765
 Rotational               0.889              2.981             29.047
 Vibrational            109.901             26.470             19.761
 Vibration     1          0.599              1.965              3.982
 Vibration     2          0.606              1.942              3.285
 Vibration     3          0.622              1.891              2.544
 Vibration     4          0.662              1.765              1.742
 Vibration     5          0.693              1.672              1.411
 Vibration     6          0.726              1.577              1.170
 Vibration     7          0.766              1.469              0.961
 Vibration     8          0.863              1.233              0.639
 Vibration     9          0.881              1.192              0.595
 Vibration    10          0.946              1.056              0.470

                           ! Non-Optimized Parameters !

 1\1\GINC-NODE308\Freq\RB3LYP\6-31G(d)\C4H10N6\VSC10255\08-Dec-2020\0\\
 #N Geom=AllCheck Guess=TCheck SCRF=Check GenChk RB3LYP/6-31G(d) Freq\\
 CID_67768254_JID_661_neutraal\\0,1\C,-0.785332619,-0.9272271979,-0.432
 5217805\N,-1.08521587,0.3017858302,0.2893646054\C,0.0912869747,1.11881
 8921,0.0406433585\N,1.2620049448,0.1930347429,-0.1106449432\N,0.642266
 5371,-1.1622053671,-0.1385001757\N,2.0406381539,0.6039478471,-1.241178
 67\C,1.7335612394,-0.0361769628,-2.5574555443\N,2.5288742011,-1.269407
 914,-2.6477877387\C,3.4439016529,-1.102589307,-1.7627795307\N,3.387356

 Normal termination of Gaussian 16 at Tue Dec  8 13:04:05 2020.

 ----------------------------------------------------------------------
 # B3LYP/6-311++G(d,p) empiricaldispersion=gd3bj scf=xqc pop=npa geom=c
 heck
 ----------------------------------------------------------------------

 -------------------------------------
 CID_67768254_JID_661_Energie_neutraal
 -------------------------------------
 Structure from the checkpoint file:  "JID_661.chk"
 Charge =  0 Multiplicity = 1

 SCF Done:  E(RB3LYP) =  -486.982307702     A.U. after   14 cycles
 Normal termination of Gaussian 16 at Tue Dec  8 13:06:25 2020.

 ----------------------------------------------------------------------
 # B3LYP/6-311++G(d,p) empiricaldispersion=gd3bj scf=xqc pop=npa geom=c
 heck
 ----------------------------------------------------------------------

 -----------------------------------
 CID_67768254_JID_661_Energie_kation
 -----------------------------------
 Structure from the checkpoint file:  "JID_661.chk"
 Charge =  1 Multiplicity = 2

 SCF Done:  E(UB3LYP) =  -486.688321940     A.U. after   22 cycles
 Normal termination of Gaussian 16 at Tue Dec  8 13:11:17 2020.
 Gaussian 16:  ES64L-G16RevA.03 25-Dec-2016

 ----------------------------------
 CID_67768254_JID_661_Energie_anion
 ----------------------------------
 Structure from the checkpoint file:  "JID_661.chk"
 Charge = -1 Multiplicity = 2

                         Standard orientation:
 ---------------------------------------------------------------------
 Center     Atomic      Atomic             Coordinates (Angstroms)
 Number     Number       Type             X           Y           Z
 ---------------------------------------------------------------------
      1          6           0       -1.906508    1.166335   -0.082949
      2          7           0       -2.705735   -0.033390    0.125424
      3          6           0       -1.699646   -1.055615    0.362922
      4          7           0       -0.474531   -0.674755   -0.414628
      5          7           0       -0.783582    0.694045   -0.917024
      6          7           0        0.679617   -0.845190    0.417310
      7          6           0        1.152790    0.344774    1.189795
      8          7           0        2.073071    1.098061    0.325398
      9          6           0        2.405862    0.245318   -0.574838
     10          7           0        1.825210   -1.014156   -0.462686
     11          1           0       -1.608316    1.565469    0.899417
     12          1           0       -2.475075    1.933458   -0.615000
     13          1           0       -3.173646   -0.244734   -0.755125
     14          1           0       -2.056639   -2.036830    0.042587
     15          1           0       -1.444972   -1.103528    1.427534
     16          1           0        0.058176    1.260752   -0.813885
     17          1           0        0.310763    0.944597    1.534588
     18          1           0        1.704651   -0.030176    2.059852
     19          1           0        3.132412    0.437048   -1.359361
     20          1           0        1.539315   -1.503221   -1.306746
 ---------------------------------------------------------------------

 SCF Done:  E(UB3LYP) =  -486.965574135     A.U. after   33 cycles
 SCF Done:  E(UB3LYP) =  -486.965574135     a.u. after    1 cycles

 The electronic state is 2-A.
 Alpha  occ. eigenvalues --  -14.27481 -14.25889 -14.25573 -14.22269 -14.20792
 Alpha  occ. eigenvalues --  -14.20104 -10.14052 -10.12726 -10.12031 -10.12004
 Alpha  occ. eigenvalues --   -0.96100  -0.89140  -0.81059  -0.77193  -0.73522
 Alpha  occ. eigenvalues --   -0.67585  -0.57075  -0.53599  -0.51204  -0.50441
 Alpha  occ. eigenvalues --   -0.46686  -0.42675  -0.42039  -0.37082  -0.35900
 Alpha  occ. eigenvalues --   -0.34530  -0.33032  -0.32025  -0.31183  -0.29755
 Alpha  occ. eigenvalues --   -0.28485  -0.26699  -0.21403  -0.20634  -0.17241
 Alpha  occ. eigenvalues --   -0.16016  -0.13092  -0.10737   0.04786
 Alpha virt. eigenvalues --    0.06896   0.07737   0.08073   0.09418   0.10099
 Alpha virt. eigenvalues --    0.10257   0.11275   0.11485   0.12641   0.14526
 Alpha virt. eigenvalues --    0.15377   0.15669   0.15979   0.16663   0.17584

  Beta  occ. eigenvalues --  -14.27482 -14.25888 -14.25544 -14.22256 -14.20768
  Beta  occ. eigenvalues --  -14.20106 -10.14022 -10.12701 -10.11999 -10.11980
  Beta  occ. eigenvalues --   -0.96084  -0.89114  -0.81035  -0.77154  -0.73486
  Beta  occ. eigenvalues --   -0.67548  -0.57024  -0.53518  -0.51151  -0.50383
  Beta  occ. eigenvalues --   -0.46636  -0.42627  -0.41965  -0.37035  -0.35867
  Beta  occ. eigenvalues --   -0.34485  -0.32990  -0.31988  -0.31144  -0.29712
  Beta  occ. eigenvalues --   -0.28427  -0.26654  -0.21383  -0.20616  -0.17223
  Beta  occ. eigenvalues --   -0.15990  -0.13070  -0.10711
  Beta virt. eigenvalues --    0.07276   0.08381   0.08638   0.08999   0.09560
  Beta virt. eigenvalues --    0.10708   0.11072   0.11804   0.11928   0.13023
  Beta virt. eigenvalues --    0.14868   0.15532   0.15888   0.16165   0.16880

 Mulliken charges and spin densities:
               1          2
     1  C    1.001025  -1.310421
     2  N   -0.411852   0.241326
     3  C    0.932837  -1.312895
     4  N   -0.147540   0.040068
     5  N   -0.526805   0.168020
     6  N    0.107729   0.180889
     7  C    0.515103  -0.984905
     8  N   -0.261422   0.101928
     9  C    0.869729  -0.877906
    10  N   -0.381685  -0.019842
    11  H   -0.232130   0.363777
    12  H   -0.530832   0.724468
    13  H   -0.196568   0.460828
    14  H   -0.506708   0.683441
    15  H   -0.084841   0.284498
    16  H    0.183413   0.059869
    17  H    0.301073  -0.121592
    18  H   -0.308050   0.502713
    19  H   -1.300970   1.494942
    20  H   -0.021508   0.320793
 Sum of Mulliken charges =  -1.00000   1.00000

 Dipole moment (field-independent basis, Debye):
    X=              0.1505    Y=             -0.0011    Z=              2.7463  Tot=              2.7504
 Quadrupole moment (field-independent basis, Debye-Ang):
   XX=           -125.3496   YY=            -94.8118   ZZ=            -94.5604
   XY=             -2.0096   XZ=              4.6189   YZ=              0.5539

 Summary of Natural Population Analysis:

                                       Natural Population
                Natural  -----------------------------------------------
    Atom  No    Charge         Core      Valence    Rydberg      Total
 -----------------------------------------------------------------------
      C    1   -0.00301      0.99966     1.98991    0.01344     3.00301
      N    2   -0.33264      0.99976     2.81970    0.01318     3.83264
      C    3    0.00401      0.99963     1.98189    0.01447     2.99599
      N    4   -0.11955      0.99975     2.60292    0.01689     3.61955
      N    5   -0.26766      0.99976     2.75492    0.01298     3.76766
      N    6   -0.09665      0.99975     2.58148    0.01542     3.59665
      C    7   -0.02750      0.99962     2.01476    0.01312     3.02750
      N    8   -0.27766      0.99973     2.76619    0.01174     3.77766
      C    9    0.13527      0.99964     1.84770    0.01740     2.86473
      N   10   -0.23524      0.99971     2.72163    0.01389     3.73524
      H   11    0.07621      0.00000     0.42189    0.00190     0.42379
      H   12    0.09809      0.00000     0.39989    0.00202     0.40191
      H   13    0.17775      0.00000     0.31785    0.00439     0.32225
      H   14    0.09935      0.00000     0.39856    0.00210     0.40065
      H   15    0.08931      0.00000     0.40864    0.00205     0.41069
      H   16    0.18398      0.00000     0.31241    0.00361     0.31602
      H   17    0.09914      0.00000     0.39897    0.00189     0.40086
      H   18    0.09849      0.00000     0.40009    0.00143     0.40151
      H   19    0.09908      0.00000     0.39654    0.00438     0.40092
      H   20    0.19922      0.00000     0.29563    0.00515     0.30078
 =======================================================================
   * Total *    0.00000      9.99699    27.83154    0.17147    38.00000

 Normal termination of Gaussian 16 at Tue Dec  8 13:23:55 2020.
