 Gaussian 16, Revision A.03,

 -----------------------------------------------------------
 # opt freq B3LYP/6-31G(d) empiricaldispersion=gd3bj scf=xqc
 -----------------------------------------------------------

 -------------------------------
 CID_43396509_JID_10775_neutraal
 -------------------------------
 Symbolic Z-matrix:
 Charge =  0 Multiplicity = 1

 SCF Done:  E(RB3LYP) =  -938.765398341     A.U. after   15 cycles
 SCF Done:  E(RB3LYP) =  -938.762575933     A.U. after   13 cycles
 SCF Done:  E(RB3LYP) =  -938.772239891     A.U. after   12 cycles
 SCF Done:  E(RB3LYP) =  -938.773729438     A.U. after   13 cycles
 SCF Done:  E(RB3LYP) =  -938.774625204     A.U. after   13 cycles
 SCF Done:  E(RB3LYP) =  -938.775540257     A.U. after   13 cycles
 SCF Done:  E(RB3LYP) =  -938.775851385     A.U. after   13 cycles
 SCF Done:  E(RB3LYP) =  -938.777086914     A.U. after   13 cycles
 SCF Done:  E(RB3LYP) =  -938.779005736     A.U. after   14 cycles
 SCF Done:  E(RB3LYP) =  -938.780921546     A.U. after   13 cycles
 SCF Done:  E(RB3LYP) =  -938.782507256     A.U. after    9 cycles
 SCF Done:  E(RB3LYP) =  -938.782507632     A.U. after    8 cycles
 SCF Done:  E(RB3LYP) =  -938.782509363     A.U. after    9 cycles
 SCF Done:  E(RB3LYP) =  -938.782509698     A.U. after    7 cycles
 SCF Done:  E(RB3LYP) =  -938.782509878     A.U. after    7 cycles
 Optimization completed.
    -- Stationary point found.
 Normal termination of Gaussian 16 at Sun Dec 13 22:17:14 2020.

 --------------------------------------------------------------------
 #N Geom=AllCheck Guess=TCheck SCRF=Check GenChk RB3LYP/6-31G(d) Freq
 --------------------------------------------------------------------

 Structure from the checkpoint file:  "JID_10775.chk"
 -------------------------------
 CID_43396509_JID_10775_neutraal
 -------------------------------
 Charge =  0 Multiplicity = 1

 SCF Done:  E(RB3LYP) =  -938.782509878     A.U. after    1 cycles

  Exact polarizability: 166.202  22.628 156.382 -18.949   5.422 163.550
 Approx polarizability: 226.311  49.374 254.499 -39.887   5.640 274.869

                      1                      2                      3
                      A                      A                      A
 Frequencies --     34.0027                39.0822                51.1489
 Red. masses --      5.0795                 4.9610                 5.7405
 Frc consts  --      0.0035                 0.0045                 0.0088
 IR Inten    --      0.7985                 0.5497                 0.8113

                      4                      5                      6
                      A                      A                      A
 Frequencies --     78.7941                90.3133               101.8344
 Red. masses --      5.2847                 4.3034                 4.9041
 Frc consts  --      0.0193                 0.0207                 0.0300
 IR Inten    --      0.3930                 0.5793                 0.6518

                      7                      8                      9
                      A                      A                      A
 Frequencies --    117.1256               127.1346               139.6190
 Red. masses --      3.2254                 2.2927                 5.6453
 Frc consts  --      0.0261                 0.0218                 0.0648
 IR Inten    --      7.6773                 3.2523                 1.6739

                     10                     11                     12
                      A                      A                      A
 Frequencies --    170.6958               172.3683               221.4164
 Red. masses --      3.4172                 3.6424                 2.8066
 Frc consts  --      0.0587                 0.0638                 0.0811
 IR Inten    --      0.5512                 0.5997                 0.3880

                     13                     14                     15
                      A                      A                      A
 Frequencies --    230.9319               248.9271               273.3985
 Red. masses --      2.7914                 1.9674                 2.2375
 Frc consts  --      0.0877                 0.0718                 0.0985
 IR Inten    --      0.1491                 1.4462                 1.0640

                     16                     17                     18
                      A                      A                      A
 Frequencies --    292.5624               337.0136               344.5083
 Red. masses --      3.4786                 3.0649                 3.7035
 Frc consts  --      0.1754                 0.2051                 0.2590
 IR Inten    --      1.1856                 1.0734                 0.7814

                     19                     20                     21
                      A                      A                      A
 Frequencies --    368.0955               397.7415               445.1606
 Red. masses --      3.1621                 4.5134                 3.3123
 Frc consts  --      0.2524                 0.4207                 0.3867
 IR Inten    --      1.6423                 8.8116                 5.5749

                     22                     23                     24
                      A                      A                      A
 Frequencies --    453.7651               483.0676               507.5319
 Red. masses --      3.7166                 3.2180                 3.2065
 Frc consts  --      0.4509                 0.4424                 0.4866
 IR Inten    --      6.5238                36.0869                 3.9389

                     25                     26                     27
                      A                      A                      A
 Frequencies --    539.3549               565.7937               569.6807
 Red. masses --      3.3897                 2.6784                 3.5649
 Frc consts  --      0.5810                 0.5052                 0.6817
 IR Inten    --      6.7246                10.6032                 2.2782

                     28                     29                     30
                      A                      A                      A
 Frequencies --    580.9502               591.8890               635.6775
 Red. masses --      2.5199                 3.0017                 1.5392
 Frc consts  --      0.5011                 0.6196                 0.3665
 IR Inten    --     12.4362                 0.4253               209.1580

                     31                     32                     33
                      A                      A                      A
 Frequencies --    658.6580               664.8798               726.1761
 Red. masses --      3.1104                 3.7132                 2.9438
 Frc consts  --      0.7950                 0.9671                 0.9146
 IR Inten    --     11.4825                12.2504                16.0150

                     34                     35                     36
                      A                      A                      A
 Frequencies --    742.6447               754.4461               764.2628
 Red. masses --      3.6054                 3.1288                 1.3674
 Frc consts  --      1.1716                 1.0492                 0.4706
 IR Inten    --      6.1995                23.5645                46.9463

                     37                     38                     39
                      A                      A                      A
 Frequencies --    788.2398               801.6080               809.7078
 Red. masses --      3.0304                 1.5978                 4.5065
 Frc consts  --      1.1093                 0.6049                 1.7408
 IR Inten    --     38.1824                 1.9403                11.1472

                     40                     41                     42
                      A                      A                      A
 Frequencies --    839.0032               852.5582               863.6456
 Red. masses --      2.9654                 1.9976                 1.7399
 Frc consts  --      1.2299                 0.8555                 0.7646
 IR Inten    --      1.3948                 6.8988                 1.8276

                     43                     44                     45
                      A                      A                      A
 Frequencies --    887.5846               907.9656               929.1464
 Red. masses --      3.0224                 2.2807                 3.3584
 Frc consts  --      1.4029                 1.1078                 1.7083
 IR Inten    --      1.7997                 5.3132                 1.7970

                     46                     47                     48
                      A                      A                      A
 Frequencies --    940.5418               959.5338               972.7217
 Red. masses --      1.4256                 1.8765                 1.2623
 Frc consts  --      0.7430                 1.0180                 0.7037
 IR Inten    --      2.1989                 7.0071                 0.3149

                     49                     50                     51
                      A                      A                      A
 Frequencies --    974.8308              1041.9470              1051.2589
 Red. masses --      2.1453                 1.8415                 2.5828
 Frc consts  --      1.2012                 1.1779                 1.6818
 IR Inten    --      1.6889                 0.7545                 0.7689

                     52                     53                     54
                      A                      A                      A
 Frequencies --   1069.4726              1074.3402              1082.9068
 Red. masses --      3.8728                 1.8294                 2.5281
 Frc consts  --      2.6098                 1.2441                 1.7467
 IR Inten    --     22.6133                 2.1864                23.3601

                     55                     56                     57
                      A                      A                      A
 Frequencies --   1095.0711              1141.4431              1147.2202
 Red. masses --      2.6064                 3.0149                 1.9359
 Frc consts  --      1.8415                 2.3144                 1.5012
 IR Inten    --      5.1347                24.9730                64.2646

                     58                     59                     60
                      A                      A                      A
 Frequencies --   1170.1496              1186.8034              1193.5631
 Red. masses --      1.9111                 1.2690                 1.4565
 Frc consts  --      1.5417                 1.0531                 1.2225
 IR Inten    --     37.7163                 0.1220                58.3135

                     61                     62                     63
                      A                      A                      A
 Frequencies --   1197.9010              1217.8215              1236.5291
 Red. masses --      1.1427                 1.4856                 1.4420
 Frc consts  --      0.9661                 1.2982                 1.2991
 IR Inten    --     28.4735                20.1852                 4.7770

                     64                     65                     66
                      A                      A                      A
 Frequencies --   1244.6794              1252.7960              1277.2600
 Red. masses --      1.6627                 1.6674                 1.2917
 Frc consts  --      1.5176                 1.5419                 1.2416
 IR Inten    --     11.8354                43.3914                 6.6530

                     67                     68                     69
                      A                      A                      A
 Frequencies --   1301.4130              1310.1653              1325.4558
 Red. masses --      1.6722                 2.6820                 1.5835
 Frc consts  --      1.6686                 2.7124                 1.6391
 IR Inten    --     27.5063               125.1906                11.7155

                     70                     71                     72
                      A                      A                      A
 Frequencies --   1326.9585              1342.1813              1344.9364
 Red. masses --      1.3462                 1.3455                 1.3436
 Frc consts  --      1.3966                 1.4281                 1.4319
 IR Inten    --      3.1760                 1.1298                 1.3214

                     73                     74                     75
                      A                      A                      A
 Frequencies --   1358.8444              1367.2732              1373.4474
 Red. masses --      3.2566                 1.8893                 1.5999
 Frc consts  --      3.5429                 2.0810                 1.7781
 IR Inten    --     41.5417                15.5454                29.9770

                     76                     77                     78
                      A                      A                      A
 Frequencies --   1393.7257              1413.6922              1465.6250
 Red. masses --      2.2862                 1.9267                 1.7311
 Frc consts  --      2.6165                 2.2687                 2.1909
 IR Inten    --    112.0759                60.7937                53.2497

                     79                     80                     81
                      A                      A                      A
 Frequencies --   1494.5105              1512.1635              1513.8656
 Red. masses --      1.3759                 1.4529                 1.3437
 Frc consts  --      1.8106                 1.9574                 1.8144
 IR Inten    --     11.0241                 1.3738                18.7697

                     82                     83                     84
                      A                      A                      A
 Frequencies --   1517.5361              1523.0682              1524.0153
 Red. masses --      1.0763                 1.0901                 1.0494
 Frc consts  --      1.4603                 1.4899                 1.4361
 IR Inten    --      5.5596                12.3990                 7.2347

                     85                     86                     87
                      A                      A                      A
 Frequencies --   1530.5928              1532.9249              1551.8808
 Red. masses --      1.0795                 1.0830                 1.1152
 Frc consts  --      1.4900                 1.4994                 1.5824
 IR Inten    --     15.2272                17.4919                 1.7348

                     88                     89                     90
                      A                      A                      A
 Frequencies --   1559.1247              1647.7285              1662.1660
 Red. masses --      2.6950                 6.4817                 6.0941
 Frc consts  --      3.8599                10.3684                 9.9199
 IR Inten    --    105.8175                 1.6835                23.5499

                     91                     92                     93
                      A                      A                      A
 Frequencies --   1781.6904              1829.7383              3037.1105
 Red. masses --      8.0682                 9.5630                 1.0346
 Frc consts  --     15.0901                18.8635                 5.6227
 IR Inten    --    373.1630               172.0754                48.4659

                     94                     95                     96
                      A                      A                      A
 Frequencies --   3058.0263              3064.3620              3074.9935
 Red. masses --      1.0672                 1.0614                 1.0664
 Frc consts  --      5.8801                 5.8724                 5.9408
 IR Inten    --     15.9924                27.2221                36.3793

                     97                     98                     99
                      A                      A                      A
 Frequencies --   3091.6307              3103.6295              3103.8916
 Red. masses --      1.0656                 1.0928                 1.1052
 Frc consts  --      6.0011                 6.2020                 6.2735
 IR Inten    --     10.8147                11.1225                48.1647

                    100                    101                    102
                      A                      A                      A
 Frequencies --   3104.4432              3120.0110              3125.5291
 Red. masses --      1.0644                 1.1012                 1.1031
 Frc consts  --      6.0440                 6.3157                 6.3491
 IR Inten    --      9.4941                15.5876                34.0108

                    103                    104                    105
                      A                      A                      A
 Frequencies --   3146.4803              3155.6231              3166.8358
 Red. masses --      1.1025                 1.1047                 1.1011
 Frc consts  --      6.4311                 6.4816                 6.5064
 IR Inten    --     16.1728                 9.8740                17.4525

                    106                    107                    108
                      A                      A                      A
 Frequencies --   3193.4503              3206.6594              3220.4543
 Red. masses --      1.0866                 1.0898                 1.0933
 Frc consts  --      6.5291                 6.6024                 6.6809
 IR Inten    --      3.7392                11.3163                17.4065

                    109                    110                    111
                      A                      A                      A
 Frequencies --   3226.0851              3570.0049              3677.0964
 Red. masses --      1.0949                 1.0746                 1.0637
 Frc consts  --      6.7139                 8.0693                 8.4742
 IR Inten    --      7.8365                28.2793                32.9238

 - Thermochemistry -
 -------------------
 Temperature   298.150 Kelvin.  Pressure   1.00000 Atm.
 Atom     1 has atomic number  6 and mass  12.00000

 Molecular mass:   277.13141 amu.
 Principal axes and moments of inertia in atomic units:
                           1         2         3
     Eigenvalues --  3633.137175913.579476225.65449
           X            1.00000   0.00131   0.00171
           Y           -0.00165   0.97634   0.21623
           Z           -0.00139  -0.21623   0.97634
 This molecule is an asymmetric top.
 Rotational symmetry number  1.
 Warning -- assumption of classical behavior for rotation
           may cause significant error
 Rotational temperatures (Kelvin)      0.02384     0.01465     0.01391
 Rotational constants (GHZ):           0.49674     0.30519     0.28989
 Zero-point vibrational energy     859396.9 (Joules/Mol)
                                  205.40079 (Kcal/Mol)
 Warning -- explicit consideration of  29 degrees of freedom as
           vibrations may cause significant error
 Vibrational temperatures:     48.92    56.23    73.59   113.37   129.94
          (Kelvin)            146.52   168.52   182.92   200.88   245.59
                              248.00   318.57   332.26   358.15   393.36
                              420.93   484.89   495.67   529.61   572.26
                              640.49   652.87   695.03   730.23   776.01
                              814.05   819.64   835.86   851.60   914.60
                              947.66   956.61  1044.81  1068.50  1085.48
                             1099.60  1134.10  1153.34  1164.99  1207.14
                             1226.64  1242.59  1277.04  1306.36  1336.83
                             1353.23  1380.56  1399.53  1402.56  1499.13
                             1512.53  1538.73  1545.74  1558.06  1575.56
                             1642.28  1650.59  1683.58  1707.55  1717.27
                             1723.51  1752.17  1779.09  1790.82  1802.49
                             1837.69  1872.44  1885.04  1907.04  1909.20
                             1931.10  1935.06  1955.07  1967.20  1976.08
                             2005.26  2033.99  2108.71  2150.27  2175.67
                             2178.11  2183.40  2191.36  2192.72  2202.18
                             2205.54  2232.81  2243.23  2370.71  2391.49
                             2563.46  2632.59  4369.72  4399.82  4408.93
                             4424.23  4448.17  4465.43  4465.81  4466.60
                             4489.00  4496.94  4527.08  4540.24  4556.37
                             4594.66  4613.67  4633.52  4641.62  5136.44
                             5290.52

 Zero-point correction=                           0.327327 (Hartree/Particle)
 Thermal correction to Energy=                    0.345973
 Thermal correction to Enthalpy=                  0.346917
 Thermal correction to Gibbs Free Energy=         0.280237
 Sum of electronic and zero-point Energies=           -938.455183
 Sum of electronic and thermal Energies=              -938.436537
 Sum of electronic and thermal Enthalpies=            -938.435593
 Sum of electronic and thermal Free Energies=         -938.502273

                     E (Thermal)             CV                S
                      KCal/Mol        Cal/Mol-Kelvin    Cal/Mol-Kelvin
 Total                  217.101             71.924            140.340
 Electronic               0.000              0.000              0.000
 Translational            0.889              2.981             42.756
 Rotational               0.889              2.981             33.258
 Vibrational            215.324             65.962             64.325
 Vibration     1          0.594              1.983              5.581
 Vibration     2          0.594              1.981              5.305
 Vibration     3          0.595              1.977              4.772
 Vibration     4          0.600              1.963              3.921
 Vibration     5          0.602              1.956              3.653
 Vibration     6          0.604              1.948              3.419
 Vibration     7          0.608              1.935              3.147
 Vibration     8          0.611              1.926              2.989
 Vibration     9          0.615              1.914              2.809
 Vibration    10          0.626              1.879              2.428
 Vibration    11          0.626              1.876              2.410
 Vibration    12          0.648              1.808              1.947
 Vibration    13          0.653              1.794              1.872
 Vibration    14          0.662              1.765              1.738
 Vibration    15          0.676              1.722              1.575
 Vibration    16          0.688              1.688              1.459
 Vibration    17          0.718              1.602              1.226
 Vibration    18          0.723              1.586              1.191
 Vibration    19          0.741              1.538              1.088
 Vibration    20          0.764              1.475              0.971
 Vibration    21          0.805              1.372              0.811
 Vibration    22          0.812              1.353              0.784
 Vibration    23          0.839              1.288              0.702
 Vibration    24          0.863              1.233              0.640
 Vibration    25          0.894              1.163              0.567
 Vibration    26          0.922              1.105              0.512
 Vibration    27          0.926              1.097              0.505
 Vibration    28          0.938              1.073              0.484
 Vibration    29          0.949              1.049              0.464

 Optimization completed.
    -- Stationary point found.
 Normal termination of Gaussian 16 at Sun Dec 13 22:42:14 2020.

 ----------------------------------------------------------------------
 # B3LYP/6-311++G(d,p) empiricaldispersion=gd3bj scf=xqc pop=npa geom=c
 heck
 ----------------------------------------------------------------------

 ---------------------------------------
 CID_43396509_JID_10775_Energie_neutraal
 ---------------------------------------
 Structure from the checkpoint file:  "JID_10775.chk"
 Charge =  0 Multiplicity = 1

 SCF Done:  E(RB3LYP) =  -939.053757531     A.U. after   16 cycles
 Normal termination of Gaussian 16 at Sun Dec 13 22:52:04 2020.

 ----------------------------------------------------------------------
 # B3LYP/6-311++G(d,p) empiricaldispersion=gd3bj scf=xqc pop=npa geom=c
 heck
 ----------------------------------------------------------------------

 -------------------------------------
 CID_43396509_JID_10775_Energie_kation
 -------------------------------------
 Structure from the checkpoint file:  "JID_10775.chk"
 Charge =  1 Multiplicity = 2

 SCF Done:  E(UB3LYP) =  -938.756727277     A.U. after   27 cycles
 Normal termination of Gaussian 16 at Sun Dec 13 23:14:13 2020.
 Gaussian 16:  ES64L-G16RevA.03 25-Dec-2016

 ----------------------------------------------------------------------
 # B3LYP/6-311++G(d,p) empiricaldispersion=gd3bj scf=xqc pop=npa geom=c
 heck
 ----------------------------------------------------------------------

 ------------------------------------
 CID_43396509_JID_10775_Energie_anion
 ------------------------------------
 Structure from the checkpoint file:  "JID_10775.chk"
 Charge = -1 Multiplicity = 2

                         Standard orientation:
 ---------------------------------------------------------------------
 Center     Atomic      Atomic             Coordinates (Angstroms)
 Number     Number       Type             X           Y           Z
 ---------------------------------------------------------------------
      1          6           0        1.631086    1.429915    2.716570
      2          8           0        1.498612    0.218105    1.987860
      3          6           0        2.007508    0.173605    0.724610
      4          6           0        2.790263    1.173578    0.142099
      5          6           0        3.239061    1.023336   -1.173297
      6          6           0        2.931293   -0.121219   -1.903699
      7          6           0        2.170298   -1.128329   -1.311035
      8          6           0        1.686571   -0.984081   -0.013356
      9          7           0        0.892551   -1.988278    0.597248
     10          6           0       -0.435243   -2.278573    0.354814
     11          8           0       -1.033780   -3.054338    1.088441
     12          6           0       -1.139451   -1.595512   -0.810925
     13          6           0       -1.674218   -0.175037   -0.463894
     14          6           0       -3.031015    0.111804   -1.169894
     15          6           0       -3.598408    1.325462   -0.417335
     16          6           0       -3.118826    1.148799    1.050921
     17          6           0       -2.051826    0.025078    1.020977
     18          6           0       -0.699927    0.872194   -1.001118
     19          8           0       -0.242907    0.867257   -2.123460
     20          8           0       -0.428197    1.882919   -0.133277
     21          1           0        1.160381    2.260449    2.177801
     22          1           0        2.683804    1.665720    2.917140
     23          1           0        1.110793    1.266365    3.661200
     24          1           0        3.044659    2.067954    0.699039
     25          1           0        3.838831    1.810773   -1.620563
     26          1           0        3.281828   -0.234120   -2.924119
     27          1           0        1.930197   -2.037701   -1.852548
     28          1           0        1.180972   -2.298517    1.518835
     29          1           0       -0.515254   -1.534340   -1.704243
     30          1           0       -1.991674   -2.241160   -1.031578
     31          1           0       -2.916137    0.266439   -2.246640
     32          1           0       -3.673999   -0.763609   -1.019165
     33          1           0       -4.687545    1.388123   -0.503402
     34          1           0       -3.191441    2.251046   -0.839578
     35          1           0       -3.947500    0.872929    1.710694
     36          1           0       -2.698591    2.082199    1.434067
     37          1           0       -2.476302   -0.916619    1.381047
     38          1           0       -1.178053    0.238959    1.639887
     39          1           0        0.204346    2.455397   -0.607746
 ---------------------------------------------------------------------

 SCF Done:  E(UB3LYP) =  -939.045391249     A.U. after   33 cycles
 SCF Done:  E(UB3LYP) =  -939.045391537     a.u. after    2 cycles

 The electronic state is 2-A.
 Alpha  occ. eigenvalues --  -19.07399 -19.06767 -19.02132 -19.00547 -14.25560
 Alpha  occ. eigenvalues --  -10.21280 -10.19143 -10.15039 -10.12623 -10.12330
 Alpha  occ. eigenvalues --  -10.11721 -10.09629 -10.09232 -10.09026 -10.08819
 Alpha  occ. eigenvalues --  -10.08371 -10.08343 -10.08105 -10.07502 -10.07442
 Alpha  occ. eigenvalues --   -1.01688  -0.98482  -0.95715  -0.92658  -0.84804
 Alpha  occ. eigenvalues --   -0.76959  -0.76157  -0.68435  -0.66923  -0.66140
 Alpha  occ. eigenvalues --   -0.62832  -0.61119  -0.60709  -0.55374  -0.54182
 Alpha  occ. eigenvalues --   -0.51194  -0.49899  -0.48177  -0.46972  -0.45784
 Alpha  occ. eigenvalues --   -0.42589  -0.41481  -0.40740  -0.40360  -0.39481
 Alpha  occ. eigenvalues --   -0.38264  -0.37763  -0.37459  -0.36683  -0.35437
 Alpha  occ. eigenvalues --   -0.35297  -0.33878  -0.33241  -0.32870  -0.31916
 Alpha  occ. eigenvalues --   -0.31453  -0.29989  -0.29132  -0.28544  -0.27821
 Alpha  occ. eigenvalues --   -0.26981  -0.25923  -0.25591  -0.25190  -0.24818
 Alpha  occ. eigenvalues --   -0.24577  -0.23682  -0.23348  -0.22629  -0.19850
 Alpha  occ. eigenvalues --   -0.18817  -0.17705  -0.15933  -0.13665   0.04099
 Alpha virt. eigenvalues --    0.05851   0.06253   0.06870   0.07391   0.07998
 Alpha virt. eigenvalues --    0.08149   0.08343   0.08936   0.09002   0.09353
 Alpha virt. eigenvalues --    0.09603   0.09915   0.10817   0.11062   0.11278

  Beta  occ. eigenvalues --  -19.07356 -19.06755 -19.02121 -19.00539 -14.25560
  Beta  occ. eigenvalues --  -10.21277 -10.19135 -10.15039 -10.12622 -10.12268
  Beta  occ. eigenvalues --  -10.11716 -10.09626 -10.09223 -10.09021 -10.08799
  Beta  occ. eigenvalues --  -10.08343 -10.08338 -10.08093 -10.07491 -10.07438
  Beta  occ. eigenvalues --   -1.01638  -0.98457  -0.95699  -0.92614  -0.84798
  Beta  occ. eigenvalues --   -0.76946  -0.76135  -0.68417  -0.66892  -0.66105
  Beta  occ. eigenvalues --   -0.62816  -0.61088  -0.60644  -0.55322  -0.54153
  Beta  occ. eigenvalues --   -0.51146  -0.49872  -0.48144  -0.46921  -0.45751
  Beta  occ. eigenvalues --   -0.42543  -0.41463  -0.40720  -0.40330  -0.39455
  Beta  occ. eigenvalues --   -0.38242  -0.37727  -0.37424  -0.36660  -0.35395
  Beta  occ. eigenvalues --   -0.35275  -0.33848  -0.33215  -0.32837  -0.31884
  Beta  occ. eigenvalues --   -0.31434  -0.29966  -0.29096  -0.28519  -0.27786
  Beta  occ. eigenvalues --   -0.26963  -0.25906  -0.25571  -0.25167  -0.24780
  Beta  occ. eigenvalues --   -0.24546  -0.23656  -0.23330  -0.22596  -0.19828
  Beta  occ. eigenvalues --   -0.18785  -0.17693  -0.15905  -0.13649
  Beta virt. eigenvalues --    0.05906   0.06200   0.06908   0.07454   0.07870
  Beta virt. eigenvalues --    0.08156   0.08268   0.08597   0.09057   0.09256
  Beta virt. eigenvalues --    0.09519   0.10055   0.10252   0.11198   0.11223

 Mulliken charges and spin densities:
               1          2
     1  C    1.351963  -1.665282
     2  O   -0.042392  -0.005137
     3  C   -1.959555   1.468538
     4  C    1.235253  -1.145025
     5  C    1.377185  -1.514486
     6  C    0.309612  -0.662378
     7  C   -0.064102   0.128000
     8  C   -0.737225   0.589990
     9  N   -0.081706  -0.009417
    10  C   -0.429671   0.063473
    11  O   -0.286678   0.005285
    12  C   -0.168044  -0.016225
    13  C    1.098841   0.360035
    14  C    0.124469  -0.327593
    15  C   -0.627275   0.171922
    16  C    0.406012  -0.975973
    17  C   -0.689615   0.296755
    18  C   -0.613086  -0.521551
    19  O   -0.162238   0.035770
    20  O    0.050667  -0.008321
    21  H   -0.212792   0.401724
    22  H   -0.462296   0.619541
    23  H   -0.408779   0.565228
    24  H   -0.826612   1.034964
    25  H   -0.691235   0.884587
    26  H    0.065517   0.092691
    27  H    0.088644   0.079651
    28  H    0.318867   0.008623
    29  H    0.278576  -0.069593
    30  H    0.139190   0.050894
    31  H    0.109048   0.079531
    32  H    0.171588  -0.026580
    33  H   -0.081214   0.246631
    34  H    0.075068   0.102433
    35  H    0.101302   0.028996
    36  H   -0.095122   0.281459
    37  H    0.100646   0.082273
    38  H    0.489997  -0.262910
    39  H   -0.252809   0.531475
 Sum of Mulliken charges =  -1.00000   1.00000

 Dipole moment (field-independent basis, Debye):
    X=             -4.5712    Y=             -7.1526    Z=             -3.2904  Tot=              9.1039
 Quadrupole moment (field-independent basis, Debye-Ang):
   XX=           -177.7823   YY=           -183.0512   ZZ=           -163.7008
   XY=            -20.8709   XZ=             -2.0403   YZ=             -1.5781

 Summary of Natural Population Analysis:

                                       Natural Population
                Natural  -----------------------------------------------
    Atom  No    Charge         Core      Valence    Rydberg      Total
 -----------------------------------------------------------------------
      C    1   -0.10143      0.99959     2.09238    0.00946     3.10143
      O    2   -0.27326      0.99986     3.26456    0.00884     4.27326
      C    3    0.16078      0.99934     1.82477    0.01510     2.83922
      C    4   -0.14154      0.99951     2.13046    0.01157     3.14154
      C    5   -0.08491      0.99957     2.07405    0.01130     3.08491
      C    6   -0.10927      0.99955     2.09974    0.00998     3.10927
      C    7   -0.09178      0.99952     2.08321    0.00906     3.09178
      C    8    0.03617      0.99942     1.95185    0.01256     2.96383
      N    9   -0.31538      0.99963     2.80597    0.00977     3.81538
      C   10    0.35223      0.99966     1.62508    0.02303     2.64777
      O   11   -0.32128      0.99988     3.31571    0.00570     4.32128
      C   12   -0.22968      0.99954     2.22164    0.00850     3.22968
      C   13   -0.07467      0.99950     2.06257    0.01261     3.07467
      C   14   -0.18002      0.99960     2.17308    0.00733     3.18002
      C   15   -0.19631      0.99964     2.18914    0.00754     3.19631
      C   16   -0.19236      0.99965     2.18483    0.00789     3.19236
      C   17   -0.20084      0.99961     2.19195    0.00929     3.20084
      C   18    0.41267      0.99961     1.55935    0.02838     2.58733
      O   19   -0.30851      0.99987     3.30247    0.00618     4.30851
      O   20   -0.34699      0.99988     3.33837    0.00875     4.34699
      H   21    0.09422      0.00000     0.40280    0.00297     0.40578
      H   22    0.08781      0.00000     0.40999    0.00221     0.41219
      H   23    0.09400      0.00000     0.40478    0.00123     0.40600
      H   24    0.11605      0.00000     0.37933    0.00462     0.38395
      H   25    0.10557      0.00000     0.39277    0.00166     0.39443
      H   26    0.10161      0.00000     0.39763    0.00076     0.39839
      H   27    0.10266      0.00000     0.39646    0.00087     0.39734
      H   28    0.19932      0.00000     0.29829    0.00240     0.30068
      H   29    0.12021      0.00000     0.37869    0.00110     0.37979
      H   30    0.11075      0.00000     0.38814    0.00111     0.38925
      H   31    0.10754      0.00000     0.39160    0.00086     0.39246
      H   32    0.09634      0.00000     0.40259    0.00106     0.40366
      H   33    0.09917      0.00000     0.40002    0.00081     0.40083
      H   34    0.10053      0.00000     0.39822    0.00125     0.39947
      H   35    0.09545      0.00000     0.40370    0.00084     0.40455
      H   36    0.10613      0.00000     0.39270    0.00117     0.39387
      H   37    0.10631      0.00000     0.39239    0.00129     0.39369
      H   38    0.11458      0.00000     0.38324    0.00218     0.38542
      H   39    0.24814      0.00000     0.24467    0.00718     0.25186
 =======================================================================
   * Total *    0.00000     19.99242    53.74919    0.25839    74.00000

 Normal termination of Gaussian 16 at Mon Dec 14 00:01:28 2020.
