 Gaussian 16, Revision A.03,

 -----------------------------------------------------------
 # opt freq B3LYP/6-31G(d) empiricaldispersion=gd3bj scf=xqc
 -----------------------------------------------------------

 ------------------------------
 CID_57887298_JID_3038_neutraal
 ------------------------------
 Symbolic Z-matrix:
 Charge =  0 Multiplicity = 1

 SCF Done:  E(RB3LYP) =  -613.994684085     A.U. after   15 cycles
 SCF Done:  E(RB3LYP) =  -613.997043207     A.U. after   13 cycles
 SCF Done:  E(RB3LYP) =  -613.998754180     A.U. after   13 cycles
 SCF Done:  E(RB3LYP) =  -613.998751384     A.U. after   13 cycles
 SCF Done:  E(RB3LYP) =  -613.999170065     A.U. after   12 cycles
 SCF Done:  E(RB3LYP) =  -613.999851290     A.U. after   12 cycles
 SCF Done:  E(RB3LYP) =  -613.999874054     A.U. after   11 cycles
 SCF Done:  E(RB3LYP) =  -613.999914569     A.U. after   11 cycles
 SCF Done:  E(RB3LYP) =  -613.999926790     A.U. after   10 cycles
 SCF Done:  E(RB3LYP) =  -613.999934539     A.U. after    9 cycles
 SCF Done:  E(RB3LYP) =  -614.000192753     A.U. after    7 cycles
 SCF Done:  E(RB3LYP) =  -614.000224026     A.U. after   11 cycles
 SCF Done:  E(RB3LYP) =  -614.000232457     A.U. after   10 cycles
 SCF Done:  E(RB3LYP) =  -614.000234142     A.U. after    8 cycles
 SCF Done:  E(RB3LYP) =  -614.000234245     A.U. after    9 cycles
 SCF Done:  E(RB3LYP) =  -614.000234407     A.U. after    8 cycles
 Optimization completed.
    -- Stationary point found.
 Normal termination of Gaussian 16 at Wed Dec  9 22:31:01 2020.

 --------------------------------------------------------------------
 #N Geom=AllCheck Guess=TCheck SCRF=Check GenChk RB3LYP/6-31G(d) Freq
 --------------------------------------------------------------------

 Structure from the checkpoint file:  "JID_3038.chk"
 ------------------------------
 CID_57887298_JID_3038_neutraal
 ------------------------------
 Charge =  0 Multiplicity = 1

 SCF Done:  E(RB3LYP) =  -614.000234407     A.U. after    1 cycles

  Exact polarizability: 158.543  13.235 120.257  -7.169   6.971  66.368
 Approx polarizability: 226.945  29.010 214.268 -14.629  20.912  99.104

                      1                      2                      3
                      A                      A                      A
 Frequencies --     44.8513                49.2000                55.8526
 Red. masses --      1.6139                 1.4991                 4.2211
 Frc consts  --      0.0019                 0.0021                 0.0078
 IR Inten    --      1.3965                 0.2014                 0.3600

                      4                      5                      6
                      A                      A                      A
 Frequencies --    109.1355               127.8152               168.3070
 Red. masses --      4.8220                 2.6595                 1.9003
 Frc consts  --      0.0338                 0.0256                 0.0317
 IR Inten    --      0.1346                 4.5192                 0.7571

                      7                      8                      9
                      A                      A                      A
 Frequencies --    202.0382               227.2931               266.6106
 Red. masses --      2.0258                 4.6211                 3.7104
 Frc consts  --      0.0487                 0.1407                 0.1554
 IR Inten    --      0.2245                 0.3934                 6.2283

                     10                     11                     12
                      A                      A                      A
 Frequencies --    282.2285               330.3688               375.1448
 Red. masses --      4.5759                 3.2484                 4.1684
 Frc consts  --      0.2147                 0.2089                 0.3456
 IR Inten    --      6.6361                 3.1242                 2.5206

                     13                     14                     15
                      A                      A                      A
 Frequencies --    408.0241               452.8681               477.2868
 Red. masses --      2.9521                 3.2972                 4.1786
 Frc consts  --      0.2896                 0.3984                 0.5608
 IR Inten    --      2.4914                 6.0680                 9.4920

                     16                     17                     18
                      A                      A                      A
 Frequencies --    511.7708               562.3293               581.1242
 Red. masses --      4.7210                 6.4077                 4.9667
 Frc consts  --      0.7285                 1.1938                 0.9882
 IR Inten    --      2.9284                23.7601                 0.9456

                     19                     20                     21
                      A                      A                      A
 Frequencies --    607.3889               667.1577               708.2913
 Red. masses --      3.8868                 5.5700                 4.0217
 Frc consts  --      0.8448                 1.4607                 1.1887
 IR Inten    --      5.1352                 4.4712                29.8107

                     22                     23                     24
                      A                      A                      A
 Frequencies --    750.5009               755.1513               820.6704
 Red. masses --      3.4683                 6.2396                 1.2460
 Frc consts  --      1.1510                 2.0964                 0.4944
 IR Inten    --     13.4358                 5.9834                66.6209

                     25                     26                     27
                      A                      A                      A
 Frequencies --    834.4809               887.3070               953.1167
 Red. masses --      1.1599                 1.3917                 3.0478
 Frc consts  --      0.4759                 0.6456                 1.6313
 IR Inten    --     67.6549                 2.4657                21.8725

                     28                     29                     30
                      A                      A                      A
 Frequencies --    972.7064               981.3751              1018.9360
 Red. masses --      2.4165                 1.5526                 2.9124
 Frc consts  --      1.3471                 0.8810                 1.7816
 IR Inten    --      1.0052                 4.0342                19.2087

                     31                     32                     33
                      A                      A                      A
 Frequencies --   1041.1806              1061.6057              1072.0036
 Red. masses --      1.5509                 3.1465                 1.5400
 Frc consts  --      0.9906                 2.0893                 1.0427
 IR Inten    --     15.7441                 4.9175                 5.8417

                     34                     35                     36
                      A                      A                      A
 Frequencies --   1153.2503              1185.5689              1192.6684
 Red. masses --      3.1241                 1.5434                 1.3284
 Frc consts  --      2.4481                 1.2782                 1.1133
 IR Inten    --    109.8063                13.8814                 8.5469

                     37                     38                     39
                      A                      A                      A
 Frequencies --   1207.9097              1228.9730              1272.7651
 Red. masses --      1.8056                 1.7301                 1.7210
 Frc consts  --      1.5521                 1.5396                 1.6426
 IR Inten    --      9.3558                48.0043                55.4853

                     40                     41                     42
                      A                      A                      A
 Frequencies --   1298.4722              1322.8097              1350.9309
 Red. masses --      2.2808                 1.7849                 2.0010
 Frc consts  --      2.2657                 1.8402                 2.1516
 IR Inten    --     84.3945                38.2454                32.9902

                     43                     44                     45
                      A                      A                      A
 Frequencies --   1387.2876              1395.7989              1439.9801
 Red. masses --      2.5084                 1.7537                 1.2674
 Frc consts  --      2.8443                 2.0131                 1.5483
 IR Inten    --     68.6957                32.7810                 0.0077

                     46                     47                     48
                      A                      A                      A
 Frequencies --   1447.4713              1479.3812              1494.3558
 Red. masses --      2.3268                 2.8635                 1.0949
 Frc consts  --      2.8723                 3.6924                 1.4405
 IR Inten    --    150.4590                32.1202                 1.8057

                     49                     50                     51
                      A                      A                      A
 Frequencies --   1510.1456              1512.5000              1519.1673
 Red. masses --      1.1225                 1.0445                 1.0624
 Frc consts  --      1.5082                 1.4078                 1.4445
 IR Inten    --      3.1101                 6.3849                 3.8520

                     52                     53                     54
                      A                      A                      A
 Frequencies --   1523.1308              1534.2597              1556.4127
 Red. masses --      1.2013                 1.0562                 2.4882
 Frc consts  --      1.6419                 1.4649                 3.5513
 IR Inten    --     47.9516                 3.7390                41.4584

                     55                     56                     57
                      A                      A                      A
 Frequencies --   1627.3656              1683.6435              1704.6110
 Red. masses --      3.0637                 7.0310                 5.7114
 Frc consts  --      4.7805                11.7427                 9.7778
 IR Inten    --    127.2291                52.5894               342.4678

                     58                     59                     60
                      A                      A                      A
 Frequencies --   3011.4650              3033.2536              3047.7209
 Red. masses --      1.0361                 1.0607                 1.0377
 Frc consts  --      5.5364                 5.7496                 5.6791
 IR Inten    --     43.9952                38.7087                21.2102

                     61                     62                     63
                      A                      A                      A
 Frequencies --   3065.7220              3094.2567              3100.1194
 Red. masses --      1.1051                 1.1029                 1.1004
 Frc consts  --      6.1193                 6.2214                 6.2312
 IR Inten    --     53.4826                16.2412                15.7176

                     64                     65                     66
                      A                      A                      A
 Frequencies --   3136.9644              3150.6948              3192.3744
 Red. masses --      1.1011                 1.0988                 1.0898
 Frc consts  --      6.3839                 6.4266                 6.5439
 IR Inten    --     16.4346                23.9971                12.3462

                     67                     68                     69
                      A                      A                      A
 Frequencies --   3209.0433              3243.3379              3271.8121
 Red. masses --      1.0909                 1.0920                 1.0676
 Frc consts  --      6.6189                 6.7681                 6.7335
 IR Inten    --      5.5005                 2.7000               274.0407

 - Thermochemistry -
 -------------------
 Temperature   298.150 Kelvin.  Pressure   1.00000 Atm.
 Atom     1 has atomic number  6 and mass  12.00000

 Molecular mass:   180.07864 amu.
 Principal axes and moments of inertia in atomic units:
                           1         2         3
     Eigenvalues --  1377.488403308.910454312.74575
           X            0.99997   0.00650   0.00521
           Y           -0.00645   0.99994  -0.00851
           Z           -0.00526   0.00847   0.99995
 This molecule is an asymmetric top.
 Rotational symmetry number  1.
 Warning -- assumption of classical behavior for rotation
           may cause significant error
 Rotational temperatures (Kelvin)      0.06288     0.02618     0.02008
 Rotational constants (GHZ):           1.31017     0.54542     0.41847
 Zero-point vibrational energy     538019.0 (Joules/Mol)
                                  128.58962 (Kcal/Mol)
 Warning -- explicit consideration of  19 degrees of freedom as
           vibrations may cause significant error
 Vibrational temperatures:     64.53    70.79    80.36   157.02   183.90
          (Kelvin)            242.16   290.69   327.02   383.59   406.06
                              475.33   539.75   587.06   651.58   686.71
                              736.32   809.07   836.11   873.90   959.89
                             1019.07  1079.80  1086.49  1180.76  1200.63
                             1276.64  1371.32  1399.51  1411.98  1466.02
                             1498.03  1527.41  1542.37  1659.27  1705.77
                             1715.98  1737.91  1768.22  1831.23  1868.21
                             1903.23  1943.69  1996.00  2008.24  2071.81
                             2082.59  2128.50  2150.04  2172.76  2176.15
                             2185.74  2191.45  2207.46  2239.33  2341.42
                             2422.39  2452.56  4332.83  4364.18  4384.99
                             4410.89  4451.95  4460.38  4513.39  4533.15
                             4593.11  4617.10  4666.44  4707.41

 Zero-point correction=                           0.204921 (Hartree/Particle)
 Thermal correction to Energy=                    0.217569
 Thermal correction to Enthalpy=                  0.218513
 Thermal correction to Gibbs Free Energy=         0.164928
 Sum of electronic and zero-point Energies=           -613.795314
 Sum of electronic and thermal Energies=              -613.782666
 Sum of electronic and thermal Enthalpies=            -613.781721
 Sum of electronic and thermal Free Energies=         -613.835306

                     E (Thermal)             CV                S
                      KCal/Mol        Cal/Mol-Kelvin    Cal/Mol-Kelvin
 Total                  136.526             46.552            112.778
 Electronic               0.000              0.000              0.000
 Translational            0.889              2.981             41.471
 Rotational               0.889              2.981             31.353
 Vibrational            134.749             40.591             39.954
 Vibration     1          0.595              1.979              5.032
 Vibration     2          0.595              1.978              4.849
 Vibration     3          0.596              1.975              4.599
 Vibration     4          0.606              1.942              3.284
 Vibration     5          0.611              1.925              2.979
 Vibration     6          0.625              1.881              2.454
 Vibration     7          0.639              1.837              2.114
 Vibration     8          0.651              1.799              1.900
 Vibration     9          0.672              1.734              1.618
 Vibration    10          0.681              1.707              1.520
 Vibration    11          0.713              1.615              1.258
 Vibration    12          0.746              1.523              1.059
 Vibration    13          0.773              1.453              0.934
 Vibration    14          0.811              1.355              0.787
 Vibration    15          0.834              1.300              0.717
 Vibration    16          0.867              1.224              0.629
 Vibration    17          0.918              1.113              0.519
 Vibration    18          0.938              1.072              0.483
 Vibration    19          0.966              1.016              0.437

 Optimization completed.
    -- Stationary point found.
 Normal termination of Gaussian 16 at Wed Dec  9 22:36:48 2020.

 ----------------------------------------------------------------------
 # B3LYP/6-311++G(d,p) empiricaldispersion=gd3bj scf=xqc pop=npa geom=c
 heck
 ----------------------------------------------------------------------

 --------------------------------------
 CID_57887298_JID_3038_Energie_neutraal
 --------------------------------------
 Structure from the checkpoint file:  "JID_3038.chk"
 Charge =  0 Multiplicity = 1

 SCF Done:  E(RB3LYP) =  -614.179376763     A.U. after   15 cycles
 Normal termination of Gaussian 16 at Wed Dec  9 22:39:00 2020.

 ----------------------------------------------------------------------
 # B3LYP/6-311++G(d,p) empiricaldispersion=gd3bj scf=xqc pop=npa geom=c
 heck
 ----------------------------------------------------------------------

 ------------------------------------
 CID_57887298_JID_3038_Energie_kation
 ------------------------------------
 Structure from the checkpoint file:  "JID_3038.chk"
 Charge =  1 Multiplicity = 2

 SCF Done:  E(UB3LYP) =  -613.870070625     A.U. after   29 cycles
 Normal termination of Gaussian 16 at Wed Dec  9 22:44:51 2020.
 Gaussian 16:  ES64L-G16RevA.03 25-Dec-2016

 ----------------------------------------------------------------------
 # B3LYP/6-311++G(d,p) empiricaldispersion=gd3bj scf=xqc pop=npa geom=c
 heck
 ----------------------------------------------------------------------

 -----------------------------------
 CID_57887298_JID_3038_Energie_anion
 -----------------------------------
 Structure from the checkpoint file:  "JID_3038.chk"
 Charge = -1 Multiplicity = 2

                         Standard orientation:
 ---------------------------------------------------------------------
 Center     Atomic      Atomic             Coordinates (Angstroms)
 Number     Number       Type             X           Y           Z
 ---------------------------------------------------------------------
      1          6           0       -4.027391   -1.024231    0.133324
      2          6           0       -2.598244   -0.563190    0.006435
      3          6           0       -2.252949    0.759101    0.251518
      4          6           0       -0.924875    1.196345    0.131915
      5          6           0        0.095048    0.272586   -0.236922
      6          6           0       -0.278901   -1.069672   -0.483177
      7          6           0       -1.591430   -1.479982   -0.366599
      8          6           0        1.469659    0.744897   -0.370114
      9          8           0        1.776599    1.936830   -0.194310
     10          6           0        2.606489   -0.200500   -0.786430
     11          8           0        2.643381   -1.448824   -0.127969
     12          6           0        2.894073   -1.328993    1.263211
     13          8           0       -0.671368    2.489105    0.372699
     14          1           0       -4.116819   -1.819901    0.882956
     15          1           0       -4.691010   -0.205773    0.425474
     16          1           0       -4.391384   -1.436413   -0.815652
     17          1           0       -3.002433    1.491105    0.535644
     18          1           0        0.491195   -1.784390   -0.745369
     19          1           0       -1.855203   -2.516024   -0.559615
     20          1           0        2.501321   -0.422694   -1.855064
     21          1           0        3.539382    0.361674   -0.638045
     22          1           0        3.837994   -0.796466    1.452139
     23          1           0        2.080325   -0.800552    1.779798
     24          1           0        2.966513   -2.344510    1.658290
     25          1           0        0.302352    2.618892    0.217124
 ---------------------------------------------------------------------

 SCF Done:  E(UB3LYP) =  -614.195944748     A.U. after   26 cycles

 The electronic state is 2-A.
 Alpha  occ. eigenvalues --  -19.00127 -18.97982 -18.92168 -10.09468 -10.07628
 Alpha  occ. eigenvalues --  -10.07449 -10.05530 -10.04495 -10.02439 -10.01547
 Alpha  occ. eigenvalues --  -10.01408 -10.01211 -10.01149  -0.91428  -0.90522
 Alpha  occ. eigenvalues --   -0.85514  -0.70193  -0.63366  -0.60480  -0.58703
 Alpha  occ. eigenvalues --   -0.55954  -0.52413  -0.46598  -0.45243  -0.42005
 Alpha  occ. eigenvalues --   -0.36783  -0.35818  -0.35585  -0.34426  -0.32552
 Alpha  occ. eigenvalues --   -0.31255  -0.29801  -0.28562  -0.27624  -0.27041
 Alpha  occ. eigenvalues --   -0.26387  -0.25726  -0.25262  -0.22715  -0.22315
 Alpha  occ. eigenvalues --   -0.21207  -0.19903  -0.18943  -0.18166  -0.14573
 Alpha  occ. eigenvalues --   -0.10549  -0.08467  -0.07558   0.04548
 Alpha virt. eigenvalues --    0.08487   0.09011   0.10680   0.11014   0.11576
 Alpha virt. eigenvalues --    0.11805   0.12346   0.13181   0.13846   0.14055
 Alpha virt. eigenvalues --    0.14850   0.15211   0.15548   0.16740   0.17313

  Beta  occ. eigenvalues --  -19.00089 -18.97886 -18.91522 -10.09462 -10.07664
  Beta  occ. eigenvalues --  -10.07251 -10.05023 -10.04524 -10.02067 -10.01669
  Beta  occ. eigenvalues --  -10.01275 -10.01202 -10.01166  -0.91319  -0.90266
  Beta  occ. eigenvalues --   -0.84374  -0.69853  -0.62956  -0.60353  -0.58464
  Beta  occ. eigenvalues --   -0.55688  -0.52214  -0.46033  -0.45087  -0.41484
  Beta  occ. eigenvalues --   -0.36660  -0.35584  -0.35375  -0.34287  -0.32425
  Beta  occ. eigenvalues --   -0.30990  -0.29420  -0.28415  -0.27064  -0.26901
  Beta  occ. eigenvalues --   -0.25741  -0.25454  -0.24898  -0.22531  -0.22137
  Beta  occ. eigenvalues --   -0.20150  -0.18831  -0.18227  -0.17099  -0.14401
  Beta  occ. eigenvalues --   -0.09170  -0.08006  -0.06722
  Beta virt. eigenvalues --    0.08432   0.08962   0.10386   0.10760   0.11462
  Beta virt. eigenvalues --    0.11574   0.12142   0.12654   0.13154   0.13890
  Beta virt. eigenvalues --    0.14544   0.14831   0.15177   0.15532   0.16939

 Mulliken charges and spin densities:
               1          2
     1  C   -0.524744  -0.032190
     2  C    0.652457   0.228162
     3  C   -0.618726  -0.036447
     4  C   -0.489085   0.155198
     5  C    2.075211   0.013752
     6  C   -1.100059   0.219717
     7  C   -0.605639  -0.132976
     8  C   -0.422518   0.244635
     9  O   -0.444862   0.224615
    10  C   -0.383191  -0.066256
    11  O   -0.113815   0.006708
    12  C   -0.314671   0.024631
    13  O   -0.327943   0.025634
    14  H    0.114725   0.018365
    15  H    0.128141   0.000491
    16  H    0.110633   0.023284
    17  H    0.097740   0.001797
    18  H    0.122165   0.002662
    19  H    0.114160   0.009391
    20  H    0.078279   0.079549
    21  H    0.149079  -0.005369
    22  H    0.100747  -0.003979
    23  H    0.139293   0.002816
    24  H    0.135364   0.002143
    25  H    0.327260  -0.006335
 Sum of Mulliken charges =  -1.00000   1.00000

 Dipole moment (field-independent basis, Debye):
    X=             -0.4647    Y=             -3.2215    Z=              1.0644  Tot=              3.4245
 Quadrupole moment (field-independent basis, Debye-Ang):
   XX=           -103.8956   YY=           -101.6947   ZZ=            -85.2969
   XY=             -2.6564   XZ=              3.1127   YZ=             -2.1349

 Summary of Natural Population Analysis:

                                       Natural Population
                Natural  -----------------------------------------------
    Atom  No    Charge         Core      Valence    Rydberg      Total
 -----------------------------------------------------------------------
      C    1   -0.29281      0.99965     2.28880    0.00437     3.29281
      C    2    0.05662      0.99953     1.93598    0.00787     2.94338
      C    3   -0.15826      0.99949     2.14964    0.00913     3.15826
      C    4    0.22742      0.99941     1.76032    0.01285     2.77258
      C    5   -0.12990      0.99945     2.11925    0.01120     3.12990
      C    6   -0.03093      0.99956     2.02340    0.00798     3.03093
      C    7   -0.16534      0.99953     2.15640    0.00941     3.16534
      C    8    0.31804      0.99961     1.66430    0.01805     2.68196
      O    9   -0.27291      0.99986     3.26623    0.00682     4.27291
      C   10   -0.04481      0.99956     2.03262    0.01263     3.04481
      O   11   -0.29914      0.99989     3.28823    0.01102     4.29914
      C   12   -0.09831      0.99962     2.09039    0.00829     3.09831
      O   13   -0.34985      0.99987     3.34273    0.00725     4.34985
      H   14    0.09815      0.00000     0.40084    0.00100     0.40185
      H   15    0.09470      0.00000     0.40444    0.00086     0.40530
      H   16    0.09828      0.00000     0.40071    0.00101     0.40172
      H   17    0.09289      0.00000     0.40548    0.00163     0.40711
      H   18    0.10024      0.00000     0.39730    0.00246     0.39976
      H   19    0.08818      0.00000     0.41037    0.00145     0.41182
      H   20    0.09425      0.00000     0.40408    0.00167     0.40575
      H   21    0.08024      0.00000     0.41665    0.00311     0.41976
      H   22    0.07317      0.00000     0.42548    0.00135     0.42683
      H   23    0.08802      0.00000     0.41070    0.00127     0.41198
      H   24    0.08191      0.00000     0.41721    0.00088     0.41809
      H   25    0.25014      0.00000     0.24653    0.00333     0.24986
 =======================================================================
   * Total *   -0.00000     12.99504    34.85809    0.14688    48.00000

 Normal termination of Gaussian 16 at Wed Dec  9 22:49:49 2020.
