 Gaussian 16, Revision A.03,

 -----------------------------------------------------------
 # opt freq B3LYP/6-31G(d) empiricaldispersion=gd3bj scf=xqc
 -----------------------------------------------------------

 --------------------------------
 CID_109983638_JID_10650_neutraal
 --------------------------------
 Symbolic Z-matrix:
 Charge =  0 Multiplicity = 1

 SCF Done:  E(RB3LYP) =  -1276.33112854     A.U. after   15 cycles
 SCF Done:  E(RB3LYP) =  -1276.34043430     A.U. after   13 cycles
 SCF Done:  E(RB3LYP) =  -1276.33814597     A.U. after   13 cycles
 SCF Done:  E(RB3LYP) =  -1276.34265165     A.U. after   12 cycles
 SCF Done:  E(RB3LYP) =  -1276.34350909     A.U. after   12 cycles
 SCF Done:  E(RB3LYP) =  -1276.34438356     A.U. after   12 cycles
 SCF Done:  E(RB3LYP) =  -1276.34492279     A.U. after   12 cycles
 SCF Done:  E(RB3LYP) =  -1276.34551903     A.U. after   12 cycles
 SCF Done:  E(RB3LYP) =  -1276.34581921     A.U. after   13 cycles
 SCF Done:  E(RB3LYP) =  -1276.34608915     A.U. after   10 cycles
 SCF Done:  E(RB3LYP) =  -1276.34648715     A.U. after    6 cycles
 SCF Done:  E(RB3LYP) =  -1276.34648716     A.U. after    7 cycles
 SCF Done:  E(RB3LYP) =  -1276.34648717     A.U. after    6 cycles
 SCF Done:  E(RB3LYP) =  -1276.34648717     A.U. after    6 cycles
 SCF Done:  E(RB3LYP) =  -1276.34648718     A.U. after    6 cycles
 Optimization completed.
    -- Stationary point found.
 Normal termination of Gaussian 16 at Sat Dec 12 16:37:53 2020.

 --------------------------------------------------------------------
 #N Geom=AllCheck Guess=TCheck SCRF=Check GenChk RB3LYP/6-31G(d) Freq
 --------------------------------------------------------------------

 Structure from the checkpoint file:  "JID_10650.chk"
 --------------------------------
 CID_109983638_JID_10650_neutraal
 --------------------------------
 Charge =  0 Multiplicity = 1

 SCF Done:  E(RB3LYP) =  -1276.34648718     A.U. after    1 cycles

  Exact polarizability: 248.693  -6.273 171.540  10.993   2.437 140.288
 Approx polarizability: 302.292 -12.421 284.166  28.518  18.411 232.859

                      1                      2                      3
                      A                      A                      A
 Frequencies --     14.3517                19.9023                27.6858
 Red. masses --      5.6500                 3.9483                 3.9731
 Frc consts  --      0.0007                 0.0009                 0.0018
 IR Inten    --      0.2956                 1.0077                 0.8748

                      4                      5                      6
                      A                      A                      A
 Frequencies --     50.4471                55.9897                72.4868
 Red. masses --      3.9032                 5.3215                 4.8990
 Frc consts  --      0.0059                 0.0098                 0.0152
 IR Inten    --      0.7491                 0.7227                 0.7094

                      7                      8                      9
                      A                      A                      A
 Frequencies --     83.1914               104.1190               128.3318
 Red. masses --      4.9236                 2.8745                 2.7685
 Frc consts  --      0.0201                 0.0184                 0.0269
 IR Inten    --      2.1327                 0.4834                 3.0362

                     10                     11                     12
                      A                      A                      A
 Frequencies --    161.3838               168.2838               177.1258
 Red. masses --      4.1722                 3.6967                 3.8418
 Frc consts  --      0.0640                 0.0617                 0.0710
 IR Inten    --      0.7033                 0.8127                 0.0263

                     13                     14                     15
                      A                      A                      A
 Frequencies --    226.6360               241.4884               255.5074
 Red. masses --      2.9749                 1.8329                 2.5137
 Frc consts  --      0.0900                 0.0630                 0.0967
 IR Inten    --      0.9913                13.8339                 9.8988

                     16                     17                     18
                      A                      A                      A
 Frequencies --    262.2443               290.6815               301.7178
 Red. masses --      2.8995                 2.7370                 3.1840
 Frc consts  --      0.1175                 0.1363                 0.1708
 IR Inten    --      4.1233                11.1665                 9.7300

                     19                     20                     21
                      A                      A                      A
 Frequencies --    314.0231               324.1109               335.8972
 Red. masses --      2.3456                 1.3051                 3.9502
 Frc consts  --      0.1363                 0.0808                 0.2626
 IR Inten    --     40.7750               108.8275                 0.6042

                     22                     23                     24
                      A                      A                      A
 Frequencies --    395.3382               415.7676               416.4978
 Red. masses --      4.5581                 2.2680                 2.0110
 Frc consts  --      0.4197                 0.2310                 0.2055
 IR Inten    --      4.2802                 0.4929                14.3545

                     25                     26                     27
                      A                      A                      A
 Frequencies --    440.5756               453.7603               470.1701
 Red. masses --      2.0964                 3.7173                 2.7034
 Frc consts  --      0.2398                 0.4510                 0.3521
 IR Inten    --      4.1257                 8.7025                 4.2239

                     28                     29                     30
                      A                      A                      A
 Frequencies --    524.5260               533.3626               563.1013
 Red. masses --      2.7550                 2.1093                 3.5809
 Frc consts  --      0.4466                 0.3535                 0.6690
 IR Inten    --     16.5824                20.6209                12.3976

                     31                     32                     33
                      A                      A                      A
 Frequencies --    571.0945               593.2809               634.2554
 Red. masses --      3.1764                 4.2817                 3.2995
 Frc consts  --      0.6104                 0.8880                 0.7820
 IR Inten    --     16.5388                22.3779                25.1755

                     34                     35                     36
                      A                      A                      A
 Frequencies --    690.8376               702.5238               718.1338
 Red. masses --      3.7216                 2.2403                 1.6858
 Frc consts  --      1.0465                 0.6515                 0.5122
 IR Inten    --     15.0227                 2.8953                37.9708

                     37                     38                     39
                      A                      A                      A
 Frequencies --    736.4395               743.6227               779.4362
 Red. masses --      2.4837                 3.1104                 3.9534
 Frc consts  --      0.7936                 1.0134                 1.4151
 IR Inten    --     14.2875                22.1668                31.9959

                     40                     41                     42
                      A                      A                      A
 Frequencies --    794.0512               823.0042               838.9921
 Red. masses --      2.7543                 2.3136                 3.2838
 Frc consts  --      1.0232                 0.9233                 1.3619
 IR Inten    --      2.5003                26.2434                 6.3481

                     43                     44                     45
                      A                      A                      A
 Frequencies --    852.5230               861.6657               880.9303
 Red. masses --      1.6838                 2.4265                 2.9616
 Frc consts  --      0.7210                 1.0615                 1.3541
 IR Inten    --      2.3038                14.0520                 0.2369

                     46                     47                     48
                      A                      A                      A
 Frequencies --    909.4501               916.0561               946.9015
 Red. masses --      1.3967                 2.1251                 2.2493
 Frc consts  --      0.6807                 1.0507                 1.1882
 IR Inten    --      4.6829                 4.7410                 3.6984

                     49                     50                     51
                      A                      A                      A
 Frequencies --    979.7149              1007.9633              1028.7400
 Red. masses --      3.8999                 2.8334                 2.4166
 Frc consts  --      2.2055                 1.6961                 1.5068
 IR Inten    --     13.7314                 7.4486                79.9959

                     52                     53                     54
                      A                      A                      A
 Frequencies --   1044.9749              1063.6640              1088.4777
 Red. masses --      1.7114                 2.1160                 1.8573
 Frc consts  --      1.1010                 1.4105                 1.2965
 IR Inten    --     46.8426                 2.9978                 4.0542

                     55                     56                     57
                      A                      A                      A
 Frequencies --   1094.0423              1096.5815              1108.5780
 Red. masses --      1.8664                 2.0363                 3.6248
 Frc consts  --      1.3162                 1.4427                 2.6246
 IR Inten    --     18.3641                 4.6299                21.9091

                     58                     59                     60
                      A                      A                      A
 Frequencies --   1124.1868              1130.9209              1156.2551
 Red. masses --      1.6405                 2.4699                 1.7934
 Frc consts  --      1.2216                 1.8612                 1.4127
 IR Inten    --      0.4331                16.2386                14.4546

                     61                     62                     63
                      A                      A                      A
 Frequencies --   1173.8241              1191.2285              1203.2501
 Red. masses --      1.4929                 2.9155                 1.9823
 Frc consts  --      1.2119                 2.4376                 1.6910
 IR Inten    --     11.7399                17.9510                60.6913

                     64                     65                     66
                      A                      A                      A
 Frequencies --   1248.1494              1255.4366              1267.1693
 Red. masses --      1.5427                 1.1956                 1.6547
 Frc consts  --      1.4160                 1.1103                 1.5655
 IR Inten    --     57.9155                 8.3524                71.3842

                     67                     68                     69
                      A                      A                      A
 Frequencies --   1291.4832              1305.0643              1308.9239
 Red. masses --      1.7374                 1.6043                 1.3146
 Frc consts  --      1.7074                 1.6099                 1.3270
 IR Inten    --    177.1091                66.8202                 2.1836

                     70                     71                     72
                      A                      A                      A
 Frequencies --   1314.1037              1359.2455              1368.7373
 Red. masses --      2.9669                 1.7585                 1.3883
 Frc consts  --      3.0187                 1.9142                 1.5324
 IR Inten    --    116.5659                16.4431                18.7450

                     73                     74                     75
                      A                      A                      A
 Frequencies --   1377.1825              1389.1781              1394.8914
 Red. masses --      1.2545                 1.5030                 1.5027
 Frc consts  --      1.4018                 1.7089                 1.7226
 IR Inten    --      0.1261                11.9148                 7.6260

                     76                     77                     78
                      A                      A                      A
 Frequencies --   1401.2068              1408.2212              1416.0214
 Red. masses --      1.3325                 1.2772                 1.2597
 Frc consts  --      1.5414                 1.4922                 1.4882
 IR Inten    --      3.0753                12.1008                20.3161

                     79                     80                     81
                      A                      A                      A
 Frequencies --   1422.8917              1426.5544              1428.9209
 Red. masses --      1.6119                 1.9153                 1.3600
 Frc consts  --      1.9228                 2.2965                 1.6360
 IR Inten    --    140.4475                12.5921                33.5386

                     82                     83                     84
                      A                      A                      A
 Frequencies --   1431.9984              1437.9082              1440.5142
 Red. masses --      1.8135                 1.3732                 1.6346
 Frc consts  --      2.1910                 1.6728                 1.9985
 IR Inten    --    196.2820                70.1126                72.4753

                     85                     86                     87
                      A                      A                      A
 Frequencies --   1446.8641              1490.0081              1499.9983
 Red. masses --      1.2629                 1.0943                 1.0862
 Frc consts  --      1.5577                 1.4315                 1.4400
 IR Inten    --      3.9595                 4.0672                 4.1600

                     88                     89                     90
                      A                      A                      A
 Frequencies --   1506.3698              1509.9163              1516.6437
 Red. masses --      1.1005                 1.1162                 1.0802
 Frc consts  --      1.4713                 1.4994                 1.4640
 IR Inten    --      4.1407                 9.4764                 2.9258

                     91                     92                     93
                      A                      A                      A
 Frequencies --   1517.1732              1528.0901              1531.0610
 Red. masses --      1.0710                 1.0449                 1.0975
 Frc consts  --      1.4525                 1.4376                 1.5157
 IR Inten    --      1.4088                 4.4440                 5.5233

                     94                     95                     96
                      A                      A                      A
 Frequencies --   1534.9240              1535.7143              1583.0731
 Red. masses --      1.0766                 1.0970                 6.0121
 Frc consts  --      1.4945                 1.5243                 8.8773
 IR Inten    --     10.3241                11.2134               132.3575

                     97                     98                     99
                      A                      A                      A
 Frequencies --   1591.4322              1795.8637              2986.4679
 Red. masses --      6.4851                 8.9375                 1.0702
 Frc consts  --      9.6770                16.9829                 5.6236
 IR Inten    --    179.9975               436.6805                38.6868

                    100                    101                    102
                      A                      A                      A
 Frequencies --   3006.1799              3012.3328              3026.7052
 Red. masses --      1.0641                 1.0696                 1.0724
 Frc consts  --      5.6660                 5.7186                 5.7880
 IR Inten    --    137.6913                44.8410                26.8745

                    103                    104                    105
                      A                      A                      A
 Frequencies --   3035.0490              3040.8825              3044.9626
 Red. masses --      1.0603                 1.0643                 1.1012
 Frc consts  --      5.7546                 5.7987                 6.0157
 IR Inten    --     38.5811                50.5911                25.0685

                    106                    107                    108
                      A                      A                      A
 Frequencies --   3047.1268              3050.6602              3071.5486
 Red. masses --      1.0627                 1.0399                 1.0980
 Frc consts  --      5.8135                 5.7019                 6.1032
 IR Inten    --     20.8817                24.5168                46.8452

                    109                    110                    111
                      A                      A                      A
 Frequencies --   3077.6528              3093.1447              3097.2246
 Red. masses --      1.0652                 1.1038                 1.0968
 Frc consts  --      5.9447                 6.2220                 6.1989
 IR Inten    --      4.3948                23.8506                27.6197

                    112                    113                    114
                      A                      A                      A
 Frequencies --   3099.1232              3111.7224              3112.0015
 Red. masses --      1.0969                 1.1022                 1.0916
 Frc consts  --      6.2070                 6.2880                 6.2287
 IR Inten    --     59.0696                44.8287                50.2196

                    115                    116                    117
                      A                      A                      A
 Frequencies --   3139.5390              3149.5419              3158.3891
 Red. masses --      1.1001                 1.1018                 1.0916
 Frc consts  --      6.3888                 6.4393                 6.4157
 IR Inten    --     38.9285                 8.8603                16.8569

                    118                    119                    120
                      A                      A                      A
 Frequencies --   3273.0568              3587.0107              3735.0012
 Red. masses --      1.0945                 1.0752                 1.0661
 Frc consts  --      6.9084                 8.1511                 8.7624
 IR Inten    --      1.6961                56.1477                12.3503

 - Thermochemistry -
 -------------------
 Temperature   298.150 Kelvin.  Pressure   1.00000 Atm.
 Atom     1 has atomic number  6 and mass  12.00000

 Molecular mass:   298.14635 amu.
 Principal axes and moments of inertia in atomic units:
                           1         2         3
     Eigenvalues --  2291.42552********************
           X            0.99998   0.00658   0.00076
           Y           -0.00657   0.99990  -0.01268
           Z           -0.00084   0.01268   0.99992
 This molecule is an asymmetric top.
 Rotational symmetry number  1.
 Warning -- assumption of classical behavior for rotation
           may cause significant error
 Rotational temperatures (Kelvin)      0.03780     0.00664     0.00615
 Rotational constants (GHZ):           0.78761     0.13843     0.12823
 Zero-point vibrational energy     942361.6 (Joules/Mol)
                                  225.22984 (Kcal/Mol)
 Warning -- explicit consideration of  32 degrees of freedom as
           vibrations may cause significant error
 Vibrational temperatures:     20.65    28.63    39.83    72.58    80.56
          (Kelvin)            104.29   119.69   149.80   184.64   232.20
                              242.12   254.84   326.08   347.45   367.62
                              377.31   418.23   434.10   451.81   466.32
                              483.28   568.80   598.20   599.25   633.89
                              652.86   676.47   754.68   767.39   810.18
                              821.68   853.60   912.55   993.96  1010.78
                             1033.23  1059.57  1069.91  1121.43  1142.46
                             1184.12  1207.12  1226.59  1239.74  1267.46
                             1308.50  1318.00  1362.38  1409.59  1450.23
                             1480.13  1503.49  1530.38  1566.08  1574.08
                             1577.74  1595.00  1617.45  1627.14  1663.59
                             1688.87  1713.91  1731.21  1795.81  1806.29
                             1823.17  1858.16  1877.70  1883.25  1890.70
                             1955.65  1969.31  1981.46  1998.72  2006.94
                             2016.02  2026.12  2037.34  2047.22  2052.49
                             2055.90  2060.33  2068.83  2072.58  2081.71
                             2143.79  2158.16  2167.33  2172.43  2182.11
                             2182.87  2198.58  2202.86  2208.41  2209.55
                             2277.69  2289.72  2583.85  4296.86  4325.22
                             4334.07  4354.75  4366.76  4375.15  4381.02
                             4384.14  4389.22  4419.27  4428.06  4450.35
                             4456.22  4458.95  4477.07  4477.48  4517.10
                             4531.49  4544.22  4709.20  5160.91  5373.83

 Zero-point correction=                           0.358927 (Hartree/Particle)
 Thermal correction to Energy=                    0.379446
 Thermal correction to Enthalpy=                  0.380390
 Thermal correction to Gibbs Free Energy=         0.306788
 Sum of electronic and zero-point Energies=          -1275.987561
 Sum of electronic and thermal Energies=             -1275.967041
 Sum of electronic and thermal Enthalpies=           -1275.966097
 Sum of electronic and thermal Free Energies=        -1276.039699

                     E (Thermal)             CV                S
                      KCal/Mol        Cal/Mol-Kelvin    Cal/Mol-Kelvin
 Total                  238.106             76.939            154.909
 Electronic               0.000              0.000              0.000
 Translational            0.889              2.981             42.974
 Rotational               0.889              2.981             34.396
 Vibrational            236.329             70.977             77.539
 Vibration     1          0.593              1.986              7.293
 Vibration     2          0.593              1.986              6.644
 Vibration     3          0.593              1.984              5.989
 Vibration     4          0.595              1.977              4.800
 Vibration     5          0.596              1.975              4.594
 Vibration     6          0.599              1.967              4.085
 Vibration     7          0.600              1.961              3.814
 Vibration     8          0.605              1.946              3.376
 Vibration     9          0.611              1.925              2.971
 Vibration    10          0.622              1.890              2.534
 Vibration    11          0.625              1.882              2.455
 Vibration    12          0.628              1.871              2.358
 Vibration    13          0.650              1.800              1.905
 Vibration    14          0.658              1.777              1.792
 Vibration    15          0.666              1.753              1.692
 Vibration    16          0.670              1.742              1.647
 Vibration    17          0.687              1.691              1.470
 Vibration    18          0.694              1.670              1.407
 Vibration    19          0.702              1.647              1.341
 Vibration    20          0.709              1.627              1.289
 Vibration    21          0.717              1.604              1.232
 Vibration    22          0.762              1.480              0.980
 Vibration    23          0.779              1.436              0.906
 Vibration    24          0.780              1.434              0.904
 Vibration    25          0.800              1.382              0.825
 Vibration    26          0.812              1.353              0.784
 Vibration    27          0.827              1.316              0.737
 Vibration    28          0.879              1.196              0.600
 Vibration    29          0.888              1.176              0.580
 Vibration    30          0.919              1.111              0.518
 Vibration    31          0.927              1.094              0.502
 Vibration    32          0.951              1.046              0.461

                           ! Non-Optimized Parameters !
 Normal termination of Gaussian 16 at Sat Dec 12 16:57:52 2020.

 ----------------------------------------------------------------------
 # B3LYP/6-311++G(d,p) empiricaldispersion=gd3bj scf=xqc pop=npa geom=c
 heck
 ----------------------------------------------------------------------

 ----------------------------------------
 CID_109983638_JID_10650_Energie_neutraal
 ----------------------------------------
 Structure from the checkpoint file:  "JID_10650.chk"
 Charge =  0 Multiplicity = 1

 SCF Done:  E(RB3LYP) =  -1276.62767061     A.U. after   15 cycles
 Normal termination of Gaussian 16 at Sat Dec 12 17:06:27 2020.

 ----------------------------------------------------------------------
 # B3LYP/6-311++G(d,p) empiricaldispersion=gd3bj scf=xqc pop=npa geom=c
 heck
 ----------------------------------------------------------------------

 --------------------------------------
 CID_109983638_JID_10650_Energie_kation
 --------------------------------------
 Structure from the checkpoint file:  "JID_10650.chk"
 Charge =  1 Multiplicity = 2

 SCF Done:  E(UB3LYP) =  -1276.35809553     A.U. after   26 cycles
 Normal termination of Gaussian 16 at Sat Dec 12 17:26:57 2020.
 Gaussian 16:  ES64L-G16RevA.03 25-Dec-2016

 ----------------------------------------------------------------------
 # B3LYP/6-311++G(d,p) empiricaldispersion=gd3bj scf=xqc pop=npa geom=c
 heck
 ----------------------------------------------------------------------

 -------------------------------------
 CID_109983638_JID_10650_Energie_anion
 -------------------------------------
 Structure from the checkpoint file:  "JID_10650.chk"
 Charge = -1 Multiplicity = 2

                         Standard orientation:
 ---------------------------------------------------------------------
 Center     Atomic      Atomic             Coordinates (Angstroms)
 Number     Number       Type             X           Y           Z
 ---------------------------------------------------------------------
      1          6           0        5.891163    1.248828    0.192097
      2          6           0        5.988503   -0.262433   -0.027476
      3          6           0        4.935085   -1.082213    0.747486
      4          6           0        3.523536   -0.841056    0.293246
      5          6           0        2.815156   -1.641413   -0.553059
      6         16           0        1.226694   -0.978097   -0.856581
      7          6           0        1.651991    0.354335    0.221599
      8          7           0        2.849402    0.290085    0.728977
      9          7           0        0.824059    1.438275    0.475869
     10          6           0       -0.391039    1.753971   -0.165881
     11          8           0       -0.590937    2.886510   -0.575671
     12          7           0       -1.282888    0.708079   -0.287514
     13          6           0       -2.503178    1.011847   -1.051427
     14          6           0       -3.133461   -0.302068   -1.524249
     15          7           0       -3.368945   -1.275724   -0.467593
     16          6           0       -2.187150   -1.487715    0.351600
     17          6           0       -1.534452   -0.191798    0.853596
     18          6           0       -4.665334   -1.342949    0.177749
     19          6           0       -5.018478   -0.341873    1.288953
     20          8           0       -5.068894    1.015798    0.867964
     21          1           0        4.920232    1.636727   -0.128151
     22          1           0        6.674647    1.774660   -0.365239
     23          1           0        6.006366    1.497705    1.253826
     24          1           0        5.891780   -0.490531   -1.097102
     25          1           0        6.983306   -0.613110    0.277856
     26          1           0        5.162697   -2.148786    0.637047
     27          1           0        5.005995   -0.844583    1.816444
     28          1           0        3.112641   -2.580903   -0.997116
     29          1           0        1.348882    2.271525    0.718069
     30          1           0       -3.206785    1.569604   -0.423670
     31          1           0       -2.221870    1.634666   -1.902211
     32          1           0       -2.455794   -0.758078   -2.262027
     33          1           0       -4.080086   -0.091543   -2.033054
     34          1           0       -1.440077   -2.030308   -0.243236
     35          1           0       -2.449032   -2.119173    1.207647
     36          1           0       -0.595431   -0.417310    1.358810
     37          1           0       -2.193036    0.320356    1.569651
     38          1           0       -5.428273   -1.271615   -0.611350
     39          1           0       -4.774360   -2.348271    0.613882
     40          1           0       -5.977488   -0.650882    1.737806
     41          1           0       -4.267444   -0.373727    2.083936
     42          1           0       -5.750777    1.086866    0.181572
 ---------------------------------------------------------------------

 SCF Done:  E(UB3LYP) =  -1276.62149561     A.U. after   33 cycles
 SCF Done:  E(UB3LYP) =  -1276.62149561     a.u. after    1 cycles

 The electronic state is 2-A.
 Alpha  occ. eigenvalues --  -88.78431 -19.02887 -19.00205 -14.26273 -14.24954
 Alpha  occ. eigenvalues --  -14.21226 -14.21071 -10.20765 -10.17333 -10.12129
 Alpha  occ. eigenvalues --  -10.11754 -10.11193 -10.11014 -10.10486 -10.10475
 Alpha  occ. eigenvalues --  -10.09949 -10.09370 -10.08742 -10.08535 -10.07145
 Alpha  occ. eigenvalues --   -7.87034  -5.83338  -5.82978  -5.82592  -0.96968
 Alpha  occ. eigenvalues --   -0.93071  -0.89070  -0.86330  -0.83096  -0.81523
 Alpha  occ. eigenvalues --   -0.71226  -0.70249  -0.68140  -0.66687  -0.64972
 Alpha  occ. eigenvalues --   -0.61282  -0.58903  -0.56619  -0.55125  -0.52596
 Alpha  occ. eigenvalues --   -0.51523  -0.49863  -0.47087  -0.46115  -0.43611
 Alpha  occ. eigenvalues --   -0.41464  -0.40820  -0.39377  -0.38683  -0.38239
 Alpha  occ. eigenvalues --   -0.38100  -0.36492  -0.35857  -0.35574  -0.34895
 Alpha  occ. eigenvalues --   -0.34178  -0.33961  -0.33057  -0.32198  -0.31856
 Alpha  occ. eigenvalues --   -0.31260  -0.30766  -0.29913  -0.28144  -0.27818
 Alpha  occ. eigenvalues --   -0.27140  -0.26329  -0.25954  -0.25748  -0.25594
 Alpha  occ. eigenvalues --   -0.24451  -0.24233  -0.22417  -0.19935  -0.19297
 Alpha  occ. eigenvalues --   -0.18707  -0.18233  -0.16033  -0.12737  -0.11362
 Alpha  occ. eigenvalues --    0.03755
 Alpha virt. eigenvalues --    0.04811   0.05909   0.06768   0.07007   0.07361
 Alpha virt. eigenvalues --    0.07945   0.08223   0.08603   0.09513   0.09620
 Alpha virt. eigenvalues --    0.09984   0.10412   0.10565   0.10939   0.10993

  Beta  occ. eigenvalues --  -88.78416 -19.02840 -19.00135 -14.26298 -14.24962
  Beta  occ. eigenvalues --  -14.21224 -14.21069 -10.20693 -10.17172 -10.12104
  Beta  occ. eigenvalues --  -10.11744 -10.11180 -10.11001 -10.10461 -10.10453
  Beta  occ. eigenvalues --  -10.09947 -10.09258 -10.08738 -10.08521 -10.07133
  Beta  occ. eigenvalues --   -7.87020  -5.83333  -5.82974  -5.82537  -0.96849
  Beta  occ. eigenvalues --   -0.92969  -0.88946  -0.86302  -0.83053  -0.81505
  Beta  occ. eigenvalues --   -0.71185  -0.70139  -0.68121  -0.66625  -0.64880
  Beta  occ. eigenvalues --   -0.61218  -0.58812  -0.56585  -0.55020  -0.52484
  Beta  occ. eigenvalues --   -0.51456  -0.49789  -0.47032  -0.46053  -0.43543
  Beta  occ. eigenvalues --   -0.41384  -0.40734  -0.39346  -0.38592  -0.38194
  Beta  occ. eigenvalues --   -0.38060  -0.36408  -0.35764  -0.35522  -0.34845
  Beta  occ. eigenvalues --   -0.33982  -0.33898  -0.32992  -0.32133  -0.31799
  Beta  occ. eigenvalues --   -0.31193  -0.30720  -0.29656  -0.28100  -0.27740
  Beta  occ. eigenvalues --   -0.27123  -0.26289  -0.25886  -0.25721  -0.25568
  Beta  occ. eigenvalues --   -0.24401  -0.24173  -0.22181  -0.19862  -0.19201
  Beta  occ. eigenvalues --   -0.18633  -0.18049  -0.15932  -0.12314  -0.11318
  Beta virt. eigenvalues --    0.05468   0.06324   0.06959   0.07045   0.07492
  Beta virt. eigenvalues --    0.07563   0.07988   0.08439   0.08804   0.09704
  Beta virt. eigenvalues --    0.09756   0.10138   0.10453   0.10815   0.10963

 Mulliken charges and spin densities:
               1          2
     1  C   -0.307039  -0.300684
     2  C    0.000285  -0.228724
     3  C   -0.366666  -0.034794
     4  C   -0.375215  -0.088756
     5  C    0.471006  -0.044148
     6  S   -0.138253  -0.103247
     7  C   -0.304920   0.217101
     8  N    0.081047   0.015243
     9  N   -0.144108  -0.003453
    10  C    0.131977   0.103360
    11  O   -0.310068   0.022735
    12  N   -0.026843   0.010441
    13  C   -0.333269   0.144468
    14  C   -0.075882  -0.556837
    15  N    0.059748   0.132400
    16  C   -0.297134  -0.332432
    17  C   -0.202681   0.081320
    18  C    0.194081  -0.491875
    19  C    0.443832  -0.759443
    20  O   -0.229743   0.005748
    21  H    0.137226   0.050150
    22  H    0.014618   0.098677
    23  H    0.093457   0.036622
    24  H    0.130791  -0.012401
    25  H   -0.258568   0.406532
    26  H   -0.055916   0.201060
    27  H    0.113394   0.050834
    28  H    0.154525   0.091432
    29  H    0.338882   0.005003
    30  H    0.385563  -0.125265
    31  H    0.167641   0.037199
    32  H    0.224003  -0.081270
    33  H   -0.312802   0.477046
    34  H    0.130263   0.028591
    35  H    0.128250   0.034626
    36  H    0.185931  -0.024309
    37  H    0.157460   0.075201
    38  H   -0.408677   0.586326
    39  H   -0.069588   0.203667
    40  H   -0.592449   0.756777
    41  H    0.148258  -0.013347
    42  H   -0.082416   0.328428
 Sum of Mulliken charges =  -1.00000   1.00000

 Dipole moment (field-independent basis, Debye):
    X=              6.2030    Y=             -2.2216    Z=              0.0476  Tot=              6.5890
 Quadrupole moment (field-independent basis, Debye-Ang):
   XX=           -289.0377   YY=           -164.7756   ZZ=           -150.2703
   XY=              2.9294   XZ=             -3.9879   YZ=              2.1142

 Summary of Natural Population Analysis:

                                       Natural Population
                Natural  -----------------------------------------------
    Atom  No    Charge         Core      Valence    Rydberg      Total
 -----------------------------------------------------------------------
      C    1   -0.28767      0.99967     2.28324    0.00476     3.28767
      C    2   -0.18471      0.99964     2.17730    0.00777     3.18471
      C    3   -0.20108      0.99959     2.19054    0.01095     3.20108
      C    4    0.06687      0.99948     1.91787    0.01578     2.93313
      C    5   -0.19990      0.99944     2.19117    0.00930     3.19990
      S    6    0.17776      4.99946     2.80271    0.02008     7.82224
      C    7    0.15354      0.99960     1.82861    0.01825     2.84646
      N    8   -0.27478      0.99962     2.76452    0.01064     3.77478
      N    9   -0.33268      0.99962     2.82142    0.01165     3.83268
      C   10    0.42606      0.99967     1.55214    0.02213     2.57394
      O   11   -0.31312      0.99987     3.30813    0.00511     4.31312
      N   12   -0.27488      0.99964     2.76602    0.00922     3.77488
      C   13   -0.10005      0.99961     2.08944    0.01100     3.10005
      C   14   -0.08630      0.99961     2.07425    0.01244     3.08630
      N   15   -0.28258      0.99972     2.76942    0.01344     3.78258
      C   16   -0.08899      0.99961     2.07814    0.01123     3.08899
      C   17   -0.09439      0.99961     2.08485    0.00993     3.09439
      C   18   -0.09373      0.99960     2.08028    0.01385     3.09373
      C   19   -0.02026      0.99960     2.00733    0.01333     3.02026
      O   20   -0.37161      0.99990     3.36409    0.00763     4.37161
      H   21    0.10527      0.00000     0.39345    0.00127     0.39473
      H   22    0.09406      0.00000     0.40503    0.00090     0.40594
      H   23    0.09498      0.00000     0.40380    0.00122     0.40502
      H   24    0.09303      0.00000     0.40580    0.00117     0.40697
      H   25    0.09331      0.00000     0.40512    0.00157     0.40669
      H   26    0.10200      0.00000     0.39700    0.00101     0.39800
      H   27    0.10277      0.00000     0.39599    0.00124     0.39723
      H   28    0.10782      0.00000     0.39085    0.00133     0.39218
      H   29    0.20543      0.00000     0.29292    0.00165     0.29457
      H   30    0.10747      0.00000     0.39108    0.00144     0.39253
      H   31    0.10670      0.00000     0.39238    0.00093     0.39330
      H   32    0.08975      0.00000     0.40902    0.00123     0.41025
      H   33    0.10188      0.00000     0.39711    0.00101     0.39812
      H   34    0.09785      0.00000     0.40097    0.00118     0.40215
      H   35    0.09718      0.00000     0.40197    0.00085     0.40282
      H   36    0.10645      0.00000     0.39256    0.00098     0.39355
      H   37    0.09240      0.00000     0.40636    0.00123     0.40760
      H   38    0.09837      0.00000     0.39918    0.00245     0.40163
      H   39    0.09331      0.00000     0.40554    0.00115     0.40669
      H   40    0.07958      0.00000     0.41821    0.00222     0.42042
      H   41    0.08095      0.00000     0.41768    0.00138     0.41905
      H   42    0.23192      0.00000     0.26084    0.00724     0.26808
 =======================================================================
   * Total *    0.00000     23.99256    55.73431    0.27313    80.00000

 Normal termination of Gaussian 16 at Sat Dec 12 17:52:25 2020.
