 Gaussian 16, Revision A.03,

 -----------------------------------------------------------
 # opt freq B3LYP/6-31G(d) empiricaldispersion=gd3bj scf=xqc
 -----------------------------------------------------------

 -------------------------------
 CID_113583074_JID_7051_neutraal
 -------------------------------
 Symbolic Z-matrix:
 Charge =  0 Multiplicity = 1

 SCF Done:  E(RB3LYP) =  -1181.82345129     A.U. after   15 cycles
 SCF Done:  E(RB3LYP) =  -1181.82674051     A.U. after   12 cycles
 SCF Done:  E(RB3LYP) =  -1181.82590685     A.U. after   13 cycles
 SCF Done:  E(RB3LYP) =  -1181.82901621     A.U. after   13 cycles
 SCF Done:  E(RB3LYP) =  -1181.82938331     A.U. after   13 cycles
 SCF Done:  E(RB3LYP) =  -1181.83084046     A.U. after   14 cycles
 SCF Done:  E(RB3LYP) =  -1181.82860905     A.U. after   13 cycles
 SCF Done:  E(RB3LYP) =  -1181.83202161     A.U. after   12 cycles
 SCF Done:  E(RB3LYP) =  -1181.83246059     A.U. after   11 cycles
 SCF Done:  E(RB3LYP) =  -1181.83258313     A.U. after   12 cycles
 SCF Done:  E(RB3LYP) =  -1181.83514158     A.U. after    8 cycles
 SCF Done:  E(RB3LYP) =  -1181.83514195     A.U. after    8 cycles
 SCF Done:  E(RB3LYP) =  -1181.83514220     A.U. after    8 cycles
 SCF Done:  E(RB3LYP) =  -1181.83514224     A.U. after    7 cycles
 SCF Done:  E(RB3LYP) =  -1181.83514226     A.U. after    7 cycles
 SCF Done:  E(RB3LYP) =  -1181.83514228     A.U. after    6 cycles
 Optimization completed.
    -- Stationary point found.
 Normal termination of Gaussian 16 at Mon Dec 14 19:28:29 2020.

 --------------------------------------------------------------------
 #N Geom=AllCheck Guess=TCheck SCRF=Check GenChk RB3LYP/6-31G(d) Freq
 --------------------------------------------------------------------

 Structure from the checkpoint file:  "JID_7051.chk"
 -------------------------------
 CID_113583074_JID_7051_neutraal
 -------------------------------
 Charge =  0 Multiplicity = 1

 SCF Done:  E(RB3LYP) =  -1181.83514228     A.U. after    1 cycles

  Exact polarizability: 157.692   1.631 146.475  -3.741   0.665 135.067
 Approx polarizability: 203.766   3.720 204.012  -8.370   9.167 220.730

                      1                      2                      3
                      A                      A                      A
 Frequencies --     17.4244                35.4863                52.9778
 Red. masses --      6.7559                 4.5179                 6.4206
 Frc consts  --      0.0012                 0.0034                 0.0106
 IR Inten    --      3.5404                 0.0396                 0.7977

                      4                      5                      6
                      A                      A                      A
 Frequencies --     63.7902                87.0690               108.9965
 Red. masses --      3.9811                 4.6405                 3.3779
 Frc consts  --      0.0095                 0.0207                 0.0236
 IR Inten    --      1.0293                 1.9814                 2.0796

                      7                      8                      9
                      A                      A                      A
 Frequencies --    124.8535               148.8133               162.4825
 Red. masses --      2.7824                 2.9325                 4.0411
 Frc consts  --      0.0256                 0.0383                 0.0629
 IR Inten    --      1.4454                 1.3490                 6.7402

                     10                     11                     12
                      A                      A                      A
 Frequencies --    178.1361               180.4070               217.6172
 Red. masses --      2.5348                 2.8295                 1.1429
 Frc consts  --      0.0474                 0.0543                 0.0319
 IR Inten    --      0.8100                 2.6229                 0.1499

                     13                     14                     15
                      A                      A                      A
 Frequencies --    236.0706               251.5256               256.0724
 Red. masses --      3.0363                 1.1730                 2.6388
 Frc consts  --      0.0997                 0.0437                 0.1019
 IR Inten    --      1.3468                 0.6280                 0.5213

                     16                     17                     18
                      A                      A                      A
 Frequencies --    308.1916               317.7307               318.6655
 Red. masses --      3.8638                 3.2884                 2.5343
 Frc consts  --      0.2162                 0.1956                 0.1516
 IR Inten    --      1.7794                 1.9772                 0.9572

                     19                     20                     21
                      A                      A                      A
 Frequencies --    341.6375               385.2881               414.1791
 Red. masses --      3.0578                 2.8747                 4.8906
 Frc consts  --      0.2103                 0.2514                 0.4943
 IR Inten    --      2.5131                 4.5067                24.6816

                     22                     23                     24
                      A                      A                      A
 Frequencies --    426.9254               436.1920               464.2194
 Red. masses --      2.8574                 2.9511                 4.4878
 Frc consts  --      0.3069                 0.3308                 0.5698
 IR Inten    --      0.9868                 3.7904                10.2022

                     25                     26                     27
                      A                      A                      A
 Frequencies --    484.7278               522.1038               547.9539
 Red. masses --      5.3913                 4.9335                 3.7733
 Frc consts  --      0.7464                 0.7924                 0.6675
 IR Inten    --     48.6551                13.2913                 7.2628

                     28                     29                     30
                      A                      A                      A
 Frequencies --    584.9596               599.9237               637.5310
 Red. masses --      1.6936                 1.8652                 2.7356
 Frc consts  --      0.3414                 0.3955                 0.6551
 IR Inten    --     44.2552                72.7340                25.6693

                     31                     32                     33
                      A                      A                      A
 Frequencies --    669.5061               732.7159               743.1770
 Red. masses --      2.3757                 3.6432                 4.0189
 Frc consts  --      0.6274                 1.1524                 1.3078
 IR Inten    --     50.6580                34.0914                20.0660

                     34                     35                     36
                      A                      A                      A
 Frequencies --    780.3781               818.9298               839.8965
 Red. masses --      1.9662                 1.5157                 2.5202
 Frc consts  --      0.7055                 0.5989                 1.0475
 IR Inten    --     85.3963                11.7019                37.3182

                     37                     38                     39
                      A                      A                      A
 Frequencies --    860.0565               901.2462               931.3569
 Red. masses --      1.7629                 1.9472                 2.1962
 Frc consts  --      0.7683                 0.9319                 1.1224
 IR Inten    --     39.6052                 2.8884                 3.8254

                     40                     41                     42
                      A                      A                      A
 Frequencies --    934.9368               949.6799               966.8158
 Red. masses --      2.9087                 2.2716                 1.8349
 Frc consts  --      1.4980                 1.2071                 1.0105
 IR Inten    --     58.1210                47.0193                12.1941

                     43                     44                     45
                      A                      A                      A
 Frequencies --    980.6776               995.4360               998.8531
 Red. masses --      1.7709                 1.4288                 1.5496
 Frc consts  --      1.0034                 0.8342                 0.9109
 IR Inten    --      9.3278                 4.5708                 0.9935

                     46                     47                     48
                      A                      A                      A
 Frequencies --   1004.7883              1013.3610              1085.6891
 Red. masses --      1.4784                 1.7375                 2.1366
 Frc consts  --      0.8794                 1.0513                 1.4838
 IR Inten    --     44.5780                 1.1994                12.1217

                     49                     50                     51
                      A                      A                      A
 Frequencies --   1113.0446              1114.2017              1124.1220
 Red. masses --      3.5936                 2.3583                 2.2922
 Frc consts  --      2.6231                 1.7250                 1.7066
 IR Inten    --     53.7311                 4.9673                 4.4222

                     52                     53                     54
                      A                      A                      A
 Frequencies --   1129.9482              1139.2071              1169.9078
 Red. masses --      6.3936                 3.0230                 2.4675
 Frc consts  --      4.8096                 2.3115                 1.9898
 IR Inten    --    114.4515                16.5865                26.3163

                     55                     56                     57
                      A                      A                      A
 Frequencies --   1176.8813              1186.9323              1221.1394
 Red. masses --      2.5971                 1.8605                 1.3963
 Frc consts  --      2.1194                 1.5443                 1.2267
 IR Inten    --      0.5005                10.0357                 5.8190

                     58                     59                     60
                      A                      A                      A
 Frequencies --   1244.6668              1279.9548              1287.1820
 Red. masses --      1.2319                 1.1968                 1.3276
 Frc consts  --      1.1244                 1.1552                 1.2959
 IR Inten    --     12.6094                 4.8444                17.6885

                     61                     62                     63
                      A                      A                      A
 Frequencies --   1307.6944              1326.7295              1331.9297
 Red. masses --      1.5338                 1.3057                 3.0482
 Frc consts  --      1.5453                 1.3541                 3.1861
 IR Inten    --     46.0356                 4.7731               126.0475

                     64                     65                     66
                      A                      A                      A
 Frequencies --   1345.0935              1358.8639              1365.8303
 Red. masses --      1.2810                 1.2575                 1.6091
 Frc consts  --      1.3656                 1.3681                 1.7686
 IR Inten    --      2.4639                67.2255               140.0794

                     67                     68                     69
                      A                      A                      A
 Frequencies --   1375.4412              1381.1500              1386.5753
 Red. masses --      1.2531                 1.3071                 1.3668
 Frc consts  --      1.3968                 1.4691                 1.5482
 IR Inten    --     10.8154                 4.2631                61.1438

                     70                     71                     72
                      A                      A                      A
 Frequencies --   1402.6309              1414.2276              1422.6537
 Red. masses --      1.3998                 1.5372                 1.4064
 Frc consts  --      1.6226                 1.8114                 1.6770
 IR Inten    --     12.3142                 1.6180                 4.9609

                     73                     74                     75
                      A                      A                      A
 Frequencies --   1429.1404              1439.7654              1443.8841
 Red. masses --      1.3774                 1.2404                 1.3357
 Frc consts  --      1.6575                 1.5150                 1.6407
 IR Inten    --      8.3421                 4.7613                55.1719

                     76                     77                     78
                      A                      A                      A
 Frequencies --   1484.9825              1485.7471              1487.8519
 Red. masses --      1.0502                 1.0898                 1.3605
 Frc consts  --      1.3645                 1.4173                 1.7744
 IR Inten    --      3.3576                 3.4251                13.4053

                     79                     80                     81
                      A                      A                      A
 Frequencies --   1495.5558              1516.2304              1521.2947
 Red. masses --      1.3298                 1.1748                 1.0995
 Frc consts  --      1.7525                 1.5913                 1.4992
 IR Inten    --     10.9952                38.0192                 2.3218

                     82                     83                     84
                      A                      A                      A
 Frequencies --   1525.5611              1530.1109              1533.2955
 Red. masses --      1.0732                 1.0721                 1.0511
 Frc consts  --      1.4716                 1.4789                 1.4560
 IR Inten    --      3.5584                 2.0841                13.5870

                     85                     86                     87
                      A                      A                      A
 Frequencies --   1549.1352              1560.7043              1778.3801
 Red. masses --      1.0935                 1.0789                 7.5530
 Frc consts  --      1.5462                 1.5484                14.0740
 IR Inten    --      0.6660                13.0681               302.1516

                     88                     89                     90
                      A                      A                      A
 Frequencies --   2983.4727              2994.9381              3035.3715
 Red. masses --      1.0724                 1.0835                 1.0643
 Frc consts  --      5.6239                 5.7261                 5.7773
 IR Inten    --     93.1522                31.1627                21.1747

                     91                     92                     93
                      A                      A                      A
 Frequencies --   3039.9066              3057.3614              3061.3602
 Red. masses --      1.0425                 1.0901                 1.0792
 Frc consts  --      5.6763                 6.0038                 5.9592
 IR Inten    --     35.7624                28.3470                17.7419

                     94                     95                     96
                      A                      A                      A
 Frequencies --   3071.0667              3073.4941              3087.8481
 Red. masses --      1.0688                 1.0667                 1.0632
 Frc consts  --      5.9391                 5.9368                 5.9730
 IR Inten    --     26.3409                17.3601                44.4605

                     97                     98                     99
                      A                      A                      A
 Frequencies --   3089.0996              3089.1390              3104.2890
 Red. masses --      1.0937                 1.0347                 1.1002
 Frc consts  --      6.1494                 5.8175                 6.2466
 IR Inten    --     28.7358                 5.9092                50.2702

                    100                    101                    102
                      A                      A                      A
 Frequencies --   3121.2540              3128.7796              3141.7842
 Red. masses --      1.0990                 1.1007                 1.1015
 Frc consts  --      6.3079                 6.3484                 6.4060
 IR Inten    --     34.7056                27.4241                15.2957

                    103                    104                    105
                      A                      A                      A
 Frequencies --   3161.7456              3185.2978              3201.1643
 Red. masses --      1.0953                 1.1064                 1.1079
 Frc consts  --      6.4513                 6.6137                 6.6891
 IR Inten    --      6.3216                 1.3409                 0.5101

                    106                    107                    108
                      A                      A                      A
 Frequencies --   3487.3435              3488.4313              3589.9150
 Red. masses --      1.0737                 1.0746                 1.0759
 Frc consts  --      7.6937                 7.7046                 8.1698
 IR Inten    --     48.2750                 0.5740                24.4984

 - Thermochemistry -
 -------------------
 Temperature   298.150 Kelvin.  Pressure   1.00000 Atm.
 Atom     1 has atomic number  6 and mass  12.00000

 Molecular mass:   263.13036 amu.
 Principal axes and moments of inertia in atomic units:
                           1         2         3
     Eigenvalues --  3282.004715743.469477195.99667
           X            0.99917   0.04053  -0.00506
           Y           -0.04067   0.99861  -0.03363
           Z            0.00369   0.03381   0.99942
 This molecule is an asymmetric top.
 Rotational symmetry number  1.
 Warning -- assumption of classical behavior for rotation
           may cause significant error
 Rotational temperatures (Kelvin)      0.02639     0.01508     0.01204
 Rotational constants (GHZ):           0.54989     0.31422     0.25080
 Zero-point vibrational energy     865499.2 (Joules/Mol)
                                  206.85927 (Kcal/Mol)
 Warning -- explicit consideration of  29 degrees of freedom as
           vibrations may cause significant error
 Vibrational temperatures:     25.07    51.06    76.22    91.78   125.27
          (Kelvin)            156.82   179.64   214.11   233.78   256.30
                              259.57   313.10   339.65   361.89   368.43
                              443.42   457.14   458.49   491.54   554.34
                              595.91   614.25   627.58   667.91   697.42
                              751.19   788.38   841.63   863.16   917.26
                              963.27  1054.21  1069.27  1122.79  1178.26
                             1208.42  1237.43  1296.69  1340.01  1345.17
                             1366.38  1391.03  1410.98  1432.21  1437.13
                             1445.67  1458.00  1562.06  1601.42  1603.09
                             1617.36  1625.74  1639.06  1683.24  1693.27
                             1707.73  1756.95  1790.80  1841.57  1851.97
                             1881.48  1908.87  1916.35  1935.29  1955.10
                             1965.13  1978.95  1987.17  1994.97  2018.07
                             2034.76  2046.88  2056.21  2071.50  2077.43
                             2136.56  2137.66  2140.69  2151.77  2181.52
                             2188.80  2194.94  2201.49  2206.07  2228.86
                             2245.51  2558.69  4292.55  4309.05  4367.22
                             4373.75  4398.86  4404.61  4418.58  4422.07
                             4442.72  4444.53  4444.58  4466.38  4490.79
                             4501.62  4520.33  4549.05  4582.93  4605.76
                             5017.51  5019.07  5165.09

 Zero-point correction=                           0.329651 (Hartree/Particle)
 Thermal correction to Energy=                    0.348077
 Thermal correction to Enthalpy=                  0.349021
 Thermal correction to Gibbs Free Energy=         0.282043
 Sum of electronic and zero-point Energies=          -1181.505491
 Sum of electronic and thermal Energies=             -1181.487065
 Sum of electronic and thermal Enthalpies=           -1181.486121
 Sum of electronic and thermal Free Energies=        -1181.553099

                     E (Thermal)             CV                S
                      KCal/Mol        Cal/Mol-Kelvin    Cal/Mol-Kelvin
 Total                  218.422             69.080            140.967
 Electronic               0.000              0.000              0.000
 Translational            0.889              2.981             42.602
 Rotational               0.889              2.981             33.272
 Vibrational            216.644             63.119             65.093
 Vibration     1          0.593              1.986              6.908
 Vibration     2          0.594              1.982              5.496
 Vibration     3          0.596              1.976              4.703
 Vibration     4          0.597              1.972              4.336
 Vibration     5          0.601              1.958              3.725
 Vibration     6          0.606              1.942              3.287
 Vibration     7          0.610              1.928              3.024
 Vibration     8          0.618              1.904              2.687
 Vibration     9          0.623              1.888              2.521
 Vibration    10          0.629              1.869              2.348
 Vibration    11          0.629              1.866              2.324
 Vibration    12          0.646              1.814              1.979
 Vibration    13          0.655              1.786              1.832
 Vibration    14          0.663              1.760              1.720
 Vibration    15          0.666              1.753              1.688
 Vibration    16          0.698              1.658              1.372
 Vibration    17          0.704              1.640              1.322
 Vibration    18          0.705              1.638              1.317
 Vibration    19          0.721              1.592              1.204
 Vibration    20          0.754              1.502              1.018
 Vibration    21          0.778              1.439              0.912
 Vibration    22          0.789              1.412              0.869
 Vibration    23          0.797              1.391              0.839
 Vibration    24          0.822              1.329              0.754
 Vibration    25          0.841              1.284              0.697
 Vibration    26          0.877              1.201              0.605
 Vibration    27          0.903              1.144              0.548
 Vibration    28          0.942              1.064              0.476
 Vibration    29          0.958              1.032              0.450

 Optimization completed.
    -- Stationary point found.
 Normal termination of Gaussian 16 at Mon Dec 14 19:45:21 2020.

 ----------------------------------------------------------------------
 # B3LYP/6-311++G(d,p) empiricaldispersion=gd3bj scf=xqc pop=npa geom=c
 heck
 ----------------------------------------------------------------------

 ---------------------------------------
 CID_113583074_JID_7051_Energie_neutraal
 ---------------------------------------
 Structure from the checkpoint file:  "JID_7051.chk"
 Charge =  0 Multiplicity = 1

 SCF Done:  E(RB3LYP) =  -1182.09829920     A.U. after   15 cycles
 Normal termination of Gaussian 16 at Mon Dec 14 19:54:18 2020.

 ----------------------------------------------------------------------
 # B3LYP/6-311++G(d,p) empiricaldispersion=gd3bj scf=xqc pop=npa geom=c
 heck
 ----------------------------------------------------------------------

 -------------------------------------
 CID_113583074_JID_7051_Energie_kation
 -------------------------------------
 Structure from the checkpoint file:  "JID_7051.chk"
 Charge =  1 Multiplicity = 2

 SCF Done:  E(UB3LYP) =  -1181.78686714     A.U. after   29 cycles
 Normal termination of Gaussian 16 at Mon Dec 14 20:18:13 2020.
 Gaussian 16:  ES64L-G16RevA.03 25-Dec-2016

 ----------------------------------------------------------------------
 # B3LYP/6-311++G(d,p) empiricaldispersion=gd3bj scf=xqc pop=npa geom=c
 heck
 ----------------------------------------------------------------------

 ------------------------------------
 CID_113583074_JID_7051_Energie_anion
 ------------------------------------
 Structure from the checkpoint file:  "JID_7051.chk"
 Charge = -1 Multiplicity = 2

                         Standard orientation:
 ---------------------------------------------------------------------
 Center     Atomic      Atomic             Coordinates (Angstroms)
 Number     Number       Type             X           Y           Z
 ---------------------------------------------------------------------
      1          6           0        0.943369    3.119997   -0.877005
      2          6           0        1.379870    1.885857   -0.087976
      3          6           0        2.797581    2.006752    0.478144
      4          6           0        3.125273    0.824552    1.409486
      5          7           0        2.360878   -0.386342    1.037692
      6          6           0        2.206267   -0.526536   -0.412745
      7          6           0        1.304269    0.616938   -0.959294
      8          6           0        1.634118   -1.875045   -0.842913
      9          8           0        2.026147   -2.397738   -1.878713
     10          7           0        0.612063   -2.476461   -0.131682
     11          6           0        0.035575   -2.227763    1.190993
     12          6           0       -0.847691   -0.982372    1.259480
     13          7           0       -1.854686   -1.044959    0.189167
     14         16           0       -2.691929    0.378381   -0.170013
     15          8           0       -1.971999    1.551624    0.344917
     16          8           0       -3.055462    0.281641   -1.585989
     17          6           0       -4.172473    0.183056    0.830431
     18          1           0        0.954345    4.014745   -0.243626
     19          1           0        1.611184    3.300531   -1.729247
     20          1           0       -0.075143    2.990395   -1.256545
     21          1           0        0.685023    1.770241    0.752010
     22          1           0        3.510043    2.039399   -0.357527
     23          1           0        2.921469    2.947038    1.027346
     24          1           0        2.854719    1.075854    2.442241
     25          1           0        4.212070    0.640579    1.394525
     26          1           0        2.859988   -1.197786    1.396444
     27          1           0        3.174183   -0.481817   -0.934907
     28          1           0        0.262490    0.293337   -1.034122
     29          1           0        1.630497    0.841175   -1.981088
     30          1           0        0.361803   -3.355519   -0.567978
     31          1           0       -0.565143   -3.112292    1.422308
     32          1           0        0.809288   -2.130212    1.954497
     33          1           0       -1.358866   -0.970546    2.228836
     34          1           0       -0.223769   -0.090239    1.195403
     35          1           0       -1.444041   -1.377001   -0.685154
     36          1           0       -4.703831   -0.707519    0.494111
     37          1           0       -3.880475    0.093890    1.878639
     38          1           0       -4.779186    1.079157    0.684476
 ---------------------------------------------------------------------

 SCF Done:  E(UB3LYP) =  -1182.09357387     A.U. after   31 cycles

 The electronic state is 2-A.
 Alpha  occ. eigenvalues --  -88.97243 -19.02780 -19.02690 -18.99852 -14.24995
 Alpha  occ. eigenvalues --  -14.24741 -14.21175 -10.18351 -10.11922 -10.11886
 Alpha  occ. eigenvalues --  -10.11572 -10.11225 -10.10681 -10.08323 -10.08189
 Alpha  occ. eigenvalues --  -10.08071 -10.06961  -8.03461  -5.99737  -5.99706
 Alpha  occ. eigenvalues --   -5.99536  -1.02943  -0.95110  -0.91971  -0.84730
 Alpha  occ. eigenvalues --   -0.82983  -0.81573  -0.71821  -0.68892  -0.67620
 Alpha  occ. eigenvalues --   -0.65540  -0.61572  -0.56831  -0.55453  -0.52971
 Alpha  occ. eigenvalues --   -0.52504  -0.48578  -0.45625  -0.43944  -0.42752
 Alpha  occ. eigenvalues --   -0.41829  -0.40840  -0.39784  -0.39097  -0.37475
 Alpha  occ. eigenvalues --   -0.37271  -0.35802  -0.35281  -0.34335  -0.34180
 Alpha  occ. eigenvalues --   -0.33741  -0.32524  -0.32211  -0.31210  -0.30557
 Alpha  occ. eigenvalues --   -0.30059  -0.28855  -0.28475  -0.28246  -0.26072
 Alpha  occ. eigenvalues --   -0.25749  -0.23957  -0.23604  -0.23414  -0.22826
 Alpha  occ. eigenvalues --   -0.22412  -0.21731  -0.18668  -0.17144  -0.16566
 Alpha  occ. eigenvalues --   -0.14091   0.03658
 Alpha virt. eigenvalues --    0.05723   0.06640   0.07315   0.07733   0.08503
 Alpha virt. eigenvalues --    0.08639   0.09366   0.09896   0.10083   0.10482
 Alpha virt. eigenvalues --    0.10703   0.11155   0.11915   0.12196   0.12976

  Beta  occ. eigenvalues --  -88.97237 -19.02772 -19.02680 -18.99829 -14.24977
  Beta  occ. eigenvalues --  -14.24731 -14.21143 -10.18339 -10.11882 -10.11880
  Beta  occ. eigenvalues --  -10.11512 -10.11204 -10.10662 -10.08319 -10.08184
  Beta  occ. eigenvalues --  -10.08070 -10.06958  -8.03454  -5.99730  -5.99701
  Beta  occ. eigenvalues --   -5.99530  -1.02917  -0.95071  -0.91945  -0.84695
  Beta  occ. eigenvalues --   -0.82942  -0.81537  -0.71803  -0.68829  -0.67592
  Beta  occ. eigenvalues --   -0.65473  -0.61546  -0.56786  -0.55408  -0.52928
  Beta  occ. eigenvalues --   -0.52453  -0.48538  -0.45593  -0.43910  -0.42701
  Beta  occ. eigenvalues --   -0.41769  -0.40808  -0.39763  -0.39062  -0.37444
  Beta  occ. eigenvalues --   -0.37240  -0.35756  -0.35244  -0.34293  -0.34145
  Beta  occ. eigenvalues --   -0.33708  -0.32496  -0.32163  -0.31175  -0.30515
  Beta  occ. eigenvalues --   -0.30016  -0.28823  -0.28448  -0.28207  -0.26048
  Beta  occ. eigenvalues --   -0.25729  -0.23947  -0.23587  -0.23401  -0.22801
  Beta  occ. eigenvalues --   -0.22388  -0.21713  -0.18644  -0.17103  -0.16532
  Beta  occ. eigenvalues --   -0.14054
  Beta virt. eigenvalues --    0.06014   0.06567   0.07245   0.07779   0.08141
  Beta virt. eigenvalues --    0.08871   0.09268   0.09644   0.10224   0.10334
  Beta virt. eigenvalues --    0.10755   0.11001   0.11453   0.12085   0.12428

 Mulliken charges and spin densities:
               1          2
     1  C   -0.586620  -0.092161
     2  C   -0.017805   0.265807
     3  C   -0.474969   0.148208
     4  C    0.383468  -0.854373
     5  N   -0.273949   0.064031
     6  C    0.410050  -0.341799
     7  C    0.317591  -0.637932
     8  C   -0.860611   0.537451
     9  O   -0.296589   0.008788
    10  N   -0.566453   0.228127
    11  C    1.840810  -2.275261
    12  C   -0.881566   0.545127
    13  N   -0.281497   0.014140
    14  S    0.258026  -0.076727
    15  O   -0.137740   0.018531
    16  O   -0.178639   0.016879
    17  C    0.447900  -1.008835
    18  H    0.096402   0.029111
    19  H    0.093432   0.022590
    20  H    0.195449  -0.011412
    21  H    0.183990   0.032220
    22  H    0.156238  -0.009762
    23  H    0.081711   0.087115
    24  H   -0.109712   0.277479
    25  H   -0.127713   0.279924
    26  H   -0.186337   0.454458
    27  H    0.180429   0.045507
    28  H    0.293282  -0.009888
    29  H    0.178592  -0.002180
    30  H    0.069852   0.268607
    31  H   -0.612526   0.810959
    32  H   -0.158325   0.350669
    33  H   -0.510988   0.716901
    34  H    0.458208  -0.261430
    35  H    0.302380   0.030182
    36  H   -0.198779   0.411953
    37  H   -0.453401   0.676054
    38  H   -0.033593   0.240946
 Sum of Mulliken charges =  -1.00000   1.00000

 Dipole moment (field-independent basis, Debye):
    X=              2.3505    Y=              4.9923    Z=             -2.8767  Tot=              6.2228
 Quadrupole moment (field-independent basis, Debye-Ang):
   XX=           -176.3307   YY=           -160.1192   ZZ=           -163.5476
   XY=              6.0244   XZ=              3.4285   YZ=              4.0075

 Summary of Natural Population Analysis:

                                       Natural Population
                Natural  -----------------------------------------------
    Atom  No    Charge         Core      Valence    Rydberg      Total
 -----------------------------------------------------------------------
      C    1   -0.28003      0.99965     2.27543    0.00495     3.28003
      C    2   -0.11785      0.99959     2.10864    0.00962     3.11785
      C    3   -0.19438      0.99961     2.18625    0.00851     3.19438
      C    4   -0.08111      0.99963     2.06999    0.01149     3.08111
      N    5   -0.34697      0.99973     2.83551    0.01173     3.84697
      C    6   -0.04706      0.99955     2.03479    0.01272     3.04706
      C    7   -0.18532      0.99959     2.17828    0.00744     3.18532
      C    8    0.34941      0.99963     1.62710    0.02386     2.65059
      O    9   -0.31965      0.99988     3.31434    0.00543     4.31965
      N   10   -0.33210      0.99967     2.82113    0.01129     3.83210
      C   11   -0.09059      0.99960     2.07785    0.01315     3.09059
      C   12   -0.10284      0.99959     2.09006    0.01319     3.10284
      N   13   -0.43874      0.99975     2.92593    0.01306     3.93874
      S   14    1.09257      4.99934     1.80928    0.09881     6.90743
      O   15   -0.46616      0.99991     3.46043    0.00583     4.46616
      O   16   -0.46644      0.99991     3.46101    0.00552     4.46644
      C   17   -0.38805      0.99961     2.37860    0.00985     3.38805
      H   18    0.09646      0.00000     0.40278    0.00076     0.40354
      H   19    0.09080      0.00000     0.40833    0.00088     0.40920
      H   20    0.10885      0.00000     0.39028    0.00087     0.39115
      H   21    0.10500      0.00000     0.39275    0.00226     0.39500
      H   22    0.09225      0.00000     0.40663    0.00112     0.40775
      H   23    0.10118      0.00000     0.39798    0.00083     0.39882
      H   24    0.09331      0.00000     0.40554    0.00115     0.40669
      H   25    0.08288      0.00000     0.41596    0.00117     0.41712
      H   26    0.18014      0.00000     0.31649    0.00337     0.31986
      H   27    0.09278      0.00000     0.40551    0.00170     0.40722
      H   28    0.10049      0.00000     0.39716    0.00235     0.39951
      H   29    0.10042      0.00000     0.39866    0.00092     0.39958
      H   30    0.19792      0.00000     0.29990    0.00219     0.30208
      H   31    0.10339      0.00000     0.39361    0.00300     0.39661
      H   32    0.10871      0.00000     0.38824    0.00305     0.39129
      H   33    0.10155      0.00000     0.39606    0.00238     0.39845
      H   34    0.10474      0.00000     0.39175    0.00350     0.39526
      H   35    0.20019      0.00000     0.29716    0.00265     0.29981
      H   36    0.11867      0.00000     0.38015    0.00118     0.38133
      H   37    0.12006      0.00000     0.37792    0.00202     0.37994
      H   38    0.11552      0.00000     0.38359    0.00088     0.38448
 =======================================================================
   * Total *   -0.00000     20.99423    49.70107    0.30470    71.00000

 Normal termination of Gaussian 16 at Mon Dec 14 20:41:34 2020.
