 Gaussian 16, Revision A.03,

 -----------------------------------------------------------
 # opt freq B3LYP/6-31G(d) empiricaldispersion=gd3bj scf=xqc
 -----------------------------------------------------------

 ------------------------------
 CID_144145301_JID_111_neutraal
 ------------------------------
 Symbolic Z-matrix:
 Charge =  0 Multiplicity = 1

 SCF Done:  E(RB3LYP) =  -453.598079841     A.U. after   14 cycles
 SCF Done:  E(RB3LYP) =  -453.604289402     A.U. after   13 cycles
 SCF Done:  E(RB3LYP) =  -453.605390637     A.U. after   11 cycles
 SCF Done:  E(RB3LYP) =  -453.605513760     A.U. after   12 cycles
 SCF Done:  E(RB3LYP) =  -453.605548735     A.U. after   10 cycles
 SCF Done:  E(RB3LYP) =  -453.605577477     A.U. after   10 cycles
 SCF Done:  E(RB3LYP) =  -453.605737291     A.U. after   12 cycles
 SCF Done:  E(RB3LYP) =  -453.608051781     A.U. after   14 cycles
 SCF Done:  E(RB3LYP) =  -453.610982416     A.U. after   14 cycles
 SCF Done:  E(RB3LYP) =  -453.611406127     A.U. after   12 cycles
 SCF Done:  E(RB3LYP) =  -453.611474543     A.U. after   11 cycles
 SCF Done:  E(RB3LYP) =  -453.611488793     A.U. after   11 cycles
 SCF Done:  E(RB3LYP) =  -453.611495181     A.U. after   10 cycles
 SCF Done:  E(RB3LYP) =  -453.611496432     A.U. after    8 cycles
 Optimization completed.
    -- Stationary point found.

 1\1\GINC-NODE314\FOpt\RB3LYP\6-31G(d)\C6H10N4\VSC10255\08-Dec-2020\0\\
 # opt freq B3LYP/6-31G(d) empiricaldispersion=gd3bj scf=xqc\\CID_14414
 5301_JID_111_neutraal\\0,1\C,0.9190949672,-0.0919505606,0.2393794308\N
 ,0.1787509883,-1.2789305355,-0.1749485343\C,-1.2736395531,-1.078919184
 9,-0.2448989247\C,-1.7139674953,-0.0784359614,-1.2930708281\N,-1.87597
 50196,1.1844749257,-0.8689258523\N,-2.2064647546,2.1468630019,-1.73334
 50614\C,-2.3730410192,1.8401466006,-3.0217906537\C,-2.2153953976,0.549
 1028674,-3.535474478\C,-1.8713375259,-0.4453481731,-2.639094403\N,0.64

 Normal termination of Gaussian 16 at Tue Dec  8 10:17:31 2020.

 --------------------------------------------------------------------
 #N Geom=AllCheck Guess=TCheck SCRF=Check GenChk RB3LYP/6-31G(d) Freq
 --------------------------------------------------------------------

 Structure from the checkpoint file:  "JID_111.chk"
 ------------------------------
 CID_144145301_JID_111_neutraal
 ------------------------------
 Charge =  0 Multiplicity = 1

 SCF Done:  E(RB3LYP) =  -453.611496432     A.U. after    2 cycles

  Exact polarizability: 105.542   1.029  86.756 -11.020  -1.966  60.504
 Approx polarizability: 151.267  -1.806 153.934 -26.117  -4.017  92.558

                      1                      2                      3
                      A                      A                      A
 Frequencies --     48.7174                92.7092               108.6180
 Red. masses --      4.1247                 3.7851                 3.3397
 Frc consts  --      0.0058                 0.0192                 0.0232
 IR Inten    --      5.5943                 1.0950                 4.3087

                      4                      5                      6
                      A                      A                      A
 Frequencies --    236.0764               264.8392               301.4391
 Red. masses --      2.9214                 1.1951                 3.6004
 Frc consts  --      0.0959                 0.0494                 0.1928
 IR Inten    --      5.5505                 2.0063                 5.6754

                      7                      8                      9
                      A                      A                      A
 Frequencies --    342.2887               381.5497               416.2253
 Red. masses --      1.1725                 4.0326                 2.9684
 Frc consts  --      0.0809                 0.3459                 0.3030
 IR Inten    --     70.8494                 0.6048                 1.8351

                     10                     11                     12
                      A                      A                      A
 Frequencies --    434.3522               466.7450               519.2076
 Red. masses --      2.2634                 2.0289                 4.3239
 Frc consts  --      0.2516                 0.2604                 0.6868
 IR Inten    --      1.7055                10.9663                 1.5184

                     13                     14                     15
                      A                      A                      A
 Frequencies --    646.1555               664.2811               773.5955
 Red. masses --      7.5474                 4.8763                 2.5376
 Frc consts  --      1.8566                 1.2678                 0.8947
 IR Inten    --      0.5050                15.0110                 9.2110

                     16                     17                     18
                      A                      A                      A
 Frequencies --    803.4840               831.9387               871.1517
 Red. masses --      2.3380                 4.3792                 3.3733
 Frc consts  --      0.8893                 1.7858                 1.5083
 IR Inten    --     10.8619                31.9696                 9.8738

                     19                     20                     21
                      A                      A                      A
 Frequencies --    948.1877               961.2266               984.7718
 Red. masses --      1.9853                 1.4010                 2.0377
 Frc consts  --      1.0516                 0.7627                 1.1643
 IR Inten    --     28.0399                 1.6036                32.3845

                     22                     23                     24
                      A                      A                      A
 Frequencies --   1007.5671              1045.5331              1076.0289
 Red. masses --      1.3234                 7.1199                 2.5260
 Frc consts  --      0.7916                 4.5856                 1.7232
 IR Inten    --      0.2173                 4.2751                 1.4410

                     25                     26                     27
                      A                      A                      A
 Frequencies --   1086.2641              1120.7405              1130.0668
 Red. masses --      1.5145                 2.0382                 2.2199
 Frc consts  --      1.0529                 1.5083                 1.6703
 IR Inten    --      9.0789                44.3065                 2.5792

                     28                     29                     30
                      A                      A                      A
 Frequencies --   1164.0216              1191.8081              1226.4139
 Red. masses --      1.3577                 1.5748                 3.1665
 Frc consts  --      1.0838                 1.3180                 2.8061
 IR Inten    --      3.3527                 0.1082                 0.7220

                     31                     32                     33
                      A                      A                      A
 Frequencies --   1277.4744              1295.3865              1337.2233
 Red. masses --      2.3098                 2.4229                 1.4368
 Frc consts  --      2.2209                 2.3955                 1.5138
 IR Inten    --      0.8399                 4.0085                 2.1483

                     34                     35                     36
                      A                      A                      A
 Frequencies --   1345.0429              1386.4395              1445.2044
 Red. masses --      1.2441                 1.2988                 2.3987
 Frc consts  --      1.3261                 1.4710                 2.9517
 IR Inten    --      7.7804                 9.3081                10.4191

                     37                     38                     39
                      A                      A                      A
 Frequencies --   1475.7166              1478.5729              1493.7627
 Red. masses --      1.1871                 2.0024                 1.1200
 Frc consts  --      1.5232                 2.5792                 1.4725
 IR Inten    --      1.4268                13.6671                 5.1743

                     40                     41                     42
                      A                      A                      A
 Frequencies --   1511.8733              1529.4912              1609.1773
 Red. masses --      1.0538                 1.0534                 5.2302
 Frc consts  --      1.4192                 1.4520                 7.9795
 IR Inten    --     16.3190                 3.1942                 2.7282

                     43                     44                     45
                      A                      A                      A
 Frequencies --   1633.9920              1706.1452              2977.2962
 Red. masses --      5.3200                 1.0788                 1.0558
 Frc consts  --      8.3688                 1.8502                 5.5140
 IR Inten    --     10.4251                18.2667                48.6843

                     46                     47                     48
                      A                      A                      A
 Frequencies --   3082.2027              3085.5129              3134.6059
 Red. masses --      1.0736                 1.0639                 1.1036
 Frc consts  --      6.0092                 5.9676                 6.3891
 IR Inten    --     38.9831                33.9160                12.7450

                     49                     50                     51
                      A                      A                      A
 Frequencies --   3141.1335              3192.2176              3208.3814
 Red. masses --      1.1061                 1.0880                 1.0931
 Frc consts  --      6.4300                 6.5321                 6.6297
 IR Inten    --     18.3989                 6.5210                20.5522

                     52                     53                     54
                      A                      A                      A
 Frequencies --   3225.3991              3347.1319              3514.9195
 Red. masses --      1.0963                 1.0573                 1.0836
 Frc consts  --      6.7198                 6.9788                 7.8873
 IR Inten    --      4.4316                18.1923                 0.3184

 - Thermochemistry -
 -------------------
 Temperature   298.150 Kelvin.  Pressure   1.00000 Atm.
 Atom     1 has atomic number  6 and mass  12.00000

 Molecular mass:   138.09055 amu.
 Principal axes and moments of inertia in atomic units:
                           1         2         3
     Eigenvalues --   669.825601907.696762195.43430
           X            0.99966   0.02546   0.00509
           Y           -0.02550   0.99965   0.00748
           Z           -0.00490  -0.00761   0.99996
 This molecule is an asymmetric top.
 Rotational symmetry number  1.
 Warning -- assumption of classical behavior for rotation
           may cause significant error
 Rotational temperatures (Kelvin)      0.12931     0.04540     0.03945
 Rotational constants (GHZ):           2.69434     0.94603     0.82204
 Zero-point vibrational energy     440108.0 (Joules/Mol)
                                  105.18833 (Kcal/Mol)
 Warning -- explicit consideration of  12 degrees of freedom as
           vibrations may cause significant error
 Vibrational temperatures:     70.09   133.39   156.28   339.66   381.04
          (Kelvin)            433.70   492.48   548.96   598.86   624.94
                              671.54   747.02   929.67   955.75  1113.03
                             1156.03  1196.97  1253.39  1364.23  1382.99
                             1416.87  1449.66  1504.29  1548.17  1562.89
                             1612.50  1625.91  1674.77  1714.75  1764.54
                             1838.00  1863.77  1923.97  1935.22  1994.78
                             2079.33  2123.23  2127.34  2149.19  2175.25
                             2200.60  2315.25  2350.95  2454.76  4283.67
                             4434.60  4439.36  4510.00  4519.39  4592.89
                             4616.15  4640.63  4815.78  5057.19

 Zero-point correction=                           0.167628 (Hartree/Particle)
 Thermal correction to Energy=                    0.176876
 Thermal correction to Enthalpy=                  0.177821
 Thermal correction to Gibbs Free Energy=         0.132844
 Sum of electronic and zero-point Energies=           -453.443868
 Sum of electronic and thermal Energies=              -453.434620
 Sum of electronic and thermal Enthalpies=            -453.433676
 Sum of electronic and thermal Free Energies=         -453.478653

                     E (Thermal)             CV                S
                      KCal/Mol        Cal/Mol-Kelvin    Cal/Mol-Kelvin
 Total                  110.992             34.781             94.662
 Electronic               0.000              0.000              0.000
 Translational            0.889              2.981             40.680
 Rotational               0.889              2.981             29.419
 Vibrational            109.214             28.819             24.563
 Vibration     1          0.595              1.978              4.869
 Vibration     2          0.602              1.954              3.602
 Vibration     3          0.606              1.942              3.293
 Vibration     4          0.655              1.786              1.832
 Vibration     5          0.671              1.737              1.630
 Vibration     6          0.693              1.671              1.409
 Vibration     7          0.721              1.591              1.201
 Vibration     8          0.751              1.510              1.033
 Vibration     9          0.779              1.435              0.905
 Vibration    10          0.795              1.395              0.845
 Vibration    11          0.824              1.324              0.747
 Vibration    12          0.874              1.207              0.612

                           ! Non-Optimized Parameters !

 1\1\GINC-NODE314\Freq\RB3LYP\6-31G(d)\C6H10N4\VSC10255\08-Dec-2020\0\\
 #N Geom=AllCheck Guess=TCheck SCRF=Check GenChk RB3LYP/6-31G(d) Freq\\
 CID_144145301_JID_111_neutraal\\0,1\C,0.9190949672,-0.0919505606,0.239
 3794308\N,0.1787509883,-1.2789305355,-0.1749485343\C,-1.2736395531,-1.
 0789191849,-0.2448989247\C,-1.7139674953,-0.0784359614,-1.2930708281\N
 ,-1.8759750196,1.1844749257,-0.8689258523\N,-2.2064647546,2.1468630019
 ,-1.7333450614\C,-2.3730410192,1.8401466006,-3.0217906537\C,-2.2153953
 976,0.5491028674,-3.535474478\C,-1.8713375259,-0.4453481731,-2.6390944

 Normal termination of Gaussian 16 at Tue Dec  8 10:20:42 2020.

 ----------------------------------------------------------------------
 # B3LYP/6-311++G(d,p) empiricaldispersion=gd3bj scf=xqc pop=npa geom=c
 heck
 ----------------------------------------------------------------------

 --------------------------------------
 CID_144145301_JID_111_Energie_neutraal
 --------------------------------------
 Structure from the checkpoint file:  "JID_111.chk"
 Charge =  0 Multiplicity = 1

 SCF Done:  E(RB3LYP) =  -453.740559886     A.U. after   14 cycles
 Normal termination of Gaussian 16 at Tue Dec  8 10:21:30 2020.

 ----------------------------------------------------------------------
 # B3LYP/6-311++G(d,p) empiricaldispersion=gd3bj scf=xqc pop=npa geom=c
 heck
 ----------------------------------------------------------------------

 ------------------------------------
 CID_144145301_JID_111_Energie_kation
 ------------------------------------
 Structure from the checkpoint file:  "JID_111.chk"
 Charge =  1 Multiplicity = 2

 SCF Done:  E(UB3LYP) =  -453.432650551     A.U. after   26 cycles
 Normal termination of Gaussian 16 at Tue Dec  8 10:23:54 2020.
 Gaussian 16:  ES64L-G16RevA.03 25-Dec-2016

 -----------------------------------
 CID_144145301_JID_111_Energie_anion
 -----------------------------------
 Structure from the checkpoint file:  "JID_111.chk"
 Charge = -1 Multiplicity = 2

                         Standard orientation:
 ---------------------------------------------------------------------
 Center     Atomic      Atomic             Coordinates (Angstroms)
 Number     Number       Type             X           Y           Z
 ---------------------------------------------------------------------
      1          6           0       -2.199741   -1.127149   -0.759826
      2          7           0       -2.181450    0.001062    0.165108
      3          6           0       -1.122321   -0.078304    1.178165
      4          6           0        0.282409   -0.018451    0.615429
      5          7           0        0.866163   -1.200618    0.364831
      6          7           0        2.081538   -1.246983   -0.185941
      7          6           0        2.708413   -0.106968   -0.484788
      8          6           0        2.159869    1.159119   -0.257546
      9          6           0        0.900696    1.204740    0.310969
     10          7           0       -2.111564    1.264657   -0.501767
     11          1           0       -2.224003   -2.063755   -0.195422
     12          1           0       -1.322540   -1.159555   -1.430132
     13          1           0       -3.105250   -1.064542   -1.373377
     14          1           0       -1.284169    0.750212    1.873009
     15          1           0       -1.242138   -1.024492    1.712863
     16          1           0        3.694754   -0.226085   -0.925975
     17          1           0        2.708415    2.059381   -0.518340
     18          1           0        0.385346    2.137081    0.516285
     19          1           0       -1.517330    1.190661   -1.336960
     20          1           0       -3.051850    1.476350   -0.831981
 ---------------------------------------------------------------------

 SCF Done:  E(UB3LYP) =  -453.736661274     A.U. after   33 cycles
 SCF Done:  E(UB3LYP) =  -453.736661274     a.u. after    1 cycles

 The electronic state is 2-A.
 Alpha  occ. eigenvalues --  -14.20666 -14.19413 -14.16478 -14.16232 -10.06316
 Alpha  occ. eigenvalues --  -10.06274 -10.05702 -10.05609 -10.02787 -10.02559
 Alpha  occ. eigenvalues --   -0.85253  -0.84315  -0.68856  -0.65860  -0.65595
 Alpha  occ. eigenvalues --   -0.58471  -0.50751  -0.50074  -0.45741  -0.38110
 Alpha  occ. eigenvalues --   -0.37346  -0.36341  -0.34434  -0.33359  -0.31085
 Alpha  occ. eigenvalues --   -0.28806  -0.27050  -0.26617  -0.25724  -0.24853
 Alpha  occ. eigenvalues --   -0.23773  -0.15869  -0.15393  -0.13737  -0.13455
 Alpha  occ. eigenvalues --   -0.09852  -0.07415   0.05600
 Alpha virt. eigenvalues --    0.07654   0.09165   0.10311   0.10644   0.11413
 Alpha virt. eigenvalues --    0.11889   0.12416   0.12959   0.13589   0.14764
 Alpha virt. eigenvalues --    0.16030   0.16902   0.17388   0.18722   0.19043

  Beta  occ. eigenvalues --  -14.20669 -14.19354 -14.16043 -14.15772 -10.06303
  Beta  occ. eigenvalues --  -10.06269 -10.05792 -10.05704 -10.02516 -10.02324
  Beta  occ. eigenvalues --   -0.85039  -0.83720  -0.68644  -0.65320  -0.65240
  Beta  occ. eigenvalues --   -0.58343  -0.50646  -0.49349  -0.45588  -0.38026
  Beta  occ. eigenvalues --   -0.37249  -0.36171  -0.34244  -0.33278  -0.30920
  Beta  occ. eigenvalues --   -0.28691  -0.26776  -0.25982  -0.25452  -0.24235
  Beta  occ. eigenvalues --   -0.23660  -0.15428  -0.13773  -0.12946  -0.12519
  Beta  occ. eigenvalues --   -0.09766  -0.06799
  Beta virt. eigenvalues --    0.08358   0.09206   0.10545   0.10676   0.11443
  Beta virt. eigenvalues --    0.11749   0.12132   0.12801   0.13081   0.13629
  Beta virt. eigenvalues --    0.14790   0.16108   0.16805   0.17379   0.18685

 Mulliken charges and spin densities:
               1          2
     1  C    0.204912  -0.523486
     2  N    0.170177   0.012054
     3  C   -0.177780  -0.563909
     4  C   -0.464384   0.180688
     5  N    0.025873   0.206665
     6  N   -0.238377   0.228113
     7  C   -0.169818  -0.110088
     8  C   -0.437539   0.202532
     9  C    0.379247   0.144138
    10  N   -0.579255  -0.033539
    11  H    0.098465   0.033103
    12  H    0.091463   0.052558
    13  H   -0.314572   0.436958
    14  H    0.148178  -0.028876
    15  H    0.082312   0.100558
    16  H    0.104225   0.027924
    17  H    0.037572   0.055358
    18  H    0.125535   0.030181
    19  H    0.071404   0.123520
    20  H   -0.157638   0.425548
 Sum of Mulliken charges =  -1.00000   1.00000

 Dipole moment (field-independent basis, Debye):
    X=              0.9793    Y=              1.3720    Z=              0.8139  Tot=              1.8718
 Quadrupole moment (field-independent basis, Debye-Ang):
   XX=           -101.4543   YY=            -83.7018   ZZ=            -73.9518
   XY=             10.7570   XZ=             -6.1260   YZ=              1.3480

 Summary of Natural Population Analysis:

                                       Natural Population
                Natural  -----------------------------------------------
    Atom  No    Charge         Core      Valence    Rydberg      Total
 -----------------------------------------------------------------------
      C    1   -0.18522      0.99964     2.17588    0.00971     3.18522
      N    2   -0.19533      0.99974     2.67810    0.01749     3.69533
      C    3   -0.09488      0.99957     2.08048    0.01483     3.09488
      C    4    0.05616      0.99954     1.93058    0.01373     2.94384
      N    5   -0.08796      0.99968     2.57012    0.01816     3.58796
      N    6   -0.08286      0.99973     2.56565    0.01748     3.58286
      C    7   -0.02102      0.99961     2.00621    0.01520     3.02102
      C    8   -0.07078      0.99956     2.06127    0.00995     3.07078
      C    9   -0.07133      0.99950     2.06266    0.00917     3.07133
      N   10   -0.32732      0.99977     2.81405    0.01350     3.82732
      H   11    0.09673      0.00000     0.40211    0.00116     0.40327
      H   12    0.08778      0.00000     0.41056    0.00166     0.41222
      H   13    0.08911      0.00000     0.40933    0.00156     0.41089
      H   14    0.09598      0.00000     0.40284    0.00119     0.40402
      H   15    0.09988      0.00000     0.39857    0.00154     0.40012
      H   16    0.08320      0.00000     0.41541    0.00139     0.41680
      H   17    0.09027      0.00000     0.40853    0.00120     0.40973
      H   18    0.10002      0.00000     0.39882    0.00116     0.39998
      H   19    0.16350      0.00000     0.33418    0.00232     0.33650
      H   20    0.17408      0.00000     0.32159    0.00434     0.32592
 =======================================================================
   * Total *    0.00000      9.99634    26.84693    0.15673    37.00000

 Normal termination of Gaussian 16 at Tue Dec  8 10:26:56 2020.
