 Gaussian 16, Revision A.03,

 -----------------------------------------------------------
 # opt freq B3LYP/6-31G(d) empiricaldispersion=gd3bj scf=xqc
 -----------------------------------------------------------

 -----------------------------
 CID_67678773_JID_645_neutraal
 -----------------------------
 Symbolic Z-matrix:
 Charge =  0 Multiplicity = 1

 SCF Done:  E(RB3LYP) =  -437.627482089     A.U. after   14 cycles
 SCF Done:  E(RB3LYP) =  -437.630087816     A.U. after   13 cycles
 SCF Done:  E(RB3LYP) =  -437.630292162     A.U. after   11 cycles
 SCF Done:  E(RB3LYP) =  -437.630315347     A.U. after   11 cycles
 SCF Done:  E(RB3LYP) =  -437.630338689     A.U. after   10 cycles
 SCF Done:  E(RB3LYP) =  -437.630366435     A.U. after   11 cycles
 SCF Done:  E(RB3LYP) =  -437.630399222     A.U. after   11 cycles
 SCF Done:  E(RB3LYP) =  -437.630420057     A.U. after   11 cycles
 SCF Done:  E(RB3LYP) =  -437.630438172     A.U. after   10 cycles
 SCF Done:  E(RB3LYP) =  -437.630450412     A.U. after   11 cycles
 SCF Done:  E(RB3LYP) =  -437.630450696     A.U. after    8 cycles
 SCF Done:  E(RB3LYP) =  -437.630451000     A.U. after    8 cycles
 SCF Done:  E(RB3LYP) =  -437.630451148     A.U. after    7 cycles
 SCF Done:  E(RB3LYP) =  -437.630451243     A.U. after    7 cycles
 SCF Done:  E(RB3LYP) =  -437.630451320     A.U. after    8 cycles
 Optimization completed.
    -- Stationary point found.

 1\1\GINC-NODE311\FOpt\RB3LYP\6-31G(d)\C7H11N3\VSC10255\08-Dec-2020\0\\
 # opt freq B3LYP/6-31G(d) empiricaldispersion=gd3bj scf=xqc\\CID_67678
 773_JID_645_neutraal\\0,1\C,0.9669316339,0.0716044528,-0.0931873341\C,
 0.5486703082,-0.4008657661,-1.4540813461\N,0.6721673928,-1.7185379468,
 -1.7247414921\C,0.2902419726,-2.0837165487,-2.9374435657\C,-0.20702818
 46,-1.1534194692,-3.8676709723\N,-0.3000073471,0.1342554923,-3.5267256
 207\N,0.0816106079,0.5192357515,-2.3054870083\C,-0.6513578281,-1.53628
 1596,-5.2600512071\C,0.5164064867,-2.1125579297,-6.0786840327\C,-1.840

 Normal termination of Gaussian 16 at Tue Dec  8 12:18:59 2020.

 --------------------------------------------------------------------
 #N Geom=AllCheck Guess=TCheck SCRF=Check GenChk RB3LYP/6-31G(d) Freq
 --------------------------------------------------------------------

 Structure from the checkpoint file:  "JID_645.chk"
 -----------------------------
 CID_67678773_JID_645_neutraal
 -----------------------------
 Charge =  0 Multiplicity = 1

 SCF Done:  E(RB3LYP) =  -437.630451320     A.U. after    1 cycles

  Exact polarizability: 126.000  -0.481  81.238  -0.002   0.009  61.943
 Approx polarizability: 169.951  -1.960 151.784  -0.002   0.034  86.805

                      1                      2                      3
                      A                      A                      A
 Frequencies --     34.8100                73.4193                91.9517
 Red. masses --      3.2477                 1.8573                 1.4147
 Frc consts  --      0.0023                 0.0059                 0.0070
 IR Inten    --      0.6136                 1.8539                 0.3014

                      4                      5                      6
                      A                      A                      A
 Frequencies --    185.9176               195.5923               235.5071
 Red. masses --      2.6634                 2.9784                 1.0948
 Frc consts  --      0.0542                 0.0671                 0.0358
 IR Inten    --      1.2920                 3.2702                 0.1614

                      7                      8                      9
                      A                      A                      A
 Frequencies --    261.3563               294.7687               369.2470
 Red. masses --      1.1195                 2.6831                 3.7832
 Frc consts  --      0.0451                 0.1374                 0.3039
 IR Inten    --      0.3608                 0.5088                 2.4528

                     10                     11                     12
                      A                      A                      A
 Frequencies --    371.0758               419.2307               471.9818
 Red. masses --      2.7027                 5.3666                 3.0903
 Frc consts  --      0.2193                 0.5557                 0.4056
 IR Inten    --      4.2433                 2.2229                 1.1739

                     13                     14                     15
                      A                      A                      A
 Frequencies --    559.8007               573.6315               668.4250
 Red. masses --      3.1140                 4.1035                 9.2136
 Frc consts  --      0.5750                 0.7956                 2.4254
 IR Inten    --      1.2855                 3.0141                 1.1888

                     16                     17                     18
                      A                      A                      A
 Frequencies --    720.5144               805.3754               863.7419
 Red. masses --      3.7664                 3.9592                 5.9620
 Frc consts  --      1.1520                 1.5131                 2.6207
 IR Inten    --      2.0917                 1.2995                 2.4723

                     19                     20                     21
                      A                      A                      A
 Frequencies --    909.4565               947.1908               962.5608
 Red. masses --      2.7003                 1.1768                 1.5117
 Frc consts  --      1.3159                 0.6221                 0.8252
 IR Inten    --      0.1384                 0.9992                 0.7452

                     22                     23                     24
                      A                      A                      A
 Frequencies --    978.2533              1012.9096              1074.6539
 Red. masses --      1.5142                 1.6507                 1.8769
 Frc consts  --      0.8538                 0.9978                 1.2771
 IR Inten    --      0.0838                 0.9947                40.6003

                     25                     26                     27
                      A                      A                      A
 Frequencies --   1080.9582              1083.4071              1132.2442
 Red. masses --      1.6090                 4.2356                 2.3675
 Frc consts  --      1.1077                 2.9292                 1.7882
 IR Inten    --      6.4204                 9.3396                 0.7001

                     28                     29                     30
                      A                      A                      A
 Frequencies --   1142.4562              1194.3698              1251.0306
 Red. masses --      3.6523                 2.1267                 2.5381
 Frc consts  --      2.8086                 1.7875                 2.3404
 IR Inten    --      9.3435                 1.3241                 1.0056

                     31                     32                     33
                      A                      A                      A
 Frequencies --   1328.3486              1355.1243              1369.2721
 Red. masses --      1.9036                 3.3722                 1.3160
 Frc consts  --      1.9790                 3.6486                 1.4537
 IR Inten    --      8.1110                 3.0475                 1.6465

                     34                     35                     36
                      A                      A                      A
 Frequencies --   1380.2119              1428.1610              1429.9033
 Red. masses --      2.2325                 1.2235                 1.3764
 Frc consts  --      2.5057                 1.4703                 1.6581
 IR Inten    --     32.3657                 2.8911                 3.9929

                     37                     38                     39
                      A                      A                      A
 Frequencies --   1449.6333              1469.4234              1506.5498
 Red. masses --      1.2279                 2.8285                 1.1692
 Frc consts  --      1.5203                 3.5983                 1.5635
 IR Inten    --      3.5186               110.4629                29.0196

                     40                     41                     42
                      A                      A                      A
 Frequencies --   1507.9155              1517.3682              1522.5732
 Red. masses --      1.0453                 1.0459                 1.0456
 Frc consts  --      1.4004                 1.4188                 1.4281
 IR Inten    --      6.9356                 0.0193                 2.9605

                     43                     44                     45
                      A                      A                      A
 Frequencies --   1533.6065              1539.6438              1566.7860
 Red. masses --      1.0602                 1.0795                 5.7550
 Frc consts  --      1.4691                 1.5077                 8.3237
 IR Inten    --     10.0845                18.3925                10.8838

                     46                     47                     48
                      A                      A                      A
 Frequencies --   1623.3923              3046.4842              3049.5156
 Red. masses --      5.0866                 1.0355                 1.0376
 Frc consts  --      7.8981                 5.6621                 5.6851
 IR Inten    --      5.9354                20.9776                20.0929

                     49                     50                     51
                      A                      A                      A
 Frequencies --   3064.3434              3072.4089              3111.1299
 Red. masses --      1.0378                 1.0838                 1.1016
 Frc consts  --      5.7417                 6.0277                 6.2823
 IR Inten    --      9.0801                 2.4817                 2.9380

                     52                     53                     54
                      A                      A                      A
 Frequencies --   3118.5794              3120.5804              3126.5592
 Red. masses --      1.0999                 1.1006                 1.1033
 Frc consts  --      6.3023                 6.3146                 6.3544
 IR Inten    --     64.0160                 9.4025                17.7948

                     55                     56                     57
                      A                      A                      A
 Frequencies --   3128.0281              3166.4485              3172.6850
 Red. masses --      1.1030                 1.0913                 1.1018
 Frc consts  --      6.3586                 6.4466                 6.5343
 IR Inten    --     32.1515                26.5911                 4.8789

 - Thermochemistry -
 -------------------
 Temperature   298.150 Kelvin.  Pressure   1.00000 Atm.
 Atom     1 has atomic number  6 and mass  12.00000

 Molecular mass:   137.09530 amu.
 Principal axes and moments of inertia in atomic units:
                           1         2         3
     Eigenvalues --   529.881922331.428812456.63128
           X            1.00000  -0.00206  -0.00001
           Y            0.00206   1.00000  -0.00016
           Z            0.00001   0.00016   1.00000
 This molecule is an asymmetric top.
 Rotational symmetry number  1.
 Warning -- assumption of classical behavior for rotation
           may cause significant error
 Rotational temperatures (Kelvin)      0.16346     0.03715     0.03526
 Rotational constants (GHZ):           3.40593     0.77409     0.73464
 Zero-point vibrational energy     464572.8 (Joules/Mol)
                                  111.03557 (Kcal/Mol)
 Warning -- explicit consideration of  14 degrees of freedom as
           vibrations may cause significant error
 Vibrational temperatures:     50.08   105.63   132.30   267.49   281.41
          (Kelvin)            338.84   376.03   424.11   531.26   533.90
                              603.18   679.08   805.43   825.33   961.71
                             1036.66  1158.76  1242.73  1308.51  1362.80
                             1384.91  1407.49  1457.35  1546.19  1555.26
                             1558.78  1629.05  1643.74  1718.43  1799.95
                             1911.20  1949.72  1970.08  1985.82  2054.81
                             2057.31  2085.70  2114.17  2167.59  2169.55
                             2183.15  2190.64  2206.52  2215.20  2254.26
                             2335.70  4383.21  4387.57  4408.91  4420.51
                             4476.22  4486.94  4489.82  4498.42  4500.53
                             4555.81  4564.79

 Zero-point correction=                           0.176946 (Hartree/Particle)
 Thermal correction to Energy=                    0.187146
 Thermal correction to Enthalpy=                  0.188090
 Thermal correction to Gibbs Free Energy=         0.140717
 Sum of electronic and zero-point Energies=           -437.453505
 Sum of electronic and thermal Energies=              -437.443305
 Sum of electronic and thermal Enthalpies=            -437.442361
 Sum of electronic and thermal Free Energies=         -437.489735

                     E (Thermal)             CV                S
                      KCal/Mol        Cal/Mol-Kelvin    Cal/Mol-Kelvin
 Total                  117.436             36.938             99.706
 Electronic               0.000              0.000              0.000
 Translational            0.889              2.981             40.658
 Rotational               0.889              2.981             29.497
 Vibrational            115.658             30.977             29.551
 Vibration     1          0.594              1.983              5.535
 Vibration     2          0.599              1.967              4.060
 Vibration     3          0.602              1.955              3.618
 Vibration     4          0.632              1.859              2.268
 Vibration     5          0.636              1.846              2.174
 Vibration     6          0.655              1.786              1.837
 Vibration     7          0.669              1.743              1.653
 Vibration     8          0.689              1.683              1.446
 Vibration     9          0.742              1.535              1.083
 Vibration    10          0.743              1.532              1.075
 Vibration    11          0.782              1.428              0.895
 Vibration    12          0.829              1.312              0.732
 Vibration    13          0.915              1.118              0.524
 Vibration    14          0.930              1.088              0.497

 Optimization completed.
    -- Stationary point found.

 1\1\GINC-NODE311\Freq\RB3LYP\6-31G(d)\C7H11N3\VSC10255\08-Dec-2020\0\\
 #N Geom=AllCheck Guess=TCheck SCRF=Check GenChk RB3LYP/6-31G(d) Freq\\
 CID_67678773_JID_645_neutraal\\0,1\C,0.9669316339,0.0716044528,-0.0931
 873341\C,0.5486703082,-0.4008657661,-1.4540813461\N,0.6721673928,-1.71
 85379468,-1.7247414921\C,0.2902419726,-2.0837165487,-2.9374435657\C,-0
 .2070281846,-1.1534194692,-3.8676709723\N,-0.3000073471,0.1342554923,-
 3.5267256207\N,0.0816106079,0.5192357515,-2.3054870083\C,-0.6513578281
 ,-1.536281596,-5.2600512071\C,0.5164064867,-2.1125579297,-6.0786840327

 Normal termination of Gaussian 16 at Tue Dec  8 12:24:44 2020.

 ----------------------------------------------------------------------
 # B3LYP/6-311++G(d,p) empiricaldispersion=gd3bj scf=xqc pop=npa geom=c
 heck
 ----------------------------------------------------------------------

 -------------------------------------
 CID_67678773_JID_645_Energie_neutraal
 -------------------------------------
 Structure from the checkpoint file:  "JID_645.chk"
 Charge =  0 Multiplicity = 1

 SCF Done:  E(RB3LYP) =  -437.746119740     A.U. after   14 cycles
 Normal termination of Gaussian 16 at Tue Dec  8 12:26:23 2020.

 ----------------------------------------------------------------------
 # B3LYP/6-311++G(d,p) empiricaldispersion=gd3bj scf=xqc pop=npa geom=c
 heck
 ----------------------------------------------------------------------

 -----------------------------------
 CID_67678773_JID_645_Energie_kation
 -----------------------------------
 Structure from the checkpoint file:  "JID_645.chk"
 Charge =  1 Multiplicity = 2

 SCF Done:  E(UB3LYP) =  -437.424304975     A.U. after   21 cycles
 Normal termination of Gaussian 16 at Tue Dec  8 12:29:51 2020.
 Gaussian 16:  ES64L-G16RevA.03 25-Dec-2016

 ----------------------------------
 CID_67678773_JID_645_Energie_anion
 ----------------------------------
 Structure from the checkpoint file:  "JID_645.chk"
 Charge = -1 Multiplicity = 2

                         Standard orientation:
 ---------------------------------------------------------------------
 Center     Atomic      Atomic             Coordinates (Angstroms)
 Number     Number       Type             X           Y           Z
 ---------------------------------------------------------------------
      1          6           0       -3.569114   -0.146585    0.000179
      2          6           0       -2.072303   -0.047800   -0.000064
      3          7           0       -1.368702   -1.200932   -0.000792
      4          6           0       -0.053464   -1.059445   -0.000771
      5          6           0        0.553880    0.209091    0.000039
      6          7           0       -0.208910    1.305059    0.000498
      7          7           0       -1.539099    1.179113    0.000407
      8          6           0        2.051819    0.406359    0.000394
      9          6           0        2.690633   -0.180378    1.270663
     10          6           0        2.690984   -0.178442   -1.270596
     11          1           0       -3.912521   -0.698778   -0.881466
     12          1           0       -4.010665    0.851153    0.000986
     13          1           0       -3.912125   -0.700038    0.881189
     14          1           0        0.543493   -1.970546   -0.001457
     15          1           0        2.204078    1.491365    0.001231
     16          1           0        2.558295   -1.268053    1.319014
     17          1           0        3.766893    0.023257    1.283648
     18          1           0        2.249213    0.254839    2.173169
     19          1           0        2.249809    0.258161   -2.172551
     20          1           0        3.767249    0.025203   -1.282974
     21          1           0        2.558650   -1.266043   -1.320643
 ---------------------------------------------------------------------

 SCF Done:  E(UB3LYP) =  -437.754907241     A.U. after   32 cycles

 The electronic state is 2-A.
 Alpha  occ. eigenvalues --  -14.13347 -14.12667 -14.10843 -10.05616 -10.04170
 Alpha  occ. eigenvalues --  -10.03907 -10.03906 -10.02655 -10.01953 -10.01395
 Alpha  occ. eigenvalues --   -0.83216  -0.72902  -0.68398  -0.63355  -0.56476
 Alpha  occ. eigenvalues --   -0.56386  -0.49704  -0.47731  -0.42336  -0.36229
 Alpha  occ. eigenvalues --   -0.32635  -0.31173  -0.30815  -0.29457  -0.28257
 Alpha  occ. eigenvalues --   -0.26775  -0.25425  -0.23691  -0.23064  -0.22500
 Alpha  occ. eigenvalues --   -0.21759  -0.20590  -0.15549  -0.12771  -0.11716
 Alpha  occ. eigenvalues --   -0.10314  -0.03678   0.06154
 Alpha virt. eigenvalues --    0.08389   0.10354   0.10495   0.11280   0.12568
 Alpha virt. eigenvalues --    0.13194   0.13503   0.14151   0.14581   0.14750
 Alpha virt. eigenvalues --    0.15681   0.15880   0.17102   0.18132   0.19594

  Beta  occ. eigenvalues --  -14.12971 -14.11848 -14.10188 -10.05727 -10.04170
  Beta  occ. eigenvalues --  -10.03906 -10.03905 -10.02763 -10.01951 -10.01052
  Beta  occ. eigenvalues --   -0.82244  -0.71667  -0.68210  -0.62977  -0.56377
  Beta  occ. eigenvalues --   -0.56299  -0.48581  -0.47476  -0.42170  -0.35941
  Beta  occ. eigenvalues --   -0.32453  -0.31035  -0.30589  -0.29124  -0.28046
  Beta  occ. eigenvalues --   -0.26731  -0.25347  -0.22981  -0.22822  -0.22305
  Beta  occ. eigenvalues --   -0.20821  -0.20513  -0.12181  -0.11697  -0.10789
  Beta  occ. eigenvalues --   -0.08740  -0.02869
  Beta virt. eigenvalues --    0.08322   0.10327   0.10432   0.11212   0.12492
  Beta virt. eigenvalues --    0.13182   0.13409   0.14125   0.14232   0.14737
  Beta virt. eigenvalues --    0.15180   0.15806   0.16045   0.17062   0.18103

 Mulliken charges and spin densities:
               1          2
     1  C   -0.536727   0.006799
     2  C    0.029242  -0.075384
     3  N   -0.154848   0.300271
     4  C   -0.335428   0.300710
     5  C   -0.181535  -0.085235
     6  N   -0.126631   0.376617
     7  N   -0.179950   0.171312
     8  C    0.294142  -0.022920
     9  C   -0.563120  -0.001734
    10  C   -0.563621  -0.001253
    11  H    0.120792   0.001799
    12  H    0.117343  -0.001583
    13  H    0.120834   0.001771
    14  H    0.109838  -0.025801
    15  H    0.145400  -0.007834
    16  H    0.114582   0.015382
    17  H    0.094858   0.023232
    18  H    0.142418  -0.007120
    19  H    0.142424  -0.007117
    20  H    0.095239   0.022877
    21  H    0.114749   0.015211
 Sum of Mulliken charges =  -1.00000   1.00000

 Dipole moment (field-independent basis, Debye):
    X=              3.6296    Y=             -1.6717    Z=             -0.0010  Tot=              3.9961
 Quadrupole moment (field-independent basis, Debye-Ang):
   XX=            -80.9814   YY=            -81.8631   ZZ=            -68.5025
   XY=              0.3882   XZ=             -0.0051   YZ=             -0.0045

 Summary of Natural Population Analysis:

                                       Natural Population
                Natural  -----------------------------------------------
    Atom  No    Charge         Core      Valence    Rydberg      Total
 -----------------------------------------------------------------------
      C    1   -0.29664      0.99963     2.29192    0.00509     3.29664
      C    2    0.16181      0.99964     1.81805    0.02049     2.83819
      N    3   -0.17451      0.99967     2.65780    0.01704     3.67451
      C    4    0.07547      0.99954     1.91190    0.01308     2.92453
      C    5    0.04087      0.99952     1.94403    0.01558     2.95913
      N    6   -0.02263      0.99967     2.50616    0.01680     3.52263
      N    7   -0.12277      0.99968     2.60438    0.01871     3.62277
      C    8   -0.12970      0.99958     2.11642    0.01370     3.12970
      C    9   -0.27928      0.99966     2.27535    0.00427     3.27928
      C   10   -0.27927      0.99966     2.27535    0.00427     3.27927
      H   11    0.09596      0.00000     0.40290    0.00113     0.40404
      H   12    0.10057      0.00000     0.39829    0.00114     0.39943
      H   13    0.09596      0.00000     0.40290    0.00113     0.40404
      H   14    0.07060      0.00000     0.42753    0.00187     0.42940
      H   15    0.09789      0.00000     0.39884    0.00326     0.40211
      H   16    0.09496      0.00000     0.40402    0.00102     0.40504
      H   17    0.08698      0.00000     0.41206    0.00096     0.41302
      H   18    0.10088      0.00000     0.39840    0.00072     0.39912
      H   19    0.10088      0.00000     0.39840    0.00072     0.39912
      H   20    0.08698      0.00000     0.41206    0.00096     0.41302
      H   21    0.09496      0.00000     0.40402    0.00102     0.40504
 =======================================================================
   * Total *    0.00000      9.99626    26.86080    0.14294    37.00000

 Normal termination of Gaussian 16 at Tue Dec  8 12:39:33 2020.
