 Gaussian 16, Revision A.03,

 -----------------------------------------------------------
 # opt freq B3LYP/6-31G(d) empiricaldispersion=gd3bj scf=xqc
 -----------------------------------------------------------

 -------------------------------
 CID_61884393_JID_10788_neutraal
 -------------------------------
 Symbolic Z-matrix:
 Charge =  0 Multiplicity = 1

 SCF Done:  E(RB3LYP) =  -881.796622737     A.U. after   15 cycles
 SCF Done:  E(RB3LYP) =  -881.805865406     A.U. after   13 cycles
 SCF Done:  E(RB3LYP) =  -881.804142987     A.U. after   14 cycles
 SCF Done:  E(RB3LYP) =  -881.809012897     A.U. after   12 cycles
 SCF Done:  E(RB3LYP) =  -881.811018845     A.U. after   13 cycles
 SCF Done:  E(RB3LYP) =  -881.812458785     A.U. after   13 cycles
 SCF Done:  E(RB3LYP) =  -881.813980928     A.U. after   12 cycles
 SCF Done:  E(RB3LYP) =  -881.814600597     A.U. after   13 cycles
 SCF Done:  E(RB3LYP) =  -881.814764015     A.U. after   11 cycles
 SCF Done:  E(RB3LYP) =  -881.814821605     A.U. after   12 cycles
 SCF Done:  E(RB3LYP) =  -881.814855895     A.U. after   11 cycles
 SCF Done:  E(RB3LYP) =  -881.814868981     A.U. after   10 cycles
 SCF Done:  E(RB3LYP) =  -881.814872275     A.U. after    9 cycles
 SCF Done:  E(RB3LYP) =  -881.814872853     A.U. after    8 cycles
 SCF Done:  E(RB3LYP) =  -881.814872946     A.U. after    7 cycles
 Optimization completed.
    -- Stationary point found.
 Normal termination of Gaussian 16 at Sat Dec 12 16:35:57 2020.

 --------------------------------------------------------------------
 #N Geom=AllCheck Guess=TCheck SCRF=Check GenChk RB3LYP/6-31G(d) Freq
 --------------------------------------------------------------------

 Structure from the checkpoint file:  "JID_10788.chk"
 -------------------------------
 CID_61884393_JID_10788_neutraal
 -------------------------------
 Charge =  0 Multiplicity = 1

 SCF Done:  E(RB3LYP) =  -881.814872946     A.U. after    1 cycles

  Exact polarizability: 278.964  26.164 207.772 -16.892   5.194 109.245
 Approx polarizability: 425.704  51.618 341.208 -31.101  12.428 168.911

                      1                      2                      3
                      A                      A                      A
 Frequencies --     35.2154                43.8244                52.4660
 Red. masses --      3.3301                 4.4689                 3.3618
 Frc consts  --      0.0024                 0.0051                 0.0055
 IR Inten    --      0.0374                 1.0874                 0.0988

                      4                      5                      6
                      A                      A                      A
 Frequencies --     66.9090                78.5170               109.1608
 Red. masses --      6.8999                 5.5596                 4.6758
 Frc consts  --      0.0182                 0.0202                 0.0328
 IR Inten    --      1.1627                 0.9889                 2.2386

                      7                      8                      9
                      A                      A                      A
 Frequencies --    168.8682               178.3746               206.5651
 Red. masses --      3.4052                 3.1148                 3.8516
 Frc consts  --      0.0572                 0.0584                 0.0968
 IR Inten    --      1.2237                 0.4989                 3.4462

                     10                     11                     12
                      A                      A                      A
 Frequencies --    227.1503               239.9773               251.2008
 Red. masses --      4.3904                 1.0718                 1.7664
 Frc consts  --      0.1335                 0.0364                 0.0657
 IR Inten    --      1.6974                 0.0686                 0.8192

                     13                     14                     15
                      A                      A                      A
 Frequencies --    257.6464               262.6815               289.2939
 Red. masses --      2.5271                 2.0330                 1.2915
 Frc consts  --      0.0988                 0.0826                 0.0637
 IR Inten    --      0.9208                 1.0293                 0.1486

                     16                     17                     18
                      A                      A                      A
 Frequencies --    310.8855               322.8102               335.7662
 Red. masses --      2.0737                 1.2795                 2.6923
 Frc consts  --      0.1181                 0.0786                 0.1788
 IR Inten    --      1.7821                 2.0906                 5.6112

                     19                     20                     21
                      A                      A                      A
 Frequencies --    350.4393               370.7049               377.7711
 Red. masses --      6.3080                 3.5153                 2.8434
 Frc consts  --      0.4564                 0.2846                 0.2391
 IR Inten    --      0.6728                 0.5930                 1.3414

                     22                     23                     24
                      A                      A                      A
 Frequencies --    391.7729               412.8583               434.3900
 Red. masses --      2.6760                 3.0334                 2.4610
 Frc consts  --      0.2420                 0.3046                 0.2736
 IR Inten    --      0.4845                 3.0374                 3.6599

                     25                     26                     27
                      A                      A                      A
 Frequencies --    454.7060               482.4138               501.9411
 Red. masses --      3.9142                 2.9895                 2.3418
 Frc consts  --      0.4768                 0.4099                 0.3476
 IR Inten    --      2.6807                 3.8402                 0.9150

                     28                     29                     30
                      A                      A                      A
 Frequencies --    540.0529               563.1639               591.4896
 Red. masses --      3.5357                 3.7029                 4.6310
 Frc consts  --      0.6076                 0.6919                 0.9546
 IR Inten    --      0.7387                 3.4616                28.8687

                     31                     32                     33
                      A                      A                      A
 Frequencies --    614.2973               622.1413               637.2579
 Red. masses --      1.5356                 4.1782                 6.0739
 Frc consts  --      0.3414                 0.9528                 1.4533
 IR Inten    --     84.8554                 5.0851                 5.4968

                     34                     35                     36
                      A                      A                      A
 Frequencies --    707.9460               715.7251               744.1382
 Red. masses --      4.5073                 5.0775                 4.5120
 Frc consts  --      1.3310                 1.5325                 1.4721
 IR Inten    --     42.3597                 7.4176                 6.9220

                     37                     38                     39
                      A                      A                      A
 Frequencies --    752.1112               770.5634               780.8617
 Red. masses --      3.4802                 1.3965                 4.4130
 Frc consts  --      1.1599                 0.4886                 1.5854
 IR Inten    --      3.4526                33.6264                 3.7353

                     40                     41                     42
                      A                      A                      A
 Frequencies --    805.4584               836.3236               878.0166
 Red. masses --      6.3411                 4.6911                 1.5301
 Frc consts  --      2.4238                 1.9332                 0.6950
 IR Inten    --     39.9019                 8.6355                 2.3758

                     43                     44                     45
                      A                      A                      A
 Frequencies --    903.7216               920.4081               924.5477
 Red. masses --      2.5787                 2.3318                 3.5563
 Frc consts  --      1.2409                 1.1639                 1.7911
 IR Inten    --      9.7586                 4.7819                 7.9619

                     46                     47                     48
                      A                      A                      A
 Frequencies --    946.6558               953.8219               957.5876
 Red. masses --      1.3590                 1.6096                 1.5461
 Frc consts  --      0.7176                 0.8628                 0.8353
 IR Inten    --      1.6152                 3.6560                 0.8741

                     49                     50                     51
                      A                      A                      A
 Frequencies --    968.7790               977.9181               994.0509
 Red. masses --      1.4364                 1.2118                 1.2750
 Frc consts  --      0.7943                 0.6828                 0.7423
 IR Inten    --      9.0106                 0.1409                 0.1587

                     52                     53                     54
                      A                      A                      A
 Frequencies --   1001.4049              1046.5775              1064.7039
 Red. masses --      2.8284                 2.1860                 1.5461
 Frc consts  --      1.6711                 1.4107                 1.0326
 IR Inten    --     22.0171                 2.1420                14.4196

                     55                     56                     57
                      A                      A                      A
 Frequencies --   1071.6501              1084.6865              1149.8606
 Red. masses --      3.0093                 1.5463                 1.7975
 Frc consts  --      2.0362                 1.0719                 1.4003
 IR Inten    --    123.9548                33.2504                68.3101

                     58                     59                     60
                      A                      A                      A
 Frequencies --   1160.6671              1168.3171              1186.3479
 Red. masses --      1.3267                 1.4742                 1.1714
 Frc consts  --      1.0530                 1.1856                 0.9713
 IR Inten    --     23.2977                 5.5701                 0.6877

                     61                     62                     63
                      A                      A                      A
 Frequencies --   1198.7293              1222.4896              1255.1368
 Red. masses --      1.7438                 2.0336                 2.4376
 Frc consts  --      1.4764                 1.7906                 2.2625
 IR Inten    --    324.9314                28.5745                10.2169

                     64                     65                     66
                      A                      A                      A
 Frequencies --   1264.8524              1272.0169              1288.1881
 Red. masses --      2.4411                 2.3147                 2.1773
 Frc consts  --      2.3010                 2.2066                 2.1288
 IR Inten    --     27.9549                19.2391                 2.5206

                     67                     68                     69
                      A                      A                      A
 Frequencies --   1292.9250              1350.6321              1357.8272
 Red. masses --      2.7946                 1.6258                 3.0826
 Frc consts  --      2.7525                 1.7474                 3.3486
 IR Inten    --     10.1821                13.3857                 1.5585

                     70                     71                     72
                      A                      A                      A
 Frequencies --   1383.3905              1387.5478              1406.1988
 Red. masses --      4.0825                 2.5240                 1.3186
 Frc consts  --      4.6033                 2.8630                 1.5363
 IR Inten    --     69.2565                76.7952                11.7217

                     73                     74                     75
                      A                      A                      A
 Frequencies --   1413.7165              1426.9530              1428.7023
 Red. masses --      3.6841                 1.2433                 1.2644
 Frc consts  --      4.3382                 1.4915                 1.5206
 IR Inten    --      5.3079                10.7058                 2.8356

                     76                     77                     78
                      A                      A                      A
 Frequencies --   1442.3934              1459.4898              1467.1006
 Red. masses --      3.0958                 1.2393                 2.0117
 Frc consts  --      3.7948                 1.5553                 2.5512
 IR Inten    --     35.1399                28.0429               205.4506

                     79                     80                     81
                      A                      A                      A
 Frequencies --   1496.2155              1501.3350              1509.6653
 Red. masses --      1.6576                 1.3323                 1.0510
 Frc consts  --      2.1863                 1.7693                 1.4113
 IR Inten    --     20.1719                19.5801                 0.2667

                     82                     83                     84
                      A                      A                      A
 Frequencies --   1516.0831              1518.6767              1522.5321
 Red. masses --      1.0553                 1.0786                 1.0929
 Frc consts  --      1.4292                 1.4657                 1.4927
 IR Inten    --      8.8176                 1.6942                 2.7677

                     85                     86                     87
                      A                      A                      A
 Frequencies --   1529.7956              1538.4004              1540.1607
 Red. masses --      1.1468                 2.0722                 1.2263
 Frc consts  --      1.5812                 2.8894                 1.7139
 IR Inten    --      8.2763                24.8136                 0.6907

                     88                     89                     90
                      A                      A                      A
 Frequencies --   1542.2942              1557.4375              1564.5803
 Red. masses --      1.0951                 1.0960                 1.6771
 Frc consts  --      1.5348                 1.5663                 2.4188
 IR Inten    --     20.9065                25.6074               172.0725

                     91                     92                     93
                      A                      A                      A
 Frequencies --   1600.8823              1648.5295              1679.5816
 Red. masses --      6.9638                 6.1129                 6.0357
 Frc consts  --     10.5152                 9.7880                10.0318
 IR Inten    --     87.0388               262.5231               125.4687

                     94                     95                     96
                      A                      A                      A
 Frequencies --   1802.9277              3035.2059              3039.2595
 Red. masses --      9.3472                 1.0357                 1.0372
 Frc consts  --     17.9014                 5.6217                 5.6447
 IR Inten    --    411.3824                20.5019                32.0496

                     97                     98                     99
                      A                      A                      A
 Frequencies --   3048.6593              3050.0787              3061.6093
 Red. masses --      1.0421                 1.0368                 1.0608
 Frc consts  --      5.7066                 5.6831                 5.8587
 IR Inten    --     14.8635                48.9895                89.1945

                    100                    101                    102
                      A                      A                      A
 Frequencies --   3097.4673              3101.4940              3108.8742
 Red. masses --      1.1014                 1.1014                 1.1017
 Frc consts  --      6.2259                 6.2421                 6.2735
 IR Inten    --     11.9811                46.9571                13.3338

                    103                    104                    105
                      A                      A                      A
 Frequencies --   3114.9891              3117.5300              3130.5898
 Red. masses --      1.1002                 1.0998                 1.1024
 Frc consts  --      6.2897                 6.2977                 6.3658
 IR Inten    --     70.0888                25.0158                13.7238

                    106                    107                    108
                      A                      A                      A
 Frequencies --   3133.8076              3137.4133              3139.7956
 Red. masses --      1.1023                 1.1020                 1.0969
 Frc consts  --      6.3784                 6.3910                 6.3709
 IR Inten    --     38.9060                 7.0994                 9.9575

                    109                    110                    111
                      A                      A                      A
 Frequencies --   3180.8919              3190.8309              3209.5712
 Red. masses --      1.0870                 1.0888                 1.0939
 Frc consts  --      6.4802                 6.5313                 6.6391
 IR Inten    --      5.5614                11.9340                28.4685

                    112                    113                    114
                      A                      A                      A
 Frequencies --   3216.9813              3219.5074              3693.5780
 Red. masses --      1.0908                 1.0955                 1.0641
 Frc consts  --      6.6512                 6.6900                 8.5530
 IR Inten    --      3.3852                16.4254                75.1292

 - Thermochemistry -
 -------------------
 Temperature   298.150 Kelvin.  Pressure   1.00000 Atm.
 Atom     1 has atomic number  6 and mass  12.00000

 Molecular mass:   272.15248 amu.
 Principal axes and moments of inertia in atomic units:
                           1         2         3
     Eigenvalues --  3699.129086917.367869574.48237
           X            0.99973  -0.02336  -0.00128
           Y            0.02335   0.99966  -0.01130
           Z            0.00155   0.01127   0.99994
 This molecule is an asymmetric top.
 Rotational symmetry number  1.
 Warning -- assumption of classical behavior for rotation
           may cause significant error
 Rotational temperatures (Kelvin)      0.02341     0.01252     0.00905
 Rotational constants (GHZ):           0.48788     0.26090     0.18849
 Zero-point vibrational energy     889250.6 (Joules/Mol)
                                  212.53599 (Kcal/Mol)
 Warning -- explicit consideration of  31 degrees of freedom as
           vibrations may cause significant error
 Vibrational temperatures:     50.67    63.05    75.49    96.27   112.97
          (Kelvin)            157.06   242.96   256.64   297.20   326.82
                              345.27   361.42   370.70   377.94   416.23
                              447.29   464.45   483.09   504.20   533.36
                              543.53   563.67   594.01   624.99   654.22
                              694.09   722.18   777.02   810.27   851.02
                              883.84   895.12   916.87  1018.58  1029.77
                             1070.65  1082.12  1108.67  1123.49  1158.87
                             1203.28  1263.27  1300.25  1324.26  1330.22
                             1362.03  1372.34  1377.75  1393.86  1407.01
                             1430.22  1440.80  1505.79  1531.87  1541.87
                             1560.62  1654.39  1669.94  1680.95  1706.89
                             1724.70  1758.89  1805.86  1819.84  1830.15
                             1853.42  1860.23  1943.26  1953.61  1990.39
                             1996.37  2023.21  2034.02  2053.07  2055.58
                             2075.28  2099.88  2110.83  2152.72  2160.09
                             2172.07  2181.31  2185.04  2190.58  2201.03
                             2213.42  2215.95  2219.02  2240.81  2251.08
                             2303.31  2371.87  2416.54  2594.01  4366.98
                             4372.82  4386.34  4388.38  4404.97  4456.56
                             4462.36  4472.98  4481.77  4485.43  4504.22
                             4508.85  4514.04  4517.47  4576.59  4590.89
                             4617.86  4628.52  4632.15  5314.23

 Zero-point correction=                           0.338698 (Hartree/Particle)
 Thermal correction to Energy=                    0.357459
 Thermal correction to Enthalpy=                  0.358403
 Thermal correction to Gibbs Free Energy=         0.292111
 Sum of electronic and zero-point Energies=           -881.476175
 Sum of electronic and thermal Energies=              -881.457414
 Sum of electronic and thermal Enthalpies=            -881.456470
 Sum of electronic and thermal Free Energies=         -881.522762

                     E (Thermal)             CV                S
                      KCal/Mol        Cal/Mol-Kelvin    Cal/Mol-Kelvin
 Total                  224.309             73.874            139.525
 Electronic               0.000              0.000              0.000
 Translational            0.889              2.981             42.702
 Rotational               0.889              2.981             33.860
 Vibrational            222.532             67.912             62.963
 Vibration     1          0.594              1.982              5.512
 Vibration     2          0.595              1.980              5.078
 Vibration     3          0.596              1.977              4.722
 Vibration     4          0.598              1.970              4.242
 Vibration     5          0.600              1.964              3.928
 Vibration     6          0.606              1.942              3.284
 Vibration     7          0.625              1.881              2.448
 Vibration     8          0.629              1.869              2.345
 Vibration     9          0.641              1.831              2.074
 Vibration    10          0.651              1.800              1.901
 Vibration    11          0.657              1.779              1.803
 Vibration    12          0.663              1.761              1.722
 Vibration    13          0.667              1.750              1.678
 Vibration    14          0.670              1.741              1.644
 Vibration    15          0.686              1.694              1.478
 Vibration    16          0.700              1.653              1.358
 Vibration    17          0.708              1.630              1.296
 Vibration    18          0.717              1.604              1.232
 Vibration    19          0.727              1.574              1.164
 Vibration    20          0.743              1.532              1.077
 Vibration    21          0.748              1.518              1.048
 Vibration    22          0.759              1.488              0.993
 Vibration    23          0.777              1.442              0.917
 Vibration    24          0.795              1.395              0.844
 Vibration    25          0.813              1.350              0.782
 Vibration    26          0.839              1.289              0.704
 Vibration    27          0.857              1.246              0.653
 Vibration    28          0.895              1.161              0.565
 Vibration    29          0.919              1.111              0.518
 Vibration    30          0.949              1.050              0.465
 Vibration    31          0.974              1.002              0.426

 Optimization completed.
    -- Stationary point found.
 Normal termination of Gaussian 16 at Sat Dec 12 16:57:00 2020.

 ----------------------------------------------------------------------
 # B3LYP/6-311++G(d,p) empiricaldispersion=gd3bj scf=xqc pop=npa geom=c
 heck
 ----------------------------------------------------------------------

 ---------------------------------------
 CID_61884393_JID_10788_Energie_neutraal
 ---------------------------------------
 Structure from the checkpoint file:  "JID_10788.chk"
 Charge =  0 Multiplicity = 1

 SCF Done:  E(RB3LYP) =  -882.056295680     A.U. after   16 cycles
 Normal termination of Gaussian 16 at Sat Dec 12 17:05:52 2020.

 ----------------------------------------------------------------------
 # B3LYP/6-311++G(d,p) empiricaldispersion=gd3bj scf=xqc pop=npa geom=c
 heck
 ----------------------------------------------------------------------

 -------------------------------------
 CID_61884393_JID_10788_Energie_kation
 -------------------------------------
 Structure from the checkpoint file:  "JID_10788.chk"
 Charge =  1 Multiplicity = 2

 SCF Done:  E(UB3LYP) =  -881.791593974     A.U. after   24 cycles
 Normal termination of Gaussian 16 at Sat Dec 12 17:23:53 2020.
 Gaussian 16:  ES64L-G16RevA.03 25-Dec-2016

 ----------------------------------------------------------------------
 # B3LYP/6-311++G(d,p) empiricaldispersion=gd3bj scf=xqc pop=npa geom=c
 heck
 ----------------------------------------------------------------------

 ------------------------------------
 CID_61884393_JID_10788_Energie_anion
 ------------------------------------
 Structure from the checkpoint file:  "JID_10788.chk"
 Charge = -1 Multiplicity = 2

                         Standard orientation:
 ---------------------------------------------------------------------
 Center     Atomic      Atomic             Coordinates (Angstroms)
 Number     Number       Type             X           Y           Z
 ---------------------------------------------------------------------
      1          6           0        3.934719   -0.189859    0.595896
      2          6           0        2.929668   -1.326360    0.349677
      3          6           0        3.678102   -2.655779    0.160246
      4          6           0        1.985357   -1.430441    1.558328
      5          6           0        2.122914   -1.070656   -0.946966
      6          7           0        1.376084    0.187183   -0.952768
      7          6           0        1.976707    1.324341   -1.633088
      8          6           0        0.073988    0.206422   -0.518219
      9          7           0       -0.583817   -0.947546   -0.494366
     10          6           0       -1.907996   -0.967856   -0.218082
     11          6           0       -2.587624   -2.215131   -0.192311
     12          6           0       -3.945617   -2.264054    0.027964
     13          6           0       -4.695581   -1.079891    0.242997
     14          6           0       -4.062926    0.141791    0.240598
     15          6           0       -2.665164    0.224233    0.015901
     16          6           0       -1.935158    1.428002    0.090437
     17          6           0       -0.567641    1.441872   -0.109230
     18          6           0        0.198893    2.617455    0.355858
     19          8           0        1.328032    2.602556    0.810407
     20          8           0       -0.521853    3.771724    0.297749
     21          1           0        4.560514   -0.414486    1.467915
     22          1           0        3.414788    0.752862    0.791116
     23          1           0        4.601277   -0.050712   -0.264953
     24          1           0        4.265595   -2.899396    1.052819
     25          1           0        2.979989   -3.482717   -0.018027
     26          1           0        4.368494   -2.607085   -0.691266
     27          1           0        1.470115   -0.480885    1.734081
     28          1           0        1.226532   -2.205230    1.407723
     29          1           0        2.554500   -1.673530    2.463697
     30          1           0        2.812790   -1.048243   -1.798499
     31          1           0        1.417396   -1.888211   -1.105277
     32          1           0        1.195151    2.008422   -1.975294
     33          1           0        2.671169    1.886011   -1.003107
     34          1           0        2.510634    0.957726   -2.516998
     35          1           0       -2.003321   -3.112897   -0.365720
     36          1           0       -4.454928   -3.223884    0.037222
     37          1           0       -5.765892   -1.143544    0.413920
     38          1           0       -4.620861    1.058565    0.415336
     39          1           0       -2.438266    2.343770    0.383498
     40          1           0        0.043190    4.447235    0.716474
 ---------------------------------------------------------------------

 SCF Done:  E(UB3LYP) =  -882.076722735     A.U. after   23 cycles

 The electronic state is 2-A.
 Alpha  occ. eigenvalues --  -19.03309 -18.96166 -14.20536 -14.14172 -10.14901
 Alpha  occ. eigenvalues --  -10.10697 -10.08098 -10.07914 -10.07775 -10.06569
 Alpha  occ. eigenvalues --  -10.05751 -10.05314 -10.04313 -10.03204 -10.03025
 Alpha  occ. eigenvalues --  -10.02697 -10.02668 -10.02577 -10.01987 -10.01492
 Alpha  occ. eigenvalues --   -0.96920  -0.87536  -0.84104  -0.77670  -0.71465
 Alpha  occ. eigenvalues --   -0.69826  -0.66263  -0.61361  -0.60595  -0.59232
 Alpha  occ. eigenvalues --   -0.58905  -0.57622  -0.55301  -0.51977  -0.47855
 Alpha  occ. eigenvalues --   -0.46499  -0.45090  -0.43229  -0.40038  -0.38605
 Alpha  occ. eigenvalues --   -0.37763  -0.36575  -0.35670  -0.34862  -0.34260
 Alpha  occ. eigenvalues --   -0.32696  -0.32161  -0.31792  -0.31396  -0.30412
 Alpha  occ. eigenvalues --   -0.29640  -0.29101  -0.28890  -0.28607  -0.27033
 Alpha  occ. eigenvalues --   -0.26794  -0.26466  -0.25843  -0.25660  -0.24876
 Alpha  occ. eigenvalues --   -0.22969  -0.22394  -0.22065  -0.21783  -0.21020
 Alpha  occ. eigenvalues --   -0.20560  -0.18984  -0.16376  -0.14610  -0.13946
 Alpha  occ. eigenvalues --   -0.11389  -0.09892  -0.07115   0.03533
 Alpha virt. eigenvalues --    0.07006   0.08510   0.08877   0.09085   0.09583
 Alpha virt. eigenvalues --    0.10178   0.10618   0.11151   0.11334   0.11619
 Alpha virt. eigenvalues --    0.12125   0.12341   0.13334   0.13611   0.13925

  Beta  occ. eigenvalues --  -19.03278 -18.95949 -14.20550 -14.13995 -10.14710
  Beta  occ. eigenvalues --  -10.10733 -10.08097 -10.07903 -10.07775 -10.06569
  Beta  occ. eigenvalues --  -10.05664 -10.05314 -10.04313 -10.03287 -10.03138
  Beta  occ. eigenvalues --  -10.02559 -10.02439 -10.02305 -10.01932 -10.00974
  Beta  occ. eigenvalues --   -0.96717  -0.87230  -0.84042  -0.77458  -0.71447
  Beta  occ. eigenvalues --   -0.69545  -0.65585  -0.61168  -0.60340  -0.59041
  Beta  occ. eigenvalues --   -0.58898  -0.57618  -0.55210  -0.51331  -0.47556
  Beta  occ. eigenvalues --   -0.46388  -0.44823  -0.43118  -0.39833  -0.38471
  Beta  occ. eigenvalues --   -0.37593  -0.36526  -0.35558  -0.34653  -0.34203
  Beta  occ. eigenvalues --   -0.32554  -0.31911  -0.31670  -0.31178  -0.30114
  Beta  occ. eigenvalues --   -0.29497  -0.28959  -0.28790  -0.28544  -0.26952
  Beta  occ. eigenvalues --   -0.26552  -0.26220  -0.25796  -0.25266  -0.24703
  Beta  occ. eigenvalues --   -0.22919  -0.22374  -0.22020  -0.21672  -0.20782
  Beta  occ. eigenvalues --   -0.20056  -0.18197  -0.14665  -0.14285  -0.13507
  Beta  occ. eigenvalues --   -0.11065  -0.08417  -0.06558
  Beta virt. eigenvalues --    0.07000   0.08505   0.08859   0.09080   0.09476
  Beta virt. eigenvalues --    0.09573   0.10174   0.10612   0.11304   0.11500
  Beta virt. eigenvalues --    0.11744   0.12134   0.12336   0.13330   0.13778

 Mulliken charges and spin densities:
               1          2
     1  C   -0.686800   0.000739
     2  C    0.958615  -0.006403
     3  C   -0.571476  -0.000003
     4  C   -0.601668   0.006646
     5  C   -0.985353   0.013518
     6  N    0.490628   0.008087
     7  C   -0.197325   0.005982
     8  C   -1.336233  -0.116324
     9  N    0.109172   0.086853
    10  C   -1.336923   0.072259
    11  C   -0.334485  -0.004256
    12  C   -0.286553   0.198065
    13  C   -0.393697  -0.051207
    14  C    0.082592   0.225467
    15  C    0.920050  -0.057349
    16  C    0.108794   0.410565
    17  C    0.985961   0.054346
    18  C   -0.329311   0.129283
    19  O   -0.338769   0.076259
    20  O   -0.153971   0.004004
    21  H    0.120430   0.000090
    22  H    0.193366  -0.000141
    23  H    0.130421  -0.000131
    24  H    0.125248  -0.000071
    25  H    0.132566   0.000231
    26  H    0.114043   0.000018
    27  H    0.156512  -0.000611
    28  H    0.166527  -0.001750
    29  H    0.130881   0.000071
    30  H    0.100337  -0.000322
    31  H    0.275077  -0.000670
    32  H    0.169642  -0.001233
    33  H    0.182374   0.003281
    34  H    0.090050   0.000709
    35  H    0.084879  -0.003057
    36  H    0.115380  -0.014022
    37  H    0.100464   0.004153
    38  H    0.085084  -0.012328
    39  H    0.173801  -0.031014
    40  H    0.249669   0.000265
 Sum of Mulliken charges =  -1.00000   1.00000

 Dipole moment (field-independent basis, Debye):
    X=              5.3328    Y=             -0.1961    Z=             -0.6557  Tot=              5.3765
 Quadrupole moment (field-independent basis, Debye-Ang):
   XX=           -163.1430   YY=           -141.2390   ZZ=           -132.1019
   XY=             -7.9526   XZ=             -4.7641   YZ=             -1.1879

 Summary of Natural Population Analysis:

                                       Natural Population
                Natural  -----------------------------------------------
    Atom  No    Charge         Core      Valence    Rydberg      Total
 -----------------------------------------------------------------------
      C    1   -0.29020      0.99963     2.28480    0.00577     3.29020
      C    2   -0.05322      0.99959     2.04572    0.00791     3.05322
      C    3   -0.28359      0.99963     2.27844    0.00552     3.28359
      C    4   -0.28751      0.99963     2.28181    0.00607     3.28751
      C    5   -0.07818      0.99956     2.06814    0.01049     3.07818
      N    6   -0.25852      0.99963     2.74745    0.01144     3.75852
      C    7   -0.16917      0.99964     2.16325    0.00628     3.16917
      C    8    0.22910      0.99950     1.75576    0.01564     2.77090
      N    9   -0.26129      0.99963     2.74913    0.01253     3.76129
      C   10    0.11296      0.99948     1.87487    0.01269     2.88704
      C   11   -0.12240      0.99958     2.10599    0.01683     3.12240
      C   12   -0.01931      0.99959     2.01553    0.00418     3.01931
      C   13   -0.16115      0.99961     2.14400    0.01755     3.16115
      C   14   -0.03521      0.99954     2.02638    0.00929     3.03521
      C   15   -0.07997      0.99949     2.07108    0.00941     3.07997
      C   16    0.05427      0.99951     1.93855    0.00766     2.94573
      C   17   -0.10682      0.99941     2.09436    0.01306     3.10682
      C   18    0.41882      0.99965     1.55730    0.02423     2.58118
      O   19   -0.31670      0.99987     3.30884    0.00800     4.31670
      O   20   -0.35333      0.99988     3.34767    0.00579     4.35333
      H   21    0.09296      0.00000     0.40624    0.00080     0.40704
      H   22    0.11611      0.00000     0.38304    0.00084     0.38389
      H   23    0.09209      0.00000     0.40714    0.00077     0.40791
      H   24    0.09566      0.00000     0.40350    0.00084     0.40434
      H   25    0.09911      0.00000     0.40008    0.00081     0.40089
      H   26    0.09405      0.00000     0.40513    0.00082     0.40595
      H   27    0.11281      0.00000     0.38641    0.00078     0.38719
      H   28    0.10569      0.00000     0.39349    0.00082     0.39431
      H   29    0.08987      0.00000     0.40934    0.00079     0.41013
      H   30    0.08684      0.00000     0.41217    0.00099     0.41316
      H   31    0.11587      0.00000     0.38305    0.00108     0.38413
      H   32    0.10176      0.00000     0.39733    0.00091     0.39824
      H   33    0.09819      0.00000     0.40029    0.00152     0.40181
      H   34    0.08272      0.00000     0.41610    0.00119     0.41728
      H   35    0.09302      0.00000     0.40451    0.00246     0.40698
      H   36    0.08412      0.00000     0.41495    0.00093     0.41588
      H   37    0.08904      0.00000     0.40921    0.00175     0.41096
      H   38    0.08706      0.00000     0.41133    0.00161     0.41294
      H   39    0.09355      0.00000     0.40508    0.00137     0.40645
      H   40    0.23100      0.00000     0.26606    0.00294     0.26900
 =======================================================================
   * Total *    0.00008     19.99206    52.77352    0.23434    72.99992

 Normal termination of Gaussian 16 at Sat Dec 12 17:40:48 2020.
