 Gaussian 16, Revision A.03,

 -----------------------------------------------------------
 # opt freq B3LYP/6-31G(d) empiricaldispersion=gd3bj scf=xqc
 -----------------------------------------------------------

 -------------------------------
 CID_113503848_JID_7049_neutraal
 -------------------------------
 Symbolic Z-matrix:
 Charge =  0 Multiplicity = 1

 SCF Done:  E(RB3LYP) =  -1091.57897459     A.U. after   13 cycles
 SCF Done:  E(RB3LYP) =  -1091.58386424     A.U. after   12 cycles
 SCF Done:  E(RB3LYP) =  -1091.58426387     A.U. after   11 cycles
 SCF Done:  E(RB3LYP) =  -1091.58428769     A.U. after   11 cycles
 SCF Done:  E(RB3LYP) =  -1091.58452304     A.U. after   11 cycles
 SCF Done:  E(RB3LYP) =  -1091.58454010     A.U. after   10 cycles
 SCF Done:  E(RB3LYP) =  -1091.58455313     A.U. after    9 cycles
 SCF Done:  E(RB3LYP) =  -1091.58455754     A.U. after    9 cycles
 SCF Done:  E(RB3LYP) =  -1091.58456109     A.U. after    9 cycles
 SCF Done:  E(RB3LYP) =  -1091.58456170     A.U. after    8 cycles
 SCF Done:  E(RB3LYP) =  -1091.58456182     A.U. after    7 cycles
 SCF Done:  E(RB3LYP) =  -1091.58456178     A.U. after    6 cycles
 Optimization completed.
    -- Stationary point found.
 Normal termination of Gaussian 16 at Fri Dec 11 11:48:58 2020.

 --------------------------------------------------------------------
 #N Geom=AllCheck Guess=TCheck SCRF=Check GenChk RB3LYP/6-31G(d) Freq
 --------------------------------------------------------------------

 Structure from the checkpoint file:  "JID_7049.chk"
 -------------------------------
 CID_113503848_JID_7049_neutraal
 -------------------------------
 Charge =  0 Multiplicity = 1

 SCF Done:  E(RB3LYP) =  -1091.58456178     A.U. after    1 cycles

  Exact polarizability: 182.049  -4.968 171.770  -3.588  10.745 136.848
 Approx polarizability: 253.040  -3.481 243.961  -7.658  21.533 214.504

                      1                      2                      3
                      A                      A                      A
 Frequencies --     26.9422                33.5591                39.8819
 Red. masses --      3.4530                 4.8045                 3.0827
 Frc consts  --      0.0015                 0.0032                 0.0029
 IR Inten    --      0.0897                 0.5132                 0.2396

                      4                      5                      6
                      A                      A                      A
 Frequencies --     75.8339                84.8467                98.2567
 Red. masses --      4.3893                 3.8667                 2.1292
 Frc consts  --      0.0149                 0.0164                 0.0121
 IR Inten    --      0.0253                 1.0491                 0.6002

                      7                      8                      9
                      A                      A                      A
 Frequencies --    106.5784               140.7251               157.9564
 Red. masses --      2.9165                 3.0362                 2.6353
 Frc consts  --      0.0195                 0.0354                 0.0387
 IR Inten    --      1.0591                 0.3139                 1.0015

                     10                     11                     12
                      A                      A                      A
 Frequencies --    207.3333               237.3302               248.0036
 Red. masses --      3.2646                 3.0595                 2.0916
 Frc consts  --      0.0827                 0.1015                 0.0758
 IR Inten    --      2.2566                 0.5023                 0.6488

                     13                     14                     15
                      A                      A                      A
 Frequencies --    254.2078               270.1598               279.6284
 Red. masses --      1.2019                 1.5889                 2.1092
 Frc consts  --      0.0458                 0.0683                 0.0972
 IR Inten    --      0.1884                 0.7154                 0.4192

                     16                     17                     18
                      A                      A                      A
 Frequencies --    295.4091               322.8223               357.3962
 Red. masses --      3.8348                 3.8311                 3.3266
 Frc consts  --      0.1972                 0.2352                 0.2504
 IR Inten    --      4.1546                 1.6325                 2.6028

                     19                     20                     21
                      A                      A                      A
 Frequencies --    374.2945               406.4275               423.7430
 Red. masses --      2.5419                 2.5205                 3.1818
 Frc consts  --      0.2098                 0.2453                 0.3366
 IR Inten    --      1.2039                 1.1412                 2.4654

                     22                     23                     24
                      A                      A                      A
 Frequencies --    452.8313               475.0785               502.4821
 Red. masses --      2.4051                 3.5538                 2.3585
 Frc consts  --      0.2906                 0.4726                 0.3509
 IR Inten    --      4.7512                 3.6359                 5.9977

                     25                     26                     27
                      A                      A                      A
 Frequencies --    605.8938               629.9386               657.4341
 Red. masses --      4.1759                 4.1745                 3.1394
 Frc consts  --      0.9032                 0.9760                 0.7995
 IR Inten    --      9.2690                 4.3717                 2.9615

                     28                     29                     30
                      A                      A                      A
 Frequencies --    666.0004               691.1320               727.5769
 Red. masses --      4.0930                 3.8674                 1.3740
 Frc consts  --      1.0696                 1.0884                 0.4285
 IR Inten    --      6.8060                 5.1636                26.5146

                     31                     32                     33
                      A                      A                      A
 Frequencies --    763.0495               789.9450               801.3623
 Red. masses --      3.8736                 3.1659                 3.6202
 Frc consts  --      1.3288                 1.1640                 1.3697
 IR Inten    --      1.4589                 7.8395                22.3477

                     34                     35                     36
                      A                      A                      A
 Frequencies --    827.6956               840.9777               856.3930
 Red. masses --      1.0917                 1.3332                 2.5263
 Frc consts  --      0.4407                 0.5555                 1.0916
 IR Inten    --      1.5139                 7.5167                 2.8976

                     37                     38                     39
                      A                      A                      A
 Frequencies --    878.5397               917.2360               922.6520
 Red. masses --      1.7535                 4.6929                 2.0415
 Frc consts  --      0.7974                 2.3262                 1.0239
 IR Inten    --     38.0356                21.3068                 2.2748

                     40                     41                     42
                      A                      A                      A
 Frequencies --    949.0378               955.8023               957.7911
 Red. masses --      1.8318                 1.6023                 2.0647
 Frc consts  --      0.9721                 0.8625                 1.1160
 IR Inten    --      7.2213                 4.0586                11.1439

                     43                     44                     45
                      A                      A                      A
 Frequencies --    983.7992               993.5313              1019.6260
 Red. masses --      1.7165                 1.7978                 1.8758
 Frc consts  --      0.9788                 1.0455                 1.1490
 IR Inten    --     22.3766                 8.4980                14.0056

                     46                     47                     48
                      A                      A                      A
 Frequencies --   1047.2338              1051.3052              1078.3203
 Red. masses --      1.7637                 2.4264                 1.7081
 Frc consts  --      1.1396                 1.5800                 1.1702
 IR Inten    --     32.5691                 3.7788                 8.4669

                     49                     50                     51
                      A                      A                      A
 Frequencies --   1087.9055              1106.9434              1123.5562
 Red. masses --      1.8001                 1.7413                 1.9672
 Frc consts  --      1.2553                 1.2571                 1.4631
 IR Inten    --     28.3040                 1.6764                17.8301

                     52                     53                     54
                      A                      A                      A
 Frequencies --   1142.9574              1158.7994              1166.9569
 Red. masses --      2.7279                 1.6984                 2.3917
 Frc consts  --      2.0996                 1.3437                 1.9190
 IR Inten    --     25.5956                16.0299                19.0209

                     55                     56                     57
                      A                      A                      A
 Frequencies --   1174.1146              1187.3235              1203.6658
 Red. masses --      2.4982                 1.9678                 2.2132
 Frc consts  --      2.0291                 1.6345                 1.8892
 IR Inten    --     10.0798                 5.2958                16.5486

                     58                     59                     60
                      A                      A                      A
 Frequencies --   1220.9095              1252.1617              1258.3336
 Red. masses --      1.4869                 1.4147                 2.0153
 Frc consts  --      1.3058                 1.3069                 1.8801
 IR Inten    --      5.1621                 2.3535                 4.5137

                     61                     62                     63
                      A                      A                      A
 Frequencies --   1282.6565              1294.5160              1300.5110
 Red. masses --      1.8028                 1.3594                 1.5406
 Frc consts  --      1.7475                 1.3422                 1.5352
 IR Inten    --      1.3203                 6.4573                20.0598

                     64                     65                     66
                      A                      A                      A
 Frequencies --   1319.1777              1326.5559              1341.6575
 Red. masses --      1.3611                 1.2128                 1.2783
 Frc consts  --      1.3956                 1.2575                 1.3557
 IR Inten    --      2.4343                 3.9191                 7.2031

                     67                     68                     69
                      A                      A                      A
 Frequencies --   1356.9334              1374.4228              1398.2615
 Red. masses --      1.3462                 1.4038                 1.2726
 Frc consts  --      1.4604                 1.5624                 1.4659
 IR Inten    --     19.1350                31.8345                 5.6014

                     70                     71                     72
                      A                      A                      A
 Frequencies --   1404.3765              1412.7081              1417.6628
 Red. masses --      1.4364                 1.3065                 1.3498
 Frc consts  --      1.6692                 1.5362                 1.5983
 IR Inten    --     43.2106                 2.4335                 4.0139

                     73                     74                     75
                      A                      A                      A
 Frequencies --   1430.6752              1444.2641              1445.0597
 Red. masses --      1.3387                 1.3000                 1.3625
 Frc consts  --      1.6145                 1.5977                 1.6763
 IR Inten    --      6.2296                 7.7690                 8.6674

                     76                     77                     78
                      A                      A                      A
 Frequencies --   1475.5240              1493.3106              1495.6086
 Red. masses --      3.0371                 1.0971                 1.0979
 Frc consts  --      3.8959                 1.4414                 1.4470
 IR Inten    --      3.9775                 2.6960                11.4995

                     79                     80                     81
                      A                      A                      A
 Frequencies --   1507.2586              1518.0961              1518.7454
 Red. masses --      1.1010                 1.0495                 1.0559
 Frc consts  --      1.4737                 1.4251                 1.4350
 IR Inten    --      8.3832                 5.6516                 4.4376

                     82                     83                     84
                      A                      A                      A
 Frequencies --   1526.2071              1528.7458              1531.1198
 Red. masses --      1.0740                 1.0525                 1.0600
 Frc consts  --      1.4739                 1.4492                 1.4641
 IR Inten    --      9.8053                 1.1342                 5.5483

                     85                     86                     87
                      A                      A                      A
 Frequencies --   1536.2748              1548.1078              1554.8529
 Red. masses --      1.0752                 4.6688                 1.0916
 Frc consts  --      1.4952                 6.5926                 1.5548
 IR Inten    --      2.1220                22.1397                 2.4149

                     88                     89                     90
                      A                      A                      A
 Frequencies --   1574.2423              1659.3502              2895.8372
 Red. masses --      1.1638                 7.7428                 1.0741
 Frc consts  --      1.6993                12.5609                 5.3070
 IR Inten    --     44.5424                 6.7944                26.9566

                     91                     92                     93
                      A                      A                      A
 Frequencies --   2904.0785              2995.5044              3030.5626
 Red. masses --      1.0742                 1.0677                 1.0595
 Frc consts  --      5.3376                 5.6449                 5.7329
 IR Inten    --    131.5744                63.5646                25.7882

                     94                     95                     96
                      A                      A                      A
 Frequencies --   3038.2681              3045.7958              3047.5253
 Red. masses --      1.0776                 1.0456                 1.0456
 Frc consts  --      5.8607                 5.7150                 5.7213
 IR Inten    --     26.3673                41.5514                28.6062

                     97                     98                     99
                      A                      A                      A
 Frequencies --   3055.3285              3059.1623              3062.3504
 Red. masses --      1.0632                 1.0915                 1.0829
 Frc consts  --      5.8478                 6.0183                 5.9832
 IR Inten    --     18.0618                 7.2754                30.2038

                    100                    101                    102
                      A                      A                      A
 Frequencies --   3068.7590              3076.1184              3076.5246
 Red. masses --      1.0618                 1.0910                 1.0989
 Frc consts  --      5.8914                 6.0827                 6.1279
 IR Inten    --     20.9324                39.2952                27.0854

                    103                    104                    105
                      A                      A                      A
 Frequencies --   3106.5099              3108.7183              3120.0046
 Red. masses --      1.1014                 1.0983                 1.0942
 Frc consts  --      6.2624                 6.2538                 6.2757
 IR Inten    --     16.3390                60.1363                24.4694

                    106                    107                    108
                      A                      A                      A
 Frequencies --   3122.2967              3132.0826              3146.5192
 Red. masses --      1.1048                 1.1030                 1.1014
 Frc consts  --      6.3455                 6.3750                 6.4249
 IR Inten    --     13.6818                27.6143                30.9165

                    109                    110                    111
                      A                      A                      A
 Frequencies --   3256.9108              3302.7240              3407.2160
 Red. masses --      1.0929                 1.1029                 1.0748
 Frc consts  --      6.8306                 7.0882                 7.3516
 IR Inten    --      3.5925                 1.8463               148.6966

 - Thermochemistry -
 -------------------
 Temperature   298.150 Kelvin.  Pressure   1.00000 Atm.
 Atom     1 has atomic number  6 and mass  12.00000

 Molecular mass:   254.14529 amu.
 Principal axes and moments of inertia in atomic units:
                           1         2         3
     Eigenvalues --  3385.223986206.474018169.00467
           X            0.99913   0.04002  -0.01145
           Y           -0.04002   0.99920   0.00046
           Z            0.01146   0.00000   0.99993
 This molecule is an asymmetric top.
 Rotational symmetry number  1.
 Warning -- assumption of classical behavior for rotation
           may cause significant error
 Rotational temperatures (Kelvin)      0.02559     0.01396     0.01060
 Rotational constants (GHZ):           0.53312     0.29078     0.22093
 Zero-point vibrational energy     901047.1 (Joules/Mol)
                                  215.35542 (Kcal/Mol)
 Warning -- explicit consideration of  25 degrees of freedom as
           vibrations may cause significant error
 Vibrational temperatures:     38.76    48.28    57.38   109.11   122.08
          (Kelvin)            141.37   153.34   202.47   227.26   298.31
                              341.47   356.82   365.75   388.70   402.32
                              425.03   464.47   514.21   538.53   584.76
                              609.67   651.52   683.53   722.96   871.75
                              906.34   945.90   958.23   994.38  1046.82
                             1097.86  1136.55  1152.98  1190.87  1209.98
                             1232.16  1264.02  1319.70  1327.49  1365.45
                             1375.19  1378.05  1415.47  1429.47  1467.01
                             1506.74  1512.59  1551.46  1565.25  1592.64
                             1616.55  1644.46  1667.25  1678.99  1689.29
                             1708.29  1731.81  1756.62  1801.58  1810.46
                             1845.46  1862.52  1871.15  1898.00  1908.62
                             1930.35  1952.32  1977.49  2011.79  2020.58
                             2032.57  2039.70  2058.42  2077.97  2079.12
                             2122.95  2148.54  2151.85  2168.61  2184.20
                             2185.14  2195.87  2199.52  2202.94  2210.36
                             2227.38  2237.09  2264.98  2387.43  4166.46
                             4178.32  4309.86  4360.30  4371.39  4382.22
                             4384.71  4395.94  4401.45  4406.04  4415.26
                             4425.85  4426.43  4469.57  4472.75  4488.99
                             4492.29  4506.37  4527.14  4685.97  4751.88
                             4902.22

 Zero-point correction=                           0.343191 (Hartree/Particle)
 Thermal correction to Energy=                    0.360817
 Thermal correction to Enthalpy=                  0.361761
 Thermal correction to Gibbs Free Energy=         0.296256
 Sum of electronic and zero-point Energies=          -1091.241371
 Sum of electronic and thermal Energies=             -1091.223745
 Sum of electronic and thermal Enthalpies=           -1091.222800
 Sum of electronic and thermal Free Energies=        -1091.288306

                     E (Thermal)             CV                S
                      KCal/Mol        Cal/Mol-Kelvin    Cal/Mol-Kelvin
 Total                  226.416             66.779            137.867
 Electronic               0.000              0.000              0.000
 Translational            0.889              2.981             42.498
 Rotational               0.889              2.981             33.506
 Vibrational            224.639             60.817             61.863
 Vibration     1          0.593              1.984              6.043
 Vibration     2          0.594              1.983              5.607
 Vibration     3          0.594              1.981              5.265
 Vibration     4          0.599              1.965              3.996
 Vibration     5          0.601              1.960              3.776
 Vibration     6          0.604              1.950              3.489
 Vibration     7          0.605              1.944              3.330
 Vibration     8          0.615              1.913              2.794
 Vibration     9          0.621              1.894              2.574
 Vibration    10          0.641              1.829              2.067
 Vibration    11          0.656              1.784              1.823
 Vibration    12          0.662              1.766              1.745
 Vibration    13          0.665              1.756              1.701
 Vibration    14          0.674              1.728              1.595
 Vibration    15          0.680              1.711              1.536
 Vibration    16          0.690              1.682              1.443
 Vibration    17          0.708              1.630              1.296
 Vibration    18          0.733              1.560              1.133
 Vibration    19          0.745              1.525              1.062
 Vibration    20          0.771              1.456              0.939
 Vibration    21          0.786              1.419              0.879
 Vibration    22          0.811              1.355              0.787
 Vibration    23          0.832              1.305              0.723
 Vibration    24          0.858              1.245              0.652
 Vibration    25          0.965              1.019              0.440

                           ! Non-Optimized Parameters !
 Normal termination of Gaussian 16 at Fri Dec 11 12:09:29 2020.

 ----------------------------------------------------------------------
 # B3LYP/6-311++G(d,p) empiricaldispersion=gd3bj scf=xqc pop=npa geom=c
 heck
 ----------------------------------------------------------------------

 ---------------------------------------
 CID_113503848_JID_7049_Energie_neutraal
 ---------------------------------------
 Structure from the checkpoint file:  "JID_7049.chk"
 Charge =  0 Multiplicity = 1

 SCF Done:  E(RB3LYP) =  -1091.80296270     A.U. after   15 cycles
 Normal termination of Gaussian 16 at Fri Dec 11 12:17:34 2020.

 ----------------------------------------------------------------------
 # B3LYP/6-311++G(d,p) empiricaldispersion=gd3bj scf=xqc pop=npa geom=c
 heck
 ----------------------------------------------------------------------

 -------------------------------------
 CID_113503848_JID_7049_Energie_kation
 -------------------------------------
 Structure from the checkpoint file:  "JID_7049.chk"
 Charge =  1 Multiplicity = 2

 SCF Done:  E(UB3LYP) =  -1091.53156159     A.U. after   28 cycles
 Normal termination of Gaussian 16 at Fri Dec 11 12:38:57 2020.
 Gaussian 16:  ES64L-G16RevA.03 25-Dec-2016

 ----------------------------------------------------------------------
 # B3LYP/6-311++G(d,p) empiricaldispersion=gd3bj scf=xqc pop=npa geom=c
 heck
 ----------------------------------------------------------------------

 ------------------------------------
 CID_113503848_JID_7049_Energie_anion
 ------------------------------------
 Structure from the checkpoint file:  "JID_7049.chk"
 Charge = -1 Multiplicity = 2

                         Standard orientation:
 ---------------------------------------------------------------------
 Center     Atomic      Atomic             Coordinates (Angstroms)
 Number     Number       Type             X           Y           Z
 ---------------------------------------------------------------------
      1          6           0        1.591382    3.852684   -0.688771
      2          6           0        2.354437    2.898135    0.224453
      3          7           0        2.187735    1.521664   -0.224662
      4          6           0        2.790177    0.556760    0.696894
      5          6           0        2.413096   -0.840246    0.333377
      6          6           0        1.224305   -1.518426    0.396264
      7          6           0        1.480039   -2.824150   -0.147702
      8          6           0        2.795484   -2.845682   -0.495186
      9          8           0        3.375764   -1.643606   -0.211214
     10          6           0       -0.083154   -0.981463    0.906210
     11          7           0       -0.568684    0.148363    0.098521
     12          6           0       -0.910472   -0.194311   -1.281795
     13          6           0       -2.252069   -0.915105   -1.438485
     14         16           0       -3.651045    0.124326   -0.859836
     15          6           0       -3.009794    0.540079    0.823565
     16          6           0       -1.547271    1.025390    0.735640
     17          6           0       -3.260776   -0.584187    1.831954
     18          1           0        1.929154    3.742744   -1.724116
     19          1           0        1.734156    4.893892   -0.380135
     20          1           0        0.514708    3.640243   -0.661247
     21          1           0        3.425893    3.141785    0.205601
     22          1           0        2.024492    3.044746    1.274150
     23          1           0        1.188866    1.299920   -0.260546
     24          1           0        3.881939    0.649258    0.660810
     25          1           0        2.492176    0.742866    1.750016
     26          1           0        0.768133   -3.631739   -0.254069
     27          1           0        3.445923   -3.591120   -0.925476
     28          1           0       -0.800708   -1.814571    0.966405
     29          1           0        0.034362   -0.604227    1.929719
     30          1           0       -0.934754    0.734193   -1.864820
     31          1           0       -0.101955   -0.815637   -1.681176
     32          1           0       -2.252946   -1.873186   -0.907587
     33          1           0       -2.454997   -1.123076   -2.493360
     34          1           0       -3.611429    1.409257    1.115470
     35          1           0       -1.187426    1.246250    1.749153
     36          1           0       -1.545274    1.968096    0.173546
     37          1           0       -2.828303   -0.329712    2.808356
     38          1           0       -4.334504   -0.745935    1.962915
     39          1           0       -2.822560   -1.531467    1.507967
 ---------------------------------------------------------------------

 SCF Done:  E(UB3LYP) =  -1091.79120966     A.U. after   33 cycles
 SCF Done:  E(UB3LYP) =  -1091.79120966     a.u. after    1 cycles

 The electronic state is 2-A.
 Alpha  occ. eigenvalues --  -88.73991 -19.09994 -14.21952 -14.19679 -10.13246
 Alpha  occ. eigenvalues --  -10.13101 -10.11118 -10.11078 -10.10975 -10.10548
 Alpha  occ. eigenvalues --  -10.10539 -10.10242 -10.10029 -10.08290 -10.08145
 Alpha  occ. eigenvalues --  -10.07240 -10.06652  -7.82625  -5.79000  -5.78670
 Alpha  occ. eigenvalues --   -5.77995  -1.02318  -0.84353  -0.81365  -0.72934
 Alpha  occ. eigenvalues --   -0.70904  -0.68765  -0.68387  -0.64663  -0.61895
 Alpha  occ. eigenvalues --   -0.60003  -0.57002  -0.54211  -0.52763  -0.51745
 Alpha  occ. eigenvalues --   -0.50252  -0.46146  -0.44668  -0.42608  -0.40392
 Alpha  occ. eigenvalues --   -0.39362  -0.38321  -0.37735  -0.37110  -0.35531
 Alpha  occ. eigenvalues --   -0.35327  -0.34960  -0.33996  -0.33085  -0.32385
 Alpha  occ. eigenvalues --   -0.32193  -0.31812  -0.30362  -0.29817  -0.28808
 Alpha  occ. eigenvalues --   -0.28475  -0.27425  -0.26900  -0.26468  -0.26152
 Alpha  occ. eigenvalues --   -0.26045  -0.25527  -0.23264  -0.21146  -0.18836
 Alpha  occ. eigenvalues --   -0.14895  -0.13600  -0.13359  -0.11682   0.04135
 Alpha virt. eigenvalues --    0.05955   0.06616   0.07248   0.07537   0.08189
 Alpha virt. eigenvalues --    0.08456   0.08583   0.09141   0.09615   0.10258
 Alpha virt. eigenvalues --    0.10816   0.11012   0.11164   0.11629   0.12046

  Beta  occ. eigenvalues --  -88.73988 -19.09993 -14.21954 -14.19672 -10.13245
  Beta  occ. eigenvalues --  -10.13095 -10.11107 -10.11052 -10.10967 -10.10530
  Beta  occ. eigenvalues --  -10.10522 -10.10212 -10.10015 -10.08291 -10.08126
  Beta  occ. eigenvalues --  -10.07227 -10.06612  -7.82622  -5.78994  -5.78667
  Beta  occ. eigenvalues --   -5.77993  -1.02315  -0.84341  -0.81352  -0.72913
  Beta  occ. eigenvalues --   -0.70881  -0.68749  -0.68353  -0.64641  -0.61859
  Beta  occ. eigenvalues --   -0.59953  -0.56976  -0.54157  -0.52726  -0.51704
  Beta  occ. eigenvalues --   -0.50217  -0.46118  -0.44635  -0.42564  -0.40354
  Beta  occ. eigenvalues --   -0.39338  -0.38297  -0.37702  -0.37077  -0.35507
  Beta  occ. eigenvalues --   -0.35312  -0.34934  -0.33968  -0.33044  -0.32359
  Beta  occ. eigenvalues --   -0.32160  -0.31779  -0.30319  -0.29795  -0.28781
  Beta  occ. eigenvalues --   -0.28454  -0.27390  -0.26867  -0.26438  -0.26134
  Beta  occ. eigenvalues --   -0.26017  -0.25502  -0.23227  -0.21124  -0.18824
  Beta  occ. eigenvalues --   -0.14874  -0.13585  -0.13341  -0.11668
  Beta virt. eigenvalues --    0.06210   0.06676   0.07168   0.07643   0.07874
  Beta virt. eigenvalues --    0.08449   0.08653   0.08958   0.09448   0.09985
  Beta virt. eigenvalues --    0.10492   0.10986   0.11089   0.11452   0.11725

 Mulliken charges and spin densities:
               1          2
     1  C    0.098254  -0.663198
     2  C   -0.092138  -0.049090
     3  N   -0.175726   0.088008
     4  C    1.201761  -2.020211
     5  C   -2.526081   2.450035
     6  C   -0.004611   0.309484
     7  C    0.402105  -0.194996
     8  C    0.374185  -0.617753
     9  O   -0.011993   0.012703
    10  C    0.597777  -1.232336
    11  N    0.000099   0.062281
    12  C   -0.717581   0.534445
    13  C    0.285824  -1.050974
    14  S   -0.072320  -0.020457
    15  C   -1.346924   1.763085
    16  C    1.195114  -1.562401
    17  C    1.372213  -2.114451
    18  H    0.082834   0.060059
    19  H   -0.064017   0.188607
    20  H   -0.001747   0.146425
    21  H    0.050501   0.075497
    22  H   -0.104366   0.204404
    23  H    0.337270   0.026217
    24  H    0.130333   0.051172
    25  H   -0.122103   0.252749
    26  H   -0.991294   1.175218
    27  H   -0.109985   0.288040
    28  H    0.246092  -0.145548
    29  H   -0.089158   0.281113
    30  H    0.086085   0.059662
    31  H    0.238884  -0.051270
    32  H   -0.011013   0.205547
    33  H   -0.028018   0.242277
    34  H   -0.263925   0.549705
    35  H   -0.339246   0.531015
    36  H    0.156456  -0.074454
    37  H   -0.249783   0.390947
    38  H   -0.172627   0.328222
    39  H   -0.361132   0.520223
 Sum of Mulliken charges =  -1.00000   1.00000

 Dipole moment (field-independent basis, Debye):
    X=              3.3650    Y=              1.4918    Z=             -3.2010  Tot=              4.8780
 Quadrupole moment (field-independent basis, Debye-Ang):
   XX=           -175.9117   YY=           -173.0732   ZZ=           -157.7637
   XY=             -3.7402   XZ=              7.0213   YZ=             -2.7415

 Summary of Natural Population Analysis:

                                       Natural Population
                Natural  -----------------------------------------------
    Atom  No    Charge         Core      Valence    Rydberg      Total
 -----------------------------------------------------------------------
      C    1   -0.28658      0.99967     2.28240    0.00451     3.28658
      C    2   -0.08668      0.99965     2.07623    0.01079     3.08668
      N    3   -0.34692      0.99973     2.83708    0.01011     3.84692
      C    4   -0.10870      0.99959     2.09722    0.01189     3.10870
      C    5    0.15969      0.99938     1.82561    0.01532     2.84031
      C    6   -0.06747      0.99945     2.05714    0.01088     3.06747
      C    7   -0.14124      0.99952     2.13211    0.00961     3.14124
      C    8    0.05479      0.99951     1.93173    0.01398     2.94521
      O    9   -0.23210      0.99986     3.22510    0.00715     4.23210
      C   10   -0.09318      0.99956     2.08142    0.01220     3.09318
      N   11   -0.29291      0.99973     2.77872    0.01445     3.79291
      C   12   -0.09066      0.99959     2.07965    0.01142     3.09066
      C   13   -0.26043      0.99958     2.25070    0.01015     3.26043
      S   14    0.08313      4.99962     2.90110    0.01616     7.91687
      C   15   -0.17411      0.99957     2.16086    0.01368     3.17411
      C   16   -0.08600      0.99956     2.07154    0.01489     3.08600
      C   17   -0.29100      0.99963     2.28396    0.00741     3.29100
      H   18    0.09865      0.00000     0.40024    0.00111     0.40135
      H   19    0.09746      0.00000     0.40178    0.00077     0.40254
      H   20    0.09705      0.00000     0.40151    0.00145     0.40295
      H   21    0.08522      0.00000     0.41349    0.00129     0.41478
      H   22    0.07807      0.00000     0.42038    0.00155     0.42193
      H   23    0.18790      0.00000     0.30609    0.00601     0.31210
      H   24    0.09992      0.00000     0.39862    0.00146     0.40008
      H   25    0.08887      0.00000     0.40972    0.00141     0.41113
      H   26    0.11235      0.00000     0.38595    0.00170     0.38765
      H   27    0.09401      0.00000     0.40508    0.00091     0.40599
      H   28    0.09107      0.00000     0.40639    0.00254     0.40893
      H   29    0.10653      0.00000     0.39150    0.00197     0.39347
      H   30    0.09672      0.00000     0.40201    0.00127     0.40328
      H   31    0.10503      0.00000     0.39356    0.00141     0.39497
      H   32    0.10227      0.00000     0.39592    0.00181     0.39773
      H   33    0.10780      0.00000     0.39121    0.00099     0.39220
      H   34    0.10568      0.00000     0.39316    0.00116     0.39432
      H   35    0.10255      0.00000     0.39517    0.00229     0.39745
      H   36    0.09759      0.00000     0.40063    0.00178     0.40241
      H   37    0.10313      0.00000     0.39484    0.00203     0.39687
      H   38    0.10301      0.00000     0.39567    0.00131     0.39699
      H   39    0.09949      0.00000     0.39874    0.00177     0.40051
 =======================================================================
   * Total *    0.00000     20.99319    47.77423    0.23258    69.00000

 Normal termination of Gaussian 16 at Fri Dec 11 13:05:46 2020.
