 Gaussian 16, Revision A.03,

 -----------------------------------------------------------
 # opt freq B3LYP/6-31G(d) empiricaldispersion=gd3bj scf=xqc
 -----------------------------------------------------------

 -------------------------------
 CID_142495702_JID_4193_neutraal
 -------------------------------
 Symbolic Z-matrix:
 Charge =  0 Multiplicity = 1

 SCF Done:  E(RB3LYP) =  -567.662284074     A.U. after   12 cycles
 SCF Done:  E(RB3LYP) =  -567.665596361     A.U. after   11 cycles
 SCF Done:  E(RB3LYP) =  -567.665860427     A.U. after   11 cycles
 SCF Done:  E(RB3LYP) =  -567.667993325     A.U. after   11 cycles
 SCF Done:  E(RB3LYP) =  -567.670194499     A.U. after   10 cycles
 SCF Done:  E(RB3LYP) =  -567.671542301     A.U. after   11 cycles
 SCF Done:  E(RB3LYP) =  -567.671858943     A.U. after   10 cycles
 SCF Done:  E(RB3LYP) =  -567.672863479     A.U. after   10 cycles
 SCF Done:  E(RB3LYP) =  -567.672965057     A.U. after   10 cycles
 SCF Done:  E(RB3LYP) =  -567.673505000     A.U. after   10 cycles
 SCF Done:  E(RB3LYP) =  -567.673544688     A.U. after    9 cycles
 SCF Done:  E(RB3LYP) =  -567.673558693     A.U. after    9 cycles
 SCF Done:  E(RB3LYP) =  -567.673559879     A.U. after    7 cycles
 SCF Done:  E(RB3LYP) =  -567.673560314     A.U. after    7 cycles
 SCF Done:  E(RB3LYP) =  -567.673560349     A.U. after    6 cycles
 SCF Done:  E(RB3LYP) =  -567.673560354     A.U. after    5 cycles
 Optimization completed.
    -- Stationary point found.
 Normal termination of Gaussian 16 at Thu Dec 10 09:24:18 2020.

 --------------------------------------------------------------------
 #N Geom=AllCheck Guess=TCheck SCRF=Check GenChk RB3LYP/6-31G(d) Freq
 --------------------------------------------------------------------

 Structure from the checkpoint file:  "JID_4193.chk"
 -------------------------------
 CID_142495702_JID_4193_neutraal
 -------------------------------
 Charge =  0 Multiplicity = 1

 SCF Done:  E(RB3LYP) =  -567.673560354     A.U. after    1 cycles

  Exact polarizability: 164.903  -0.098 139.129  -0.463   1.950 130.412
 Approx polarizability: 199.132  -0.403 195.111  -0.568   1.558 191.826

                      1                      2                      3
                      A                      A                      A
 Frequencies --     26.8118                38.7983                47.2622
 Red. masses --      3.2204                 2.8617                 3.2328
 Frc consts  --      0.0014                 0.0025                 0.0043
 IR Inten    --      0.0238                 0.0562                 0.0219

                      4                      5                      6
                      A                      A                      A
 Frequencies --     58.3049                88.1659               116.3693
 Red. masses --      2.8188                 2.4237                 2.6274
 Frc consts  --      0.0056                 0.0111                 0.0210
 IR Inten    --      0.0206                 0.2423                 0.9049

                      7                      8                      9
                      A                      A                      A
 Frequencies --    127.4747               148.5729               171.9999
 Red. masses --      2.2898                 2.3044                 2.0106
 Frc consts  --      0.0219                 0.0300                 0.0350
 IR Inten    --      0.0105                 1.3232                 0.0605

                     10                     11                     12
                      A                      A                      A
 Frequencies --    183.5999               219.0557               239.0069
 Red. masses --      1.7539                 2.1178                 1.5875
 Frc consts  --      0.0348                 0.0599                 0.0534
 IR Inten    --      0.3759                 0.3084                 0.0717

                     13                     14                     15
                      A                      A                      A
 Frequencies --    247.0365               275.8407               281.5883
 Red. masses --      1.7141                 1.4057                 1.4371
 Frc consts  --      0.0616                 0.0630                 0.0671
 IR Inten    --      0.3051                 0.5686                 0.7681

                     16                     17                     18
                      A                      A                      A
 Frequencies --    293.7908               302.3626               325.3981
 Red. masses --      1.1599                 1.6615                 1.9247
 Frc consts  --      0.0590                 0.0895                 0.1201
 IR Inten    --      0.0651                 0.1971                 0.0390

                     19                     20                     21
                      A                      A                      A
 Frequencies --    349.8474               361.3323               370.9084
 Red. masses --      2.1904                 1.9434                 2.2309
 Frc consts  --      0.1580                 0.1495                 0.1808
 IR Inten    --      0.5957                 0.1232                 0.4009

                     22                     23                     24
                      A                      A                      A
 Frequencies --    395.7556               435.8407               464.0919
 Red. masses --      2.1984                 2.0705                 2.1748
 Frc consts  --      0.2029                 0.2317                 0.2760
 IR Inten    --      3.4811                 1.5292                 6.1953

                     25                     26                     27
                      A                      A                      A
 Frequencies --    489.4386               515.9541               578.2528
 Red. masses --      2.1881                 2.3566                 2.5156
 Frc consts  --      0.3088                 0.3696                 0.4956
 IR Inten    --      1.1208                 2.0246                 0.7382

                     28                     29                     30
                      A                      A                      A
 Frequencies --    708.0689               729.9577               743.6515
 Red. masses --      2.0742                 1.2633                 1.2964
 Frc consts  --      0.6127                 0.3966                 0.4224
 IR Inten    --     51.2211                 4.2440                26.1182

                     31                     32                     33
                      A                      A                      A
 Frequencies --    780.2582               793.6108               798.8411
 Red. masses --      1.8077                 1.4488                 1.6819
 Frc consts  --      0.6484                 0.5376                 0.6324
 IR Inten    --      8.1972                 8.6252                45.9152

                     34                     35                     36
                      A                      A                      A
 Frequencies --    837.5963               852.3673               877.0780
 Red. masses --      2.1692                 1.7245                 1.4951
 Frc consts  --      0.8966                 0.7382                 0.6776
 IR Inten    --      1.1190                 0.5814                 9.4676

                     37                     38                     39
                      A                      A                      A
 Frequencies --    887.7028               906.9601               949.1112
 Red. masses --      1.7259                 1.6463                 1.8423
 Frc consts  --      0.8013                 0.7979                 0.9778
 IR Inten    --      4.7147                 0.5264                 0.5517

                     40                     41                     42
                      A                      A                      A
 Frequencies --    973.2565               979.6298               992.4227
 Red. masses --      1.7558                 1.5774                 1.6660
 Frc consts  --      0.9799                 0.8919                 0.9668
 IR Inten    --      1.0356                 2.3634                 1.0817

                     43                     44                     45
                      A                      A                      A
 Frequencies --   1005.9143              1027.4887              1046.6043
 Red. masses --      1.5638                 2.1154                 1.6098
 Frc consts  --      0.9323                 1.3159                 1.0389
 IR Inten    --      0.7258                 0.7943                 4.1848

                     46                     47                     48
                      A                      A                      A
 Frequencies --   1058.5582              1089.7969              1104.9503
 Red. masses --      1.5718                 1.7917                 2.2555
 Frc consts  --      1.0377                 1.2538                 1.6225
 IR Inten    --      4.2299                 1.8029                 1.4857

                     49                     50                     51
                      A                      A                      A
 Frequencies --   1110.8291              1126.2807              1131.6595
 Red. masses --      2.0257                 1.5883                 1.8788
 Frc consts  --      1.4727                 1.1871                 1.4177
 IR Inten    --      2.8011                 6.1582                 0.2832

                     52                     53                     54
                      A                      A                      A
 Frequencies --   1137.2350              1161.1848              1168.9644
 Red. masses --      1.8509                 2.0723                 1.8016
 Frc consts  --      1.4104                 1.6463                 1.4504
 IR Inten    --      7.5300                 3.2321                 6.6309

                     55                     56                     57
                      A                      A                      A
 Frequencies --   1190.1705              1201.2068              1218.4891
 Red. masses --      2.1029                 1.8293                 1.4467
 Frc consts  --      1.7550                 1.5551                 1.2655
 IR Inten    --     13.3051                 8.0315                 1.6218

                     58                     59                     60
                      A                      A                      A
 Frequencies --   1247.7358              1271.7827              1285.8614
 Red. masses --      1.4986                 1.4513                 1.3839
 Frc consts  --      1.3746                 1.3830                 1.3482
 IR Inten    --     13.7176                 2.5600                 3.6087

                     61                     62                     63
                      A                      A                      A
 Frequencies --   1295.4241              1318.3302              1333.7639
 Red. masses --      1.5583                 1.2848                 1.1810
 Frc consts  --      1.5407                 1.3156                 1.2378
 IR Inten    --      4.8487                 3.8125                 4.5993

                     64                     65                     66
                      A                      A                      A
 Frequencies --   1345.4592              1358.4745              1375.9551
 Red. masses --      1.2784                 1.2439                 1.2224
 Frc consts  --      1.3635                 1.3525                 1.3635
 IR Inten    --      1.4503                 2.7630                 6.2010

                     67                     68                     69
                      A                      A                      A
 Frequencies --   1386.7739              1393.5394              1399.3379
 Red. masses --      1.4237                 1.4086                 1.3472
 Frc consts  --      1.6132                 1.6117                 1.5542
 IR Inten    --      2.1843                 6.5494                 2.5575

                     70                     71                     72
                      A                      A                      A
 Frequencies --   1408.3467              1419.6744              1425.6201
 Red. masses --      1.4399                 1.4326                 1.3415
 Frc consts  --      1.6827                 1.7012                 1.6064
 IR Inten    --      2.4232                 3.5037                 1.4474

                     73                     74                     75
                      A                      A                      A
 Frequencies --   1429.1240              1435.0081              1443.4471
 Red. masses --      1.4338                 1.2478                 1.2714
 Frc consts  --      1.7254                 1.5139                 1.5608
 IR Inten    --      2.4783                 9.2580                 5.5881

                     76                     77                     78
                      A                      A                      A
 Frequencies --   1443.5094              1483.9320              1499.3704
 Red. masses --      1.2776                 1.1663                 1.1294
 Frc consts  --      1.5685                 1.5132                 1.4959
 IR Inten    --      6.1154                 2.5696                 5.6179

                     79                     80                     81
                      A                      A                      A
 Frequencies --   1502.6737              1507.1498              1512.8916
 Red. masses --      1.0931                 1.0759                 1.0861
 Frc consts  --      1.4543                 1.4399                 1.4647
 IR Inten    --      6.1827                 4.9115                 2.5031

                     82                     83                     84
                      A                      A                      A
 Frequencies --   1516.8623              1522.0908              1523.4483
 Red. masses --      1.0818                 1.0739                 1.0608
 Frc consts  --      1.4665                 1.4659                 1.4505
 IR Inten    --      2.0588                 3.5433                 3.8628

                     85                     86                     87
                      A                      A                      A
 Frequencies --   1524.8951              1527.1709              1531.7681
 Red. masses --      1.0563                 1.0738                 1.0519
 Frc consts  --      1.4472                 1.4755                 1.4542
 IR Inten    --      3.1637                 0.4823                 6.1836

                     88                     89                     90
                      A                      A                      A
 Frequencies --   1532.1656              1534.9709              1538.7634
 Red. masses --      1.0641                 1.0636                 1.0740
 Frc consts  --      1.4718                 1.4764                 1.4982
 IR Inten    --      6.5314                 0.4149                 2.9976

                     91                     92                     93
                      A                      A                      A
 Frequencies --   1540.3534              1544.1722              1548.5511
 Red. masses --      1.0716                 1.0687                 1.0873
 Frc consts  --      1.4980                 1.5015                 1.5362
 IR Inten    --      1.7531                 2.8421                 2.7902

                     94                     95                     96
                      A                      A                      A
 Frequencies --   1558.3738              2967.5659              3017.9113
 Red. masses --      1.0773                 1.0595                 1.0710
 Frc consts  --      1.5414                 5.4973                 5.7474
 IR Inten    --     18.4806                87.3617                36.3965

                     97                     98                     99
                      A                      A                      A
 Frequencies --   3020.4286              3021.3642              3036.0189
 Red. masses --      1.0621                 1.0605                 1.0621
 Frc consts  --      5.7087                 5.7040                 5.7679
 IR Inten    --     13.6249                31.9632                15.7796

                    100                    101                    102
                      A                      A                      A
 Frequencies --   3037.2297              3040.4666              3042.0878
 Red. masses --      1.0631                 1.0524                 1.0528
 Frc consts  --      5.7780                 5.7323                 5.7404
 IR Inten    --     12.4560                27.8613                52.5084

                    103                    104                    105
                      A                      A                      A
 Frequencies --   3043.5715              3043.8659              3045.8638
 Red. masses --      1.0386                 1.0483                 1.0571
 Frc consts  --      5.6686                 5.7226                 5.7781
 IR Inten    --     22.2761                22.1401                15.8788

                    106                    107                    108
                      A                      A                      A
 Frequencies --   3051.7451              3057.0699              3062.6513
 Red. masses --      1.0840                 1.0955                 1.0863
 Frc consts  --      5.9480                 6.0320                 6.0032
 IR Inten    --      3.9817                39.8337                28.7688

                    109                    110                    111
                      A                      A                      A
 Frequencies --   3071.2453              3073.4565              3075.3946
 Red. masses --      1.0973                 1.0970                 1.0930
 Frc consts  --      6.0985                 6.1056                 6.0905
 IR Inten    --     76.8126                35.3508                53.8144

                    112                    113                    114
                      A                      A                      A
 Frequencies --   3079.3674              3083.4588              3101.9472
 Red. masses --      1.0961                 1.0735                 1.1006
 Frc consts  --      6.1241                 6.0136                 6.2396
 IR Inten    --     17.7457                26.6883                15.5959

                    115                    116                    117
                      A                      A                      A
 Frequencies --   3106.0219              3106.7883              3109.2617
 Red. masses --      1.1011                 1.1007                 1.1015
 Frc consts  --      6.2589                 6.2597                 6.2741
 IR Inten    --     45.8404               129.7337                63.1647

                    118                    119                    120
                      A                      A                      A
 Frequencies --   3111.8436              3114.8002              3117.6998
 Red. masses --      1.1019                 1.1020                 1.0917
 Frc consts  --      6.2869                 6.2992                 6.2523
 IR Inten    --     58.5457                30.5661                31.7296

                    121                    122                    123
                      A                      A                      A
 Frequencies --   3123.1058              3129.6162              3491.0059
 Red. masses --      1.1021                 1.0989                 1.0736
 Frc consts  --      6.3333                 6.3414                 7.7092
 IR Inten    --     25.9289                37.3596                 3.2187

 - Thermochemistry -
 -------------------
 Temperature   298.150 Kelvin.  Pressure   1.00000 Atm.
 Atom     1 has atomic number  6 and mass  12.00000

 Molecular mass:   199.23000 amu.
 Principal axes and moments of inertia in atomic units:
                           1         2         3
     Eigenvalues --  1863.138895779.951456414.42665
           X            1.00000   0.00050  -0.00057
           Y           -0.00050   0.99997   0.00718
           Z            0.00057  -0.00718   0.99997
 This molecule is an asymmetric top.
 Rotational symmetry number  1.
 Warning -- assumption of classical behavior for rotation
           may cause significant error
 Rotational temperatures (Kelvin)      0.04649     0.01499     0.01350
 Rotational constants (GHZ):           0.96866     0.31224     0.28136
 Zero-point vibrational energy    1074200.7 (Joules/Mol)
                                  256.74013 (Kcal/Mol)
 Warning -- explicit consideration of  27 degrees of freedom as
           vibrations may cause significant error
 Vibrational temperatures:     38.58    55.82    68.00    83.89   126.85
          (Kelvin)            167.43   183.41   213.76   247.47   264.16
                              315.17   343.88   355.43   396.87   405.14
                              422.70   435.03   468.18   503.35   519.88
                              533.65   569.40   627.08   667.72   704.19
                              742.34   831.98  1018.75  1050.25  1069.95
                             1122.62  1141.83  1149.35  1205.11  1226.37
                             1261.92  1277.21  1304.91  1365.56  1400.30
                             1409.47  1427.87  1447.29  1478.33  1505.83
                             1523.03  1567.97  1589.78  1598.24  1620.47
                             1628.21  1636.23  1670.69  1681.88  1712.39
                             1728.27  1753.13  1795.21  1829.81  1850.07
                             1863.83  1896.78  1918.99  1935.82  1954.54
                             1979.69  1995.26  2004.99  2013.34  2026.30
                             2042.59  2051.15  2056.19  2064.66  2076.80
                             2076.89  2135.05  2157.26  2162.01  2168.45
                             2176.71  2182.43  2189.95  2191.90  2193.98
                             2197.26  2203.87  2204.44  2208.48  2213.94
                             2216.22  2221.72  2228.02  2242.15  4269.67
                             4342.10  4345.72  4347.07  4368.15  4369.90
                             4374.55  4376.89  4379.02  4379.44  4382.32
                             4390.78  4398.44  4406.47  4418.84  4422.02
                             4424.81  4430.52  4436.41  4463.01  4468.87
                             4469.98  4473.53  4477.25  4481.50  4485.67
                             4493.45  4502.82  5022.78

 Zero-point correction=                           0.409141 (Hartree/Particle)
 Thermal correction to Energy=                    0.427137
 Thermal correction to Enthalpy=                  0.428082
 Thermal correction to Gibbs Free Energy=         0.362959
 Sum of electronic and zero-point Energies=           -567.264419
 Sum of electronic and thermal Energies=              -567.246423
 Sum of electronic and thermal Enthalpies=            -567.245479
 Sum of electronic and thermal Free Energies=         -567.310602

                     E (Thermal)             CV                S
                      KCal/Mol        Cal/Mol-Kelvin    Cal/Mol-Kelvin
 Total                  268.033             67.741            137.063
 Electronic               0.000              0.000              0.000
 Translational            0.889              2.981             41.773
 Rotational               0.889              2.981             32.602
 Vibrational            266.255             61.780             62.688
 Vibration     1          0.593              1.984              6.052
 Vibration     2          0.594              1.981              5.320
 Vibration     3          0.595              1.979              4.929
 Vibration     4          0.596              1.974              4.514
 Vibration     5          0.601              1.957              3.700
 Vibration     6          0.608              1.936              3.160
 Vibration     7          0.611              1.926              2.984
 Vibration     8          0.618              1.904              2.690
 Vibration     9          0.626              1.877              2.414
 Vibration    10          0.631              1.862              2.291
 Vibration    11          0.647              1.812              1.967
 Vibration    12          0.657              1.781              1.810
 Vibration    13          0.661              1.768              1.752
 Vibration    14          0.677              1.718              1.559
 Vibration    15          0.681              1.708              1.524
 Vibration    16          0.689              1.685              1.452
 Vibration    17          0.694              1.669              1.404
 Vibration    18          0.710              1.625              1.283
 Vibration    19          0.727              1.576              1.167
 Vibration    20          0.736              1.552              1.116
 Vibration    21          0.743              1.532              1.076
 Vibration    22          0.762              1.479              0.978
 Vibration    23          0.796              1.392              0.840
 Vibration    24          0.822              1.330              0.754
 Vibration    25          0.845              1.273              0.685
 Vibration    26          0.871              1.215              0.619
 Vibration    27          0.935              1.078              0.489

 Optimization completed.
    -- Stationary point found.
 Normal termination of Gaussian 16 at Thu Dec 10 09:37:31 2020.

 ----------------------------------------------------------------------
 # B3LYP/6-311++G(d,p) empiricaldispersion=gd3bj scf=xqc pop=npa geom=c
 heck
 ----------------------------------------------------------------------

 ---------------------------------------
 CID_142495702_JID_4193_Energie_neutraal
 ---------------------------------------
 Structure from the checkpoint file:  "JID_4193.chk"
 Charge =  0 Multiplicity = 1

 SCF Done:  E(RB3LYP) =  -567.835055075     A.U. after   13 cycles
 Normal termination of Gaussian 16 at Thu Dec 10 09:43:35 2020.

 ----------------------------------------------------------------------
 # B3LYP/6-311++G(d,p) empiricaldispersion=gd3bj scf=xqc pop=npa geom=c
 heck
 ----------------------------------------------------------------------

 -------------------------------------
 CID_142495702_JID_4193_Energie_kation
 -------------------------------------
 Structure from the checkpoint file:  "JID_4193.chk"
 Charge =  1 Multiplicity = 2

 SCF Done:  E(UB3LYP) =  -567.540111965     A.U. after   18 cycles
 Normal termination of Gaussian 16 at Thu Dec 10 09:54:27 2020.
 Gaussian 16:  ES64L-G16RevA.03 25-Dec-2016

 ----------------------------------------------------------------------
 # B3LYP/6-311++G(d,p) empiricaldispersion=gd3bj scf=xqc pop=npa geom=c
 heck
 ----------------------------------------------------------------------

 ------------------------------------
 CID_142495702_JID_4193_Energie_anion
 ------------------------------------
 Structure from the checkpoint file:  "JID_4193.chk"
 Charge = -1 Multiplicity = 2

                         Standard orientation:
 ---------------------------------------------------------------------
 Center     Atomic      Atomic             Coordinates (Angstroms)
 Number     Number       Type             X           Y           Z
 ---------------------------------------------------------------------
      1          6           0        4.253337   -1.605989   -0.705391
      2          6           0        3.711613   -1.397329    0.711791
      3          6           0        3.391414    0.068319    1.045650
      4          6           0        2.368672    0.746377    0.119950
      5          6           0        1.017010    0.016839    0.094001
      6          6           0       -0.163226    0.695621   -0.647094
      7          6           0        0.328551    1.454674   -1.898651
      8          6           0       -1.163538   -0.389000   -1.126506
      9          6           0       -1.627417   -1.455132   -0.118868
     10          6           0       -2.507665   -0.985883    1.050778
     11          6           0       -3.813767   -0.286677    0.648504
     12          6           0       -4.732719   -1.128111   -0.242169
     13          7           0       -0.909928    1.582592    0.272654
     14          6           0       -0.189525    2.648620    0.956002
     15          1           0        3.508912   -1.345553   -1.466355
     16          1           0        4.539731   -2.650717   -0.869687
     17          1           0        5.139207   -0.983926   -0.884380
     18          1           0        2.816095   -2.015615    0.854829
     19          1           0        4.448897   -1.764800    1.437512
     20          1           0        3.023888    0.122394    2.080195
     21          1           0        4.324870    0.648067    1.020287
     22          1           0        2.248696    1.784123    0.445918
     23          1           0        2.775883    0.799119   -0.896812
     24          1           0        1.178627   -0.960162   -0.376943
     25          1           0        0.693354   -0.194165    1.121238
     26          1           0        0.918726    0.805764   -2.556330
     27          1           0       -0.528930    1.822008   -2.476175
     28          1           0        0.951484    2.314946   -1.637545
     29          1           0       -2.040017    0.121624   -1.551207
     30          1           0       -0.691846   -0.911381   -1.969719
     31          1           0       -2.170577   -2.221448   -0.687939
     32          1           0       -0.750438   -1.969977    0.292365
     33          1           0       -2.756615   -1.868520    1.658553
     34          1           0       -1.932711   -0.304867    1.683845
     35          1           0       -4.353908   -0.011445    1.564217
     36          1           0       -3.580999    0.659899    0.145493
     37          1           0       -4.961750   -2.092899    0.227822
     38          1           0       -5.682856   -0.615001   -0.430019
     39          1           0       -4.274515   -1.337680   -1.215417
     40          1           0       -1.680846    1.990581   -0.252255
     41          1           0        0.415911    3.306591    0.307735
     42          1           0       -0.919694    3.275581    1.478232
     43          1           0        0.474471    2.225342    1.715985
 ---------------------------------------------------------------------

 SCF Done:  E(UB3LYP) =  -567.820712951     A.U. after   28 cycles

 The electronic state is 2-A.
 Alpha  occ. eigenvalues --  -14.19345 -10.10738 -10.08672 -10.06959 -10.06819
 Alpha  occ. eigenvalues --  -10.06467 -10.06445 -10.06430 -10.06403 -10.06398
 Alpha  occ. eigenvalues --  -10.06397 -10.06250 -10.05817 -10.05647  -0.80842
 Alpha  occ. eigenvalues --   -0.71351  -0.70459  -0.68032  -0.64758  -0.62825
 Alpha  occ. eigenvalues --   -0.58385  -0.58163  -0.56848  -0.53186  -0.52023
 Alpha  occ. eigenvalues --   -0.47298  -0.45677  -0.43952  -0.39088  -0.37622
 Alpha  occ. eigenvalues --   -0.36838  -0.36667  -0.36306  -0.34861  -0.33757
 Alpha  occ. eigenvalues --   -0.32801  -0.31713  -0.30679  -0.30328  -0.29989
 Alpha  occ. eigenvalues --   -0.29674  -0.28948  -0.28639  -0.27854  -0.27010
 Alpha  occ. eigenvalues --   -0.26328  -0.25640  -0.24528  -0.24484  -0.23932
 Alpha  occ. eigenvalues --   -0.22573  -0.22447  -0.21987  -0.21776  -0.20836
 Alpha  occ. eigenvalues --   -0.20388  -0.12259   0.04198
 Alpha virt. eigenvalues --    0.05877   0.06548   0.07010   0.07780   0.07978
 Alpha virt. eigenvalues --    0.08277   0.09035   0.09406   0.09602   0.10346
 Alpha virt. eigenvalues --    0.10483   0.10945   0.11386   0.12121   0.12149

  Beta  occ. eigenvalues --  -14.19331 -10.10737 -10.08645 -10.06945 -10.06806
  Beta  occ. eigenvalues --  -10.06453 -10.06434 -10.06417 -10.06391 -10.06384
  Beta  occ. eigenvalues --  -10.06383 -10.06218 -10.05812 -10.05621  -0.80821
  Beta  occ. eigenvalues --   -0.71327  -0.70437  -0.68007  -0.64729  -0.62795
  Beta  occ. eigenvalues --   -0.58339  -0.58123  -0.56793  -0.53132  -0.51977
  Beta  occ. eigenvalues --   -0.47251  -0.45632  -0.43915  -0.39062  -0.37582
  Beta  occ. eigenvalues --   -0.36813  -0.36648  -0.36270  -0.34833  -0.33728
  Beta  occ. eigenvalues --   -0.32770  -0.31688  -0.30652  -0.30301  -0.29955
  Beta  occ. eigenvalues --   -0.29646  -0.28921  -0.28606  -0.27821  -0.26986
  Beta  occ. eigenvalues --   -0.26298  -0.25615  -0.24498  -0.24457  -0.23906
  Beta  occ. eigenvalues --   -0.22545  -0.22427  -0.21965  -0.21756  -0.20811
  Beta  occ. eigenvalues --   -0.20365  -0.12240
  Beta virt. eigenvalues --    0.06076   0.06616   0.07082   0.07438   0.08123
  Beta virt. eigenvalues --    0.08343   0.08584   0.09285   0.09758   0.09966
  Beta virt. eigenvalues --    0.10549   0.10832   0.11209   0.11580   0.12259

 Mulliken charges and spin densities:
               1          2
     1  C    0.886979  -1.520892
     2  C   -1.076059   0.909328
     3  C    0.985932  -1.340633
     4  C   -0.192588   0.212493
     5  C   -2.051911   0.342893
     6  C    0.676785   0.305323
     7  C    0.989229  -1.548667
     8  C   -0.675333   0.061190
     9  C    0.528912  -0.482283
    10  C   -0.571541   0.297870
    11  C   -0.092567  -0.065216
    12  C    0.259848  -0.905165
    13  N   -0.100517   0.137697
    14  C    0.302808  -0.688949
    15  H   -0.281633   0.434595
    16  H   -0.235280   0.367439
    17  H   -0.110847   0.245722
    18  H   -0.039850   0.160836
    19  H   -0.305996   0.479171
    20  H    0.048599   0.070994
    21  H   -0.275960   0.437983
    22  H    0.242231  -0.079461
    23  H    0.128408   0.034647
    24  H    0.541959  -0.352437
    25  H    0.283657  -0.073683
    26  H    0.075136   0.083559
    27  H   -0.470907   0.610695
    28  H   -0.021323   0.158604
    29  H    0.206152  -0.027725
    30  H   -0.075915   0.209603
    31  H    0.067974   0.107054
    32  H    0.045092   0.086852
    33  H   -0.064517   0.203455
    34  H    0.110547   0.081385
    35  H   -0.087229   0.224806
    36  H   -0.111233   0.209597
    37  H    0.037055   0.087869
    38  H   -0.195858   0.332820
    39  H   -0.084205   0.221427
    40  H    0.118994   0.121524
    41  H   -0.111669   0.257431
    42  H   -0.301981   0.432970
    43  H   -0.001378   0.157280
 Sum of Mulliken charges =  -1.00000   1.00000

 Dipole moment (field-independent basis, Debye):
    X=             -1.0453    Y=             -0.8548    Z=              1.2664  Tot=              1.8512
 Quadrupole moment (field-independent basis, Debye-Ang):
   XX=           -191.2189   YY=           -142.3339   ZZ=           -133.4144
   XY=             10.6568   XZ=             -0.2707   YZ=             -0.1260

 Summary of Natural Population Analysis:

                                       Natural Population
                Natural  -----------------------------------------------
    Atom  No    Charge         Core      Valence    Rydberg      Total
 -----------------------------------------------------------------------
      C    1   -0.28808      0.99967     2.28317    0.00525     3.28808
      C    2   -0.19245      0.99964     2.18492    0.00790     3.19245
      C    3   -0.18482      0.99963     2.17668    0.00851     3.18482
      C    4   -0.19392      0.99962     2.18694    0.00736     3.19392
      C    5   -0.19906      0.99957     2.19091    0.00858     3.19906
      C    6    0.06586      0.99956     1.91958    0.01501     2.93414
      C    7   -0.29692      0.99962     2.28989    0.00741     3.29692
      C    8   -0.18861      0.99958     2.17776    0.01128     3.18861
      C    9   -0.18995      0.99962     2.18255    0.00778     3.18995
      C   10   -0.18972      0.99962     2.18273    0.00736     3.18972
      C   11   -0.19174      0.99964     2.18356    0.00855     3.19174
      C   12   -0.28640      0.99967     2.28235    0.00438     3.28640
      N   13   -0.34725      0.99972     2.83438    0.01315     3.84725
      C   14   -0.17921      0.99965     2.17061    0.00895     3.17921
      H   15    0.09706      0.00000     0.40178    0.00115     0.40294
      H   16    0.09889      0.00000     0.40011    0.00101     0.40111
      H   17    0.09566      0.00000     0.40320    0.00113     0.40434
      H   18    0.09348      0.00000     0.40533    0.00119     0.40652
      H   19    0.09502      0.00000     0.40389    0.00109     0.40498
      H   20    0.09379      0.00000     0.40511    0.00110     0.40621
      H   21    0.09476      0.00000     0.40421    0.00104     0.40524
      H   22    0.09861      0.00000     0.39991    0.00148     0.40139
      H   23    0.09609      0.00000     0.40242    0.00149     0.40391
      H   24    0.10020      0.00000     0.39825    0.00154     0.39980
      H   25    0.10196      0.00000     0.39661    0.00143     0.39804
      H   26    0.10068      0.00000     0.39824    0.00108     0.39932
      H   27    0.10017      0.00000     0.39856    0.00127     0.39983
      H   28    0.10135      0.00000     0.39764    0.00100     0.39865
      H   29    0.09619      0.00000     0.40236    0.00145     0.40381
      H   30    0.09912      0.00000     0.39978    0.00110     0.40088
      H   31    0.09428      0.00000     0.40455    0.00117     0.40572
      H   32    0.09732      0.00000     0.40142    0.00126     0.40268
      H   33    0.08854      0.00000     0.41042    0.00104     0.41146
      H   34    0.10770      0.00000     0.39084    0.00146     0.39230
      H   35    0.09328      0.00000     0.40566    0.00106     0.40672
      H   36    0.09525      0.00000     0.40309    0.00167     0.40475
      H   37    0.09254      0.00000     0.40634    0.00112     0.40746
      H   38    0.09757      0.00000     0.40134    0.00108     0.40243
      H   39    0.09591      0.00000     0.40300    0.00109     0.40409
      H   40    0.17171      0.00000     0.32510    0.00319     0.32829
      H   41    0.07903      0.00000     0.41939    0.00159     0.42097
      H   42    0.09565      0.00000     0.40352    0.00083     0.40435
      H   43    0.09049      0.00000     0.40833    0.00118     0.40951
 =======================================================================
   * Total *    0.00000     13.99481    42.84643    0.15876    57.00000

 Normal termination of Gaussian 16 at Thu Dec 10 10:12:05 2020.
