 Gaussian 16, Revision A.03,

 -----------------------------------------------------------
 # opt freq B3LYP/6-31G(d) empiricaldispersion=gd3bj scf=xqc
 -----------------------------------------------------------

 ------------------------------
 CID_61794143_JID_1765_neutraal
 ------------------------------
 Symbolic Z-matrix:
 Charge =  0 Multiplicity = 1

 SCF Done:  E(RB3LYP) =  -532.740938831     A.U. after   15 cycles
 SCF Done:  E(RB3LYP) =  -532.742615123     A.U. after   12 cycles
 SCF Done:  E(RB3LYP) =  -532.742418585     A.U. after   12 cycles
 SCF Done:  E(RB3LYP) =  -532.742952100     A.U. after   12 cycles
 SCF Done:  E(RB3LYP) =  -532.743156765     A.U. after   11 cycles
 SCF Done:  E(RB3LYP) =  -532.743191571     A.U. after   11 cycles
 SCF Done:  E(RB3LYP) =  -532.743244900     A.U. after   12 cycles
 SCF Done:  E(RB3LYP) =  -532.743258416     A.U. after   12 cycles
 SCF Done:  E(RB3LYP) =  -532.743300369     A.U. after   12 cycles
 SCF Done:  E(RB3LYP) =  -532.743320780     A.U. after   11 cycles
 SCF Done:  E(RB3LYP) =  -532.743570821     A.U. after    9 cycles
 SCF Done:  E(RB3LYP) =  -532.743572774     A.U. after    9 cycles
 SCF Done:  E(RB3LYP) =  -532.743574935     A.U. after    9 cycles
 SCF Done:  E(RB3LYP) =  -532.743575396     A.U. after    8 cycles
 SCF Done:  E(RB3LYP) =  -532.743575498     A.U. after    7 cycles
 SCF Done:  E(RB3LYP) =  -532.743575527     A.U. after    6 cycles
 Optimization completed.
    -- Stationary point found.
 Normal termination of Gaussian 16 at Tue Dec  8 21:06:00 2020.

 --------------------------------------------------------------------
 #N Geom=AllCheck Guess=TCheck SCRF=Check GenChk RB3LYP/6-31G(d) Freq
 --------------------------------------------------------------------

 Structure from the checkpoint file:  "JID_1765.chk"
 ------------------------------
 CID_61794143_JID_1765_neutraal
 ------------------------------
 Charge =  0 Multiplicity = 1

 SCF Done:  E(RB3LYP) =  -532.743575527     A.U. after    1 cycles

  Exact polarizability: 111.982  -3.738  67.847  -1.795   7.086  82.217
 Approx polarizability: 148.550  -3.634 102.711   0.307  21.837 137.221

                      1                      2                      3
                      A                      A                      A
 Frequencies --     30.8059                45.4848                57.2513
 Red. masses --      3.8468                 9.4906                 1.1017
 Frc consts  --      0.0022                 0.0116                 0.0021
 IR Inten    --      2.4886                 1.1542                 0.4281

                      4                      5                      6
                      A                      A                      A
 Frequencies --    102.3456               162.0984               186.3655
 Red. masses --      4.7830                 3.3441                 3.1776
 Frc consts  --      0.0295                 0.0518                 0.0650
 IR Inten    --      0.0664                 1.1563                 2.1070

                      7                      8                      9
                      A                      A                      A
 Frequencies --    225.4246               248.4024               288.4791
 Red. masses --      2.3052                 1.2089                 4.3138
 Frc consts  --      0.0690                 0.0439                 0.2115
 IR Inten    --      0.6533                 0.1088                 0.0223

                     10                     11                     12
                      A                      A                      A
 Frequencies --    369.1266               409.5348               455.4456
 Red. masses --      4.9734                 3.5949                 4.4821
 Frc consts  --      0.3993                 0.3552                 0.5478
 IR Inten    --      1.9273                 4.6591                 7.6656

                     13                     14                     15
                      A                      A                      A
 Frequencies --    594.7189               615.6778               640.2440
 Red. masses --      1.8938                 2.4504                 5.0633
 Frc consts  --      0.3947                 0.5473                 1.2229
 IR Inten    --     37.3694                54.4146                 6.1961

                     16                     17                     18
                      A                      A                      A
 Frequencies --    677.5870               687.6881               738.3198
 Red. masses --      2.3101                 2.9877                 3.9559
 Frc consts  --      0.6249                 0.8325                 1.2705
 IR Inten    --     28.3655                32.9338                35.7210

                     19                     20                     21
                      A                      A                      A
 Frequencies --    785.2333               811.9392               837.3916
 Red. masses --      1.4749                 3.7871                 2.8318
 Frc consts  --      0.5358                 1.4710                 1.1700
 IR Inten    --      8.8926                 9.8580                 2.2582

                     22                     23                     24
                      A                      A                      A
 Frequencies --    874.4296               989.2771              1010.5707
 Red. masses --      1.4149                 2.3089                 3.4753
 Frc consts  --      0.6374                 1.3314                 2.0911
 IR Inten    --     11.3103                21.3931                26.8695

                     25                     26                     27
                      A                      A                      A
 Frequencies --   1037.0054              1074.3017              1087.3553
 Red. masses --      2.7771                 1.8132                 1.5628
 Frc consts  --      1.7596                 1.2329                 1.0887
 IR Inten    --     30.6026                48.4905                13.1894

                     28                     29                     30
                      A                      A                      A
 Frequencies --   1106.9792              1159.1330              1183.8189
 Red. masses --      2.2266                 1.3319                 1.6856
 Frc consts  --      1.6075                 1.0543                 1.3918
 IR Inten    --      5.5268                10.1286                49.1237

                     31                     32                     33
                      A                      A                      A
 Frequencies --   1216.6085              1235.2872              1318.0374
 Red. masses --      1.9811                 1.5255                 2.0176
 Frc consts  --      1.7276                 1.3715                 2.0651
 IR Inten    --    116.2727                 4.5904                13.2797

                     34                     35                     36
                      A                      A                      A
 Frequencies --   1342.4103              1357.3735              1370.5017
 Red. masses --      1.4585                 2.3761                 2.4152
 Frc consts  --      1.5486                 2.5794                 2.6727
 IR Inten    --      3.1541                 2.9438                30.9002

                     37                     38                     39
                      A                      A                      A
 Frequencies --   1407.5899              1439.4667              1444.4630
 Red. masses --      5.6459                 1.2705                 2.9650
 Frc consts  --      6.5907                 1.5510                 3.6449
 IR Inten    --      8.3583                 2.6527                26.7739

                     40                     41                     42
                      A                      A                      A
 Frequencies --   1470.6910              1495.0228              1509.3621
 Red. masses --      1.6361                 2.0057                 1.0637
 Frc consts  --      2.0850                 2.6413                 1.4278
 IR Inten    --     19.2732                15.2490                 8.7597

                     43                     44                     45
                      A                      A                      A
 Frequencies --   1523.9699              1529.5392              1546.6555
 Red. masses --      1.0488                 1.0562                 1.1990
 Frc consts  --      1.4351                 1.4558                 1.6898
 IR Inten    --      5.6788                 9.2929                 6.9565

                     46                     47                     48
                      A                      A                      A
 Frequencies --   1615.8645              1850.3502              3061.6793
 Red. masses --      5.0453                 9.6303                 1.0360
 Frc consts  --      7.7615                19.4266                 5.7217
 IR Inten    --     11.7433               295.2314                29.0065

                     49                     50                     51
                      A                      A                      A
 Frequencies --   3066.0960              3094.7386              3130.6620
 Red. masses --      1.0372                 1.0855                 1.1025
 Frc consts  --      5.7447                 6.1254                 6.3666
 IR Inten    --     51.2056                 7.6193                28.4569

                     52                     53                     54
                      A                      A                      A
 Frequencies --   3138.5440              3152.0966              3170.7390
 Red. masses --      1.0996                 1.1021                 1.1056
 Frc consts  --      6.3817                 6.4518                 6.5490
 IR Inten    --     15.7592                17.0348                 7.6420

                     55                     56                     57
                      A                      A                      A
 Frequencies --   3268.0280              3270.2037              3687.5881
 Red. masses --      1.0955                 1.0982                 1.0641
 Frc consts  --      6.8931                 6.9195                 8.5252
 IR Inten    --      3.0136                 0.1466                50.6516

 - Thermochemistry -
 -------------------
 Temperature   298.150 Kelvin.  Pressure   1.00000 Atm.
 Atom     1 has atomic number  6 and mass  12.00000

 Molecular mass:   154.07423 amu.
 Principal axes and moments of inertia in atomic units:
                           1         2         3
     Eigenvalues --   783.427362907.867682952.84875
           X            0.99961  -0.02778  -0.00261
           Y            0.02663   0.97761  -0.20872
           Z            0.00835   0.20857   0.97797
 This molecule is an asymmetric top.
 Rotational symmetry number  1.
 Warning -- assumption of classical behavior for rotation
           may cause significant error
 Rotational temperatures (Kelvin)      0.11056     0.02979     0.02933
 Rotational constants (GHZ):           2.30365     0.62064     0.61119
 Zero-point vibrational energy     449831.8 (Joules/Mol)
                                  107.51238 (Kcal/Mol)
 Warning -- explicit consideration of  14 degrees of freedom as
           vibrations may cause significant error
 Vibrational temperatures:     44.32    65.44    82.37   147.25   233.22
          (Kelvin)            268.14   324.34   357.40   415.06   531.09
                              589.23   655.28   855.67   885.82   921.17
                              974.90   989.43  1062.28  1129.78  1168.20
                             1204.82  1258.11  1423.35  1453.99  1492.02
                             1545.68  1564.46  1592.70  1667.73  1703.25
                             1750.43  1777.30  1896.36  1931.43  1952.96
                             1971.85  2025.21  2071.07  2078.26  2116.00
                             2151.00  2171.64  2192.65  2200.67  2225.29
                             2324.87  2662.24  4405.07  4411.43  4452.64
                             4504.32  4515.66  4535.16  4561.99  4701.96
                             4705.09  5305.62

 Zero-point correction=                           0.171332 (Hartree/Particle)
 Thermal correction to Energy=                    0.182402
 Thermal correction to Enthalpy=                  0.183347
 Thermal correction to Gibbs Free Energy=         0.132727
 Sum of electronic and zero-point Energies=           -532.572244
 Sum of electronic and thermal Energies=              -532.561173
 Sum of electronic and thermal Enthalpies=            -532.560229
 Sum of electronic and thermal Free Energies=         -532.610848

                     E (Thermal)             CV                S
                      KCal/Mol        Cal/Mol-Kelvin    Cal/Mol-Kelvin
 Total                  114.459             39.181            106.537
 Electronic               0.000              0.000              0.000
 Translational            0.889              2.981             41.006
 Rotational               0.889              2.981             30.287
 Vibrational            112.682             33.220             35.243
 Vibration     1          0.594              1.984              5.777
 Vibration     2          0.595              1.979              5.005
 Vibration     3          0.596              1.975              4.550
 Vibration     4          0.604              1.947              3.409
 Vibration     5          0.622              1.889              2.525
 Vibration     6          0.632              1.859              2.264
 Vibration     7          0.650              1.802              1.915
 Vibration     8          0.662              1.765              1.742
 Vibration     9          0.685              1.695              1.483
 Vibration    10          0.741              1.536              1.083
 Vibration    11          0.774              1.450              0.928
 Vibration    12          0.814              1.349              0.779
 Vibration    13          0.952              1.043              0.459
 Vibration    14          0.975              0.999              0.423

 Optimization completed.
    -- Stationary point found.
 Normal termination of Gaussian 16 at Tue Dec  8 21:09:48 2020.

 ----------------------------------------------------------------------
 # B3LYP/6-311++G(d,p) empiricaldispersion=gd3bj scf=xqc pop=npa geom=c
 heck
 ----------------------------------------------------------------------

 --------------------------------------
 CID_61794143_JID_1765_Energie_neutraal
 --------------------------------------
 Structure from the checkpoint file:  "JID_1765.chk"
 Charge =  0 Multiplicity = 1

 SCF Done:  E(RB3LYP) =  -532.903389953     A.U. after   14 cycles
 Normal termination of Gaussian 16 at Tue Dec  8 21:11:16 2020.

 ----------------------------------------------------------------------
 # B3LYP/6-311++G(d,p) empiricaldispersion=gd3bj scf=xqc pop=npa geom=c
 heck
 ----------------------------------------------------------------------

 ------------------------------------
 CID_61794143_JID_1765_Energie_kation
 ------------------------------------
 Structure from the checkpoint file:  "JID_1765.chk"
 Charge =  1 Multiplicity = 2

 SCF Done:  E(UB3LYP) =  -532.585336569     A.U. after   24 cycles
 Normal termination of Gaussian 16 at Tue Dec  8 21:14:28 2020.
 Gaussian 16:  ES64L-G16RevA.03 25-Dec-2016

 ----------------------------------------------------------------------
 # B3LYP/6-311++G(d,p) empiricaldispersion=gd3bj scf=xqc pop=npa geom=c
 heck
 ----------------------------------------------------------------------

 -----------------------------------
 CID_61794143_JID_1765_Energie_anion
 -----------------------------------
 Structure from the checkpoint file:  "JID_1765.chk"
 Charge = -1 Multiplicity = 2

                         Standard orientation:
 ---------------------------------------------------------------------
 Center     Atomic      Atomic             Coordinates (Angstroms)
 Number     Number       Type             X           Y           Z
 ---------------------------------------------------------------------
      1          6           0       -1.730496    1.772221   -0.756265
      2          6           0       -1.208312    0.323439   -0.770945
      3          6           0        0.194674    0.216695   -0.229126
      4          6           0        1.315507   -0.251240   -0.894103
      5          7           0        2.358010   -0.170481   -0.025912
      6          7           0        1.987974    0.330357    1.174686
      7          6           0        0.680615    0.561174    1.056873
      8          6           0        3.752937   -0.469471   -0.276083
      9          6           0       -2.129729   -0.614875   -0.004072
     10          8           0       -2.577174   -1.659186   -0.420241
     11          8           0       -2.399272   -0.155887    1.246162
     12          1           0       -1.738808    2.172118    0.260766
     13          1           0       -2.748606    1.828528   -1.156835
     14          1           0       -1.079197    2.402462   -1.369159
     15          1           0       -1.215168   -0.055136   -1.797091
     16          1           0        1.438965   -0.631437   -1.898460
     17          1           0        0.122789    0.946814    1.899108
     18          1           0        4.319834    0.445184   -0.480683
     19          1           0        4.171692   -0.958498    0.605425
     20          1           0        3.825879   -1.140225   -1.135004
     21          1           0       -2.958881   -0.836002    1.665478
 ---------------------------------------------------------------------

 SCF Done:  E(UB3LYP) =  -532.890166942     A.U. after   31 cycles

 The electronic state is 2-A.
 Alpha  occ. eigenvalues --  -19.07251 -19.01974 -14.29004 -14.22761 -10.20956
 Alpha  occ. eigenvalues --  -10.10846 -10.10459 -10.10324 -10.08715 -10.07696
 Alpha  occ. eigenvalues --  -10.07384  -1.01339  -0.95032  -0.92456  -0.74574
 Alpha  occ. eigenvalues --   -0.72267  -0.66927  -0.59922  -0.57226  -0.52332
 Alpha  occ. eigenvalues --   -0.48336  -0.47123  -0.42795  -0.39404  -0.38438
 Alpha  occ. eigenvalues --   -0.37552  -0.36663  -0.34644  -0.34032  -0.32227
 Alpha  occ. eigenvalues --   -0.31219  -0.30398  -0.29409  -0.28587  -0.27211
 Alpha  occ. eigenvalues --   -0.26501  -0.23057  -0.19495  -0.18990  -0.15609
 Alpha  occ. eigenvalues --   -0.14167   0.04391
 Alpha virt. eigenvalues --    0.05980   0.07425   0.08337   0.08486   0.09378
 Alpha virt. eigenvalues --    0.09804   0.10398   0.11256   0.11527   0.12654
 Alpha virt. eigenvalues --    0.12947   0.13938   0.14284   0.15582   0.15855

  Beta  occ. eigenvalues --  -19.07204 -19.01961 -14.29003 -14.22750 -10.20955
  Beta  occ. eigenvalues --  -10.10789 -10.10433 -10.10309 -10.08705 -10.07698
  Beta  occ. eigenvalues --  -10.07359  -1.01278  -0.95021  -0.92405  -0.74552
  Beta  occ. eigenvalues --   -0.72240  -0.66894  -0.59858  -0.57159  -0.52268
  Beta  occ. eigenvalues --   -0.48288  -0.47063  -0.42734  -0.39374  -0.38400
  Beta  occ. eigenvalues --   -0.37518  -0.36629  -0.34601  -0.33994  -0.32189
  Beta  occ. eigenvalues --   -0.31167  -0.30358  -0.29373  -0.28547  -0.27182
  Beta  occ. eigenvalues --   -0.26472  -0.23019  -0.19468  -0.18949  -0.15584
  Beta  occ. eigenvalues --   -0.14148
  Beta virt. eigenvalues --    0.06816   0.07530   0.08300   0.08684   0.09189
  Beta virt. eigenvalues --    0.09661   0.10057   0.11065   0.11555   0.11974
  Beta virt. eigenvalues --    0.12962   0.13469   0.14054   0.14346   0.15569

 Mulliken charges and spin densities:
               1          2
     1  C    0.242617  -0.948048
     2  C   -0.899670   0.811357
     3  C    0.379366  -0.362997
     4  C    0.415414  -0.341345
     5  N    0.042190   0.098902
     6  N   -0.479285   0.298542
     7  C    0.428978  -0.589740
     8  C    1.459100  -1.779625
     9  C    0.447734  -0.685018
    10  O   -0.296453   0.030503
    11  O   -0.242366   0.089405
    12  H    0.079695   0.085009
    13  H   -0.151821   0.309798
    14  H   -0.129907   0.275972
    15  H   -0.028954   0.286640
    16  H   -0.734362   0.926735
    17  H    0.102031   0.058600
    18  H   -0.457826   0.637629
    19  H   -0.191764   0.356017
    20  H   -0.731906   0.890004
    21  H   -0.252810   0.551661
 Sum of Mulliken charges =  -1.00000   1.00000

 Dipole moment (field-independent basis, Debye):
    X=             -3.2177    Y=              2.2953    Z=              1.9338  Tot=              4.4002
 Quadrupole moment (field-independent basis, Debye-Ang):
   XX=           -140.9323   YY=            -97.1950   ZZ=           -103.3736
   XY=             -0.2284   XZ=             11.3426   YZ=             -2.8195

 Summary of Natural Population Analysis:

                                       Natural Population
                Natural  -----------------------------------------------
    Atom  No    Charge         Core      Valence    Rydberg      Total
 -----------------------------------------------------------------------
      C    1   -0.27674      0.99965     2.27221    0.00488     3.27674
      C    2   -0.15821      0.99952     2.14641    0.01227     3.15821
      C    3   -0.07692      0.99950     2.06455    0.01286     3.07692
      C    4    0.00302      0.99948     1.98570    0.01180     2.99698
      N    5   -0.10482      0.99967     2.59175    0.01339     3.60482
      N    6   -0.15259      0.99973     2.64085    0.01200     3.65259
      C    7   -0.00742      0.99956     1.99482    0.01304     3.00742
      C    8   -0.17094      0.99963     2.16281    0.00850     3.17094
      C    9    0.41659      0.99969     1.55756    0.02616     2.58341
      O   10   -0.30451      0.99987     3.29821    0.00644     4.30451
      O   11   -0.34932      0.99988     3.34184    0.00761     4.34932
      H   12    0.10367      0.00000     0.39488    0.00144     0.39633
      H   13    0.09904      0.00000     0.39975    0.00121     0.40096
      H   14    0.10294      0.00000     0.39584    0.00122     0.39706
      H   15    0.11345      0.00000     0.38451    0.00204     0.38655
      H   16    0.10923      0.00000     0.38850    0.00227     0.39077
      H   17    0.10176      0.00000     0.39701    0.00123     0.39824
      H   18    0.09976      0.00000     0.39829    0.00195     0.40024
      H   19    0.10390      0.00000     0.39450    0.00160     0.39610
      H   20    0.10496      0.00000     0.39146    0.00357     0.39504
      H   21    0.24315      0.00000     0.24491    0.01193     0.25685
 =======================================================================
   * Total *    0.00000     10.99619    29.84638    0.15743    41.00000

 Normal termination of Gaussian 16 at Tue Dec  8 21:20:10 2020.
