 Gaussian 16, Revision A.03,

 -----------------------------------------------------------
 # opt freq B3LYP/6-31G(d) empiricaldispersion=gd3bj scf=xqc
 -----------------------------------------------------------

 ------------------------------
 CID_52044499_JID_8601_neutraal
 ------------------------------
 Symbolic Z-matrix:
 Charge =  0 Multiplicity = 1

 SCF Done:  E(RB3LYP) =  -855.047932312     A.U. after   15 cycles
 SCF Done:  E(RB3LYP) =  -855.051898324     A.U. after   12 cycles
 SCF Done:  E(RB3LYP) =  -855.052483023     A.U. after   11 cycles
 SCF Done:  E(RB3LYP) =  -855.052593784     A.U. after   11 cycles
 SCF Done:  E(RB3LYP) =  -855.052641195     A.U. after   11 cycles
 SCF Done:  E(RB3LYP) =  -855.052698100     A.U. after   10 cycles
 SCF Done:  E(RB3LYP) =  -855.052729629     A.U. after   11 cycles
 SCF Done:  E(RB3LYP) =  -855.052754279     A.U. after   11 cycles
 SCF Done:  E(RB3LYP) =  -855.052774662     A.U. after   11 cycles
 SCF Done:  E(RB3LYP) =  -855.052836018     A.U. after   11 cycles
 SCF Done:  E(RB3LYP) =  -855.053125346     A.U. after    8 cycles
 SCF Done:  E(RB3LYP) =  -855.053125586     A.U. after    8 cycles
 SCF Done:  E(RB3LYP) =  -855.053125731     A.U. after    7 cycles
 SCF Done:  E(RB3LYP) =  -855.053125811     A.U. after    7 cycles
 SCF Done:  E(RB3LYP) =  -855.053125841     A.U. after    7 cycles
 Optimization completed.
    -- Stationary point found.
 Normal termination of Gaussian 16 at Fri Dec 11 21:20:46 2020.

 --------------------------------------------------------------------
 #N Geom=AllCheck Guess=TCheck SCRF=Check GenChk RB3LYP/6-31G(d) Freq
 --------------------------------------------------------------------

 Structure from the checkpoint file:  "JID_8601.chk"
 ------------------------------
 CID_52044499_JID_8601_neutraal
 ------------------------------
 Charge =  0 Multiplicity = 1

 SCF Done:  E(RB3LYP) =  -855.053125841     A.U. after    1 cycles

  Exact polarizability: 256.693   0.777 147.595  -0.831  -0.407  76.823
 Approx polarizability: 317.242   3.879 269.546  -0.798   4.190 119.285

                      1                      2                      3
                      A                      A                      A
 Frequencies --     26.9787                27.9156                55.9380
 Red. masses --      3.8238                 6.1205                 4.4826
 Frc consts  --      0.0016                 0.0028                 0.0083
 IR Inten    --      1.5608                 1.6568                 1.4886

                      4                      5                      6
                      A                      A                      A
 Frequencies --     64.2425                81.0282               100.0854
 Red. masses --      3.0955                 3.3563                 5.2278
 Frc consts  --      0.0075                 0.0130                 0.0309
 IR Inten    --      0.2818                 0.2154                 6.5834

                      7                      8                      9
                      A                      A                      A
 Frequencies --    116.0741               128.0073               200.2408
 Red. masses --      2.9267                 4.7686                 5.5153
 Frc consts  --      0.0232                 0.0460                 0.1303
 IR Inten    --      2.8523                 1.8771                 2.6169

                     10                     11                     12
                      A                      A                      A
 Frequencies --    209.7368               216.2555               261.1145
 Red. masses --      2.5014                 2.3643                 2.9298
 Frc consts  --      0.0648                 0.0651                 0.1177
 IR Inten    --      3.9930                 0.3407                 1.7821

                     13                     14                     15
                      A                      A                      A
 Frequencies --    265.5797               279.5705               282.8640
 Red. masses --      1.8800                 1.8394                 2.5936
 Frc consts  --      0.0781                 0.0847                 0.1223
 IR Inten    --      2.7088                 4.0013                 6.6504

                     16                     17                     18
                      A                      A                      A
 Frequencies --    321.9350               376.7383               402.1097
 Red. masses --      6.0035                 3.7467                 5.6668
 Frc consts  --      0.3666                 0.3133                 0.5399
 IR Inten    --      5.9646                10.6453                 0.6293

                     19                     20                     21
                      A                      A                      A
 Frequencies --    448.0274               467.8332               499.8492
 Red. masses --      6.3480                 3.3328                 6.5847
 Frc consts  --      0.7508                 0.4298                 0.9693
 IR Inten    --      0.1994                 1.6389                 1.6090

                     22                     23                     24
                      A                      A                      A
 Frequencies --    538.9904               582.3291               616.4569
 Red. masses --      5.9547                 4.6161                 4.9809
 Frc consts  --      1.0192                 0.9223                 1.1152
 IR Inten    --      5.7441                 7.8123                 0.6352

                     25                     26                     27
                      A                      A                      A
 Frequencies --    650.3007               692.5946               698.7129
 Red. masses --      4.6454                 3.1920                 3.8193
 Frc consts  --      1.1575                 0.9021                 1.0986
 IR Inten    --      1.8689                 3.9897                 4.0195

                     28                     29                     30
                      A                      A                      A
 Frequencies --    707.1227               767.8722               781.5167
 Red. masses --     10.8653                 3.9701                 1.4563
 Frc consts  --      3.2010                 1.3792                 0.5240
 IR Inten    --      2.6038                20.2111                41.8437

                     31                     32                     33
                      A                      A                      A
 Frequencies --    819.7986               837.3069               848.1640
 Red. masses --      1.1038                 1.6935                 8.1085
 Frc consts  --      0.4371                 0.6995                 3.4368
 IR Inten    --      0.0179                 9.2316                 2.9509

                     34                     35                     36
                      A                      A                      A
 Frequencies --    868.9241               871.6523               894.9948
 Red. masses --      2.5597                 1.9950                 1.5505
 Frc consts  --      1.1387                 0.8930                 0.7318
 IR Inten    --     22.2735                21.9831                21.8841

                     37                     38                     39
                      A                      A                      A
 Frequencies --    898.1322               962.3150               999.9293
 Red. masses --      2.3278                 1.2613                 5.4071
 Frc consts  --      1.1063                 0.6882                 3.1853
 IR Inten    --      2.4998                 0.3943                35.8640

                     40                     41                     42
                      A                      A                      A
 Frequencies --   1016.2143              1034.0326              1043.7981
 Red. masses --      5.3621                 3.6457                 4.7614
 Frc consts  --      3.2626                 2.2967                 3.0565
 IR Inten    --      2.7781                 4.7340                60.6479

                     43                     44                     45
                      A                      A                      A
 Frequencies --   1067.3772              1089.7905              1129.7546
 Red. masses --      3.5409                 3.0446                 1.6610
 Frc consts  --      2.3768                 2.1304                 1.2491
 IR Inten    --    156.1915                71.3220                 1.9626

                     46                     47                     48
                      A                      A                      A
 Frequencies --   1148.7941              1178.9165              1185.8709
 Red. masses --      2.1493                 2.3325                 1.2704
 Frc consts  --      1.6712                 1.9100                 1.0526
 IR Inten    --     12.7271                41.8557                 0.7995

                     49                     50                     51
                      A                      A                      A
 Frequencies --   1193.1990              1193.3323              1211.4950
 Red. masses --      2.0080                 1.5376                 1.2363
 Frc consts  --      1.6844                 1.2901                 1.0691
 IR Inten    --     27.7944                 4.7922                 2.0591

                     52                     53                     54
                      A                      A                      A
 Frequencies --   1222.6175              1277.6343              1307.5099
 Red. masses --      1.4646                 4.5227                 1.1035
 Frc consts  --      1.2899                 4.3497                 1.1115
 IR Inten    --     26.0934               770.9452                 0.5702

                     55                     56                     57
                      A                      A                      A
 Frequencies --   1316.5038              1320.9107              1336.3326
 Red. masses --      3.8809                 8.0269                 1.8801
 Frc consts  --      3.9630                 8.2517                 1.9782
 IR Inten    --    124.2338                50.4884                92.6959

                     58                     59                     60
                      A                      A                      A
 Frequencies --   1381.4173              1395.8361              1420.9058
 Red. masses --      4.9430                 2.9289                 1.8472
 Frc consts  --      5.5576                 3.3622                 2.1974
 IR Inten    --     15.7964                82.6150                29.7194

                     61                     62                     63
                      A                      A                      A
 Frequencies --   1451.6491              1466.1256              1497.8044
 Red. masses --      1.4742                 3.5015                 1.2443
 Frc consts  --      1.8304                 4.4345                 1.6447
 IR Inten    --      6.9130                 0.8501                30.8966

                     64                     65                     66
                      A                      A                      A
 Frequencies --   1515.8286              1522.0947              1526.9358
 Red. masses --      1.0396                 1.0475                 1.0515
 Frc consts  --      1.4074                 1.4299                 1.4444
 IR Inten    --      5.1525                 6.1825                 3.6089

                     67                     68                     69
                      A                      A                      A
 Frequencies --   1532.1124              1543.5042              1545.1609
 Red. masses --      1.2577                 2.5310                 1.1475
 Frc consts  --      1.7394                 3.5526                 1.6142
 IR Inten    --     48.0201                12.0168                10.9037

                     70                     71                     72
                      A                      A                      A
 Frequencies --   1548.6855              1591.1484              1648.5857
 Red. masses --      2.4969                 6.4377                 6.2416
 Frc consts  --      3.5284                 9.6029                 9.9946
 IR Inten    --     80.7877               205.6056                40.8646

                     73                     74                     75
                      A                      A                      A
 Frequencies --   1673.7436              1795.1627              3030.4820
 Red. masses --      6.2642                12.4485                 1.0347
 Frc consts  --     10.3394                23.6361                 5.5990
 IR Inten    --    165.3347               223.9091                55.3902

                     76                     77                     78
                      A                      A                      A
 Frequencies --   3063.7385              3073.4233              3091.3230
 Red. masses --      1.0354                 1.0580                 1.1069
 Frc consts  --      5.7262                 5.8882                 6.2324
 IR Inten    --     18.4650                19.2429                40.0040

                     79                     80                     81
                      A                      A                      A
 Frequencies --   3112.2895              3134.6135              3145.5005
 Red. masses --      1.1083                 1.1018                 1.1051
 Frc consts  --      6.3251                 6.3784                 6.4419
 IR Inten    --      9.2583                27.3737                34.9509

                     82                     83                     84
                      A                      A                      A
 Frequencies --   3166.6947              3201.5932              3225.7884
 Red. masses --      1.1000                 1.0881                 1.0929
 Frc consts  --      6.4990                 6.5713                 6.7007
 IR Inten    --     22.4553                 9.4822                 6.7634

                     85                     86                     87
                      A                      A                      A
 Frequencies --   3238.5879              3255.9447              3326.7938
 Red. masses --      1.0923                 1.0918                 1.0995
 Frc consts  --      6.7502                 6.8196                 7.1697
 IR Inten    --      8.0140                 1.5948                 4.0888

 - Thermochemistry -
 -------------------
 Temperature   298.150 Kelvin.  Pressure   1.00000 Atm.
 Atom     1 has atomic number  6 and mass  12.00000

 Molecular mass:   247.09569 amu.
 Principal axes and moments of inertia in atomic units:
                           1         2         3
     Eigenvalues --  1190.84487********************
           X            0.99999  -0.00534  -0.00103
           Y            0.00533   0.99994  -0.00942
           Z            0.00108   0.00942   0.99996
 This molecule is an asymmetric top.
 Rotational symmetry number  1.
 Warning -- assumption of classical behavior for rotation
           may cause significant error
 Rotational temperatures (Kelvin)      0.07273     0.00695     0.00643
 Rotational constants (GHZ):           1.51551     0.14489     0.13390
 Zero-point vibrational energy     641597.9 (Joules/Mol)
                                  153.34558 (Kcal/Mol)
 Warning -- explicit consideration of  24 degrees of freedom as
           vibrations may cause significant error
 Vibrational temperatures:     38.82    40.16    80.48    92.43   116.58
          (Kelvin)            144.00   167.00   184.17   288.10   301.76
                              311.14   375.69   382.11   402.24   406.98
                              463.19   542.04   578.55   644.61   673.11
                              719.17   775.49   837.84   886.94   935.64
                              996.49  1005.29  1017.39  1104.80  1124.43
                             1179.51  1204.70  1220.32  1250.19  1254.11
                             1287.70  1292.21  1384.56  1438.68  1462.11
                             1487.74  1501.79  1535.72  1567.97  1625.46
                             1652.86  1696.20  1706.20  1716.75  1716.94
                             1743.07  1759.07  1838.23  1881.22  1894.16
                             1900.50  1922.68  1987.55  2008.30  2044.37
                             2088.60  2109.43  2155.01  2180.94  2189.95
                             2196.92  2204.37  2220.76  2223.14  2228.21
                             2289.31  2371.95  2408.14  2582.84  4360.19
                             4408.04  4421.97  4447.72  4477.89  4510.01
                             4525.67  4556.17  4606.38  4641.19  4659.61
                             4684.58  4786.51

 Zero-point correction=                           0.244372 (Hartree/Particle)
 Thermal correction to Energy=                    0.260838
 Thermal correction to Enthalpy=                  0.261782
 Thermal correction to Gibbs Free Energy=         0.198069
 Sum of electronic and zero-point Energies=           -854.808754
 Sum of electronic and thermal Energies=              -854.792288
 Sum of electronic and thermal Enthalpies=            -854.791344
 Sum of electronic and thermal Free Energies=         -854.855056

                     E (Thermal)             CV                S
                      KCal/Mol        Cal/Mol-Kelvin    Cal/Mol-Kelvin
 Total                  163.678             60.572            134.094
 Electronic               0.000              0.000              0.000
 Translational            0.889              2.981             42.414
 Rotational               0.889              2.981             33.658
 Vibrational            161.901             54.610             58.022
 Vibration     1          0.593              1.984              6.040
 Vibration     2          0.593              1.984              5.972
 Vibration     3          0.596              1.975              4.596
 Vibration     4          0.597              1.971              4.322
 Vibration     5          0.600              1.962              3.866
 Vibration     6          0.604              1.949              3.453
 Vibration     7          0.608              1.936              3.165
 Vibration     8          0.611              1.925              2.976
 Vibration     9          0.638              1.840              2.131
 Vibration    10          0.642              1.826              2.046
 Vibration    11          0.645              1.816              1.990
 Vibration    12          0.669              1.744              1.654
 Vibration    13          0.671              1.736              1.625
 Vibration    14          0.680              1.711              1.536
 Vibration    15          0.682              1.705              1.516
 Vibration    16          0.707              1.631              1.300
 Vibration    17          0.747              1.520              1.052
 Vibration    18          0.768              1.466              0.955
 Vibration    19          0.807              1.365              0.802
 Vibration    20          0.825              1.321              0.744
 Vibration    21          0.855              1.250              0.659
 Vibration    22          0.894              1.164              0.567
 Vibration    23          0.939              1.070              0.481
 Vibration    24          0.976              0.997              0.422

                           ! Non-Optimized Parameters !
 Normal termination of Gaussian 16 at Fri Dec 11 21:29:51 2020.

 ----------------------------------------------------------------------
 # B3LYP/6-311++G(d,p) empiricaldispersion=gd3bj scf=xqc pop=npa geom=c
 heck
 ----------------------------------------------------------------------

 --------------------------------------
 CID_52044499_JID_8601_Energie_neutraal
 --------------------------------------
 Structure from the checkpoint file:  "JID_8601.chk"
 Charge =  0 Multiplicity = 1

 SCF Done:  E(RB3LYP) =  -855.286193823     A.U. after   16 cycles
 Normal termination of Gaussian 16 at Fri Dec 11 21:34:30 2020.

 ----------------------------------------------------------------------
 # B3LYP/6-311++G(d,p) empiricaldispersion=gd3bj scf=xqc pop=npa geom=c
 heck
 ----------------------------------------------------------------------

 ------------------------------------
 CID_52044499_JID_8601_Energie_kation
 ------------------------------------
 Structure from the checkpoint file:  "JID_8601.chk"
 Charge =  1 Multiplicity = 2

 SCF Done:  E(UB3LYP) =  -854.973956589     A.U. after   32 cycles
 Normal termination of Gaussian 16 at Fri Dec 11 21:47:56 2020.
 Gaussian 16:  ES64L-G16RevA.03 25-Dec-2016

 ----------------------------------------------------------------------
 # B3LYP/6-311++G(d,p) empiricaldispersion=gd3bj scf=xqc pop=npa geom=c
 heck
 ----------------------------------------------------------------------

 -----------------------------------
 CID_52044499_JID_8601_Energie_anion
 -----------------------------------
 Structure from the checkpoint file:  "JID_8601.chk"
 Charge = -1 Multiplicity = 2

                         Standard orientation:
 ---------------------------------------------------------------------
 Center     Atomic      Atomic             Coordinates (Angstroms)
 Number     Number       Type             X           Y           Z
 ---------------------------------------------------------------------
      1          6           0        6.414762   -1.296968   -0.141206
      2          6           0        5.589602   -0.063408    0.165799
      3          8           0        4.202291   -0.419888   -0.024613
      4          6           0        3.316343    0.560903    0.204122
      5          8           0        3.608382    1.691143    0.550505
      6          6           0        1.924869    0.126710   -0.008575
      7          6           0        0.806083    0.916111    0.160648
      8          7           0       -0.230971    0.101172   -0.138566
      9          7           0        0.229578   -1.147230   -0.479524
     10          7           0        1.521974   -1.123277   -0.397883
     11          6           0       -1.623701    0.385171   -0.132939
     12          6           0       -2.518409   -0.656922    0.077169
     13          6           0       -3.892586   -0.387850    0.085108
     14          6           0       -4.354903    0.921075   -0.101323
     15          6           0       -3.431992    1.948175   -0.309492
     16          6           0       -2.064770    1.697792   -0.335943
     17          8           0       -4.693408   -1.466782    0.293550
     18          6           0       -6.097874   -1.261986    0.319872
     19          1           0        6.146555   -2.120090    0.528123
     20          1           0        7.479127   -1.074250   -0.009871
     21          1           0        6.252909   -1.625716   -1.172318
     22          1           0        5.725906    0.280997    1.195904
     23          1           0        5.831912    0.773232   -0.497259
     24          1           0        0.696880    1.937969    0.483028
     25          1           0       -2.165494   -1.668565    0.229629
     26          1           0       -5.413922    1.146689   -0.090763
     27          1           0       -3.791840    2.960607   -0.465642
     28          1           0       -1.358622    2.495910   -0.534334
     29          1           0       -6.388788   -0.581435    1.130426
     30          1           0       -6.462892   -0.864390   -0.635763
     31          1           0       -6.538456   -2.244202    0.495674
 ---------------------------------------------------------------------

 SCF Done:  E(UB3LYP) =  -855.292161681     A.U. after   33 cycles
 SCF Done:  E(UB3LYP) =  -855.292220075     a.u. after    6 cycles

 The electronic state is 2-A.
 Alpha  occ. eigenvalues --  -19.04760 -19.04666 -18.97791 -14.26142 -14.22629
 Alpha  occ. eigenvalues --  -14.20300 -10.16815 -10.13180 -10.12980 -10.11607
 Alpha  occ. eigenvalues --  -10.08416 -10.08385 -10.06279 -10.06137 -10.06011
 Alpha  occ. eigenvalues --  -10.05022 -10.04570 -10.03930  -0.98747  -0.96485
 Alpha  occ. eigenvalues --   -0.95818  -0.89415  -0.79400  -0.72757  -0.68975
 Alpha  occ. eigenvalues --   -0.66923  -0.64960  -0.62963  -0.59260  -0.56547
 Alpha  occ. eigenvalues --   -0.52580  -0.51276  -0.48354  -0.46169  -0.45746
 Alpha  occ. eigenvalues --   -0.44028  -0.39739  -0.39436  -0.37701  -0.37266
 Alpha  occ. eigenvalues --   -0.37138  -0.35856  -0.35313  -0.34336  -0.32369
 Alpha  occ. eigenvalues --   -0.31827  -0.31302  -0.30803  -0.30711  -0.29270
 Alpha  occ. eigenvalues --   -0.27305  -0.26594  -0.26485  -0.25806  -0.24619
 Alpha  occ. eigenvalues --   -0.22524  -0.22422  -0.20888  -0.19306  -0.18541
 Alpha  occ. eigenvalues --   -0.15800  -0.14105  -0.13855  -0.11981  -0.11181
 Alpha  occ. eigenvalues --    0.04445
 Alpha virt. eigenvalues --    0.06003   0.06605   0.08259   0.09230   0.09373
 Alpha virt. eigenvalues --    0.09576   0.10043   0.10131   0.10645   0.10994
 Alpha virt. eigenvalues --    0.11472   0.11655   0.13143   0.13545   0.13741

  Beta  occ. eigenvalues --  -19.04751 -19.04611 -18.97708 -14.26049 -14.22455
  Beta  occ. eigenvalues --  -14.20335 -10.16678 -10.13182 -10.12965 -10.11636
  Beta  occ. eigenvalues --  -10.08416 -10.08153 -10.06156 -10.06015 -10.05844
  Beta  occ. eigenvalues --  -10.04996 -10.04366 -10.03790  -0.98599  -0.96465
  Beta  occ. eigenvalues --   -0.95591  -0.89266  -0.79074  -0.72547  -0.68823
  Beta  occ. eigenvalues --   -0.66584  -0.64840  -0.62609  -0.59110  -0.56358
  Beta  occ. eigenvalues --   -0.52156  -0.51135  -0.48244  -0.45943  -0.45576
  Beta  occ. eigenvalues --   -0.43873  -0.39605  -0.39315  -0.37565  -0.37216
  Beta  occ. eigenvalues --   -0.36965  -0.35581  -0.35210  -0.33654  -0.32230
  Beta  occ. eigenvalues --   -0.31511  -0.31261  -0.30675  -0.30524  -0.29173
  Beta  occ. eigenvalues --   -0.26929  -0.26455  -0.26270  -0.25687  -0.24539
  Beta  occ. eigenvalues --   -0.22408  -0.22020  -0.20732  -0.18912  -0.17884
  Beta  occ. eigenvalues --   -0.15711  -0.13763  -0.12451  -0.11161  -0.10449
  Beta virt. eigenvalues --    0.06194   0.06597   0.08218   0.09369   0.09416
  Beta virt. eigenvalues --    0.09587   0.10034   0.10077   0.10367   0.10627
  Beta virt. eigenvalues --    0.11316   0.11433   0.11621   0.13159   0.13574

 Mulliken charges and spin densities:
               1          2
     1  C   -0.627422   0.002392
     2  C    0.048521  -0.004010
     3  O   -0.028778   0.007511
     4  C   -0.755255   0.099581
     5  O   -0.333101   0.030068
     6  C    0.738823  -0.042770
     7  C   -0.510192   0.362544
     8  N    0.313743   0.009057
     9  N   -0.076111   0.093755
    10  N   -0.181387  -0.020806
    11  C   -0.429708  -0.014909
    12  C   -0.495475   0.179333
    13  C   -0.265161   0.043606
    14  C    0.242583   0.184275
    15  C   -0.351063  -0.037917
    16  C    0.414532  -0.036295
    17  O   -0.175365   0.012549
    18  C    0.002000  -0.308592
    19  H    0.148449  -0.000334
    20  H    0.123941  -0.000104
    21  H    0.148287  -0.000507
    22  H    0.165745   0.001951
    23  H    0.164710   0.002598
    24  H    0.137635  -0.008113
    25  H    0.207157   0.001927
    26  H    0.057401   0.046721
    27  H    0.114829   0.025173
    28  H    0.121378   0.005046
    29  H    0.069807   0.074270
    30  H    0.020550   0.127110
    31  H   -0.011072   0.164890
 Sum of Mulliken charges =  -1.00000   1.00000

 Dipole moment (field-independent basis, Debye):
    X=              1.3663    Y=              0.8666    Z=              0.3693  Tot=              1.6596
 Quadrupole moment (field-independent basis, Debye-Ang):
   XX=           -153.5370   YY=           -126.6811   ZZ=           -116.5992
   XY=             -8.1079   XZ=             -1.6766   YZ=             -3.9131

 Summary of Natural Population Analysis:

                                       Natural Population
                Natural  -----------------------------------------------
    Atom  No    Charge         Core      Valence    Rydberg      Total
 -----------------------------------------------------------------------
      C    1   -0.29348      0.99967     2.28958    0.00423     3.29348
      C    2   -0.01669      0.99960     2.00662    0.01046     3.01669
      O    3   -0.27359      0.99985     3.26392    0.00982     4.27359
      C    4    0.40781      0.99964     1.56954    0.02301     2.59219
      O    5   -0.31905      0.99988     3.31336    0.00581     4.31905
      C    6   -0.02960      0.99949     2.01698    0.01313     3.02960
      C    7    0.08422      0.99953     1.90509    0.01116     2.91578
      N    8   -0.09468      0.99962     2.58117    0.01390     3.59468
      N    9   -0.02590      0.99979     2.51100    0.01511     3.52590
      N   10   -0.13226      0.99973     2.61852    0.01401     3.63226
      C   11    0.11626      0.99947     1.87244    0.01183     2.88374
      C   12   -0.09609      0.99949     2.08817    0.00843     3.09609
      C   13    0.15692      0.99940     1.83155    0.01213     2.84308
      C   14   -0.12443      0.99952     2.11630    0.00861     3.12443
      C   15   -0.09590      0.99959     2.08782    0.00849     3.09590
      C   16   -0.12175      0.99954     2.11322    0.00900     3.12175
      O   17   -0.27449      0.99985     3.26523    0.00942     4.27449
      C   18   -0.09908      0.99961     2.09126    0.00821     3.09908
      H   19    0.10115      0.00000     0.39786    0.00099     0.39885
      H   20    0.09428      0.00000     0.40496    0.00075     0.40572
      H   21    0.10111      0.00000     0.39790    0.00099     0.39889
      H   22    0.08709      0.00000     0.41154    0.00137     0.41291
      H   23    0.08705      0.00000     0.41157    0.00138     0.41295
      H   24    0.10548      0.00000     0.39376    0.00076     0.39452
      H   25    0.11454      0.00000     0.38381    0.00166     0.38546
      H   26    0.09580      0.00000     0.40299    0.00121     0.40420
      H   27    0.09267      0.00000     0.40601    0.00132     0.40733
      H   28    0.10127      0.00000     0.39767    0.00106     0.39873
      H   29    0.08105      0.00000     0.41696    0.00199     0.41895
      H   30    0.08139      0.00000     0.41630    0.00230     0.41861
      H   31    0.08889      0.00000     0.40981    0.00130     0.41111
 =======================================================================
   * Total *    0.00000     17.99326    46.79289    0.21384    65.00000

 Normal termination of Gaussian 16 at Fri Dec 11 23:10:39 2020.
