 Gaussian 16, Revision A.03,

 -----------------------------------------------------------
 # opt freq B3LYP/6-31G(d) empiricaldispersion=gd3bj scf=xqc
 -----------------------------------------------------------

 ------------------------------
 CID_13104208_JID_8669_neutraal
 ------------------------------
 Symbolic Z-matrix:
 Charge =  0 Multiplicity = 1

 SCF Done:  E(RB3LYP) =  -769.847220723     A.U. after   15 cycles
 SCF Done:  E(RB3LYP) =  -769.850120169     A.U. after   13 cycles
 SCF Done:  E(RB3LYP) =  -769.848949072     A.U. after   13 cycles
 SCF Done:  E(RB3LYP) =  -769.850600621     A.U. after   12 cycles
 SCF Done:  E(RB3LYP) =  -769.850819917     A.U. after   12 cycles
 SCF Done:  E(RB3LYP) =  -769.851054588     A.U. after   11 cycles
 SCF Done:  E(RB3LYP) =  -769.851138018     A.U. after   11 cycles
 SCF Done:  E(RB3LYP) =  -769.851183552     A.U. after   12 cycles
 SCF Done:  E(RB3LYP) =  -769.851199158     A.U. after   11 cycles
 SCF Done:  E(RB3LYP) =  -769.851206747     A.U. after   10 cycles
 SCF Done:  E(RB3LYP) =  -769.851211037     A.U. after   10 cycles
 SCF Done:  E(RB3LYP) =  -769.851213537     A.U. after   10 cycles
 SCF Done:  E(RB3LYP) =  -769.851214138     A.U. after    8 cycles
 SCF Done:  E(RB3LYP) =  -769.851214215     A.U. after    7 cycles
 SCF Done:  E(RB3LYP) =  -769.851214216     A.U. after    7 cycles
 Optimization completed.
    -- Stationary point found.
 Normal termination of Gaussian 16 at Fri Dec 11 21:28:10 2020.

 --------------------------------------------------------------------
 #N Geom=AllCheck Guess=TCheck SCRF=Check GenChk RB3LYP/6-31G(d) Freq
 --------------------------------------------------------------------

 Structure from the checkpoint file:  "JID_8669.chk"
 ------------------------------
 CID_13104208_JID_8669_neutraal
 ------------------------------
 Charge =  0 Multiplicity = 1

 SCF Done:  E(RB3LYP) =  -769.851214216     A.U. after    1 cycles

  Exact polarizability: 237.515  12.459 172.088 -21.571  19.899  89.887
 Approx polarizability: 320.163  21.834 314.980 -39.847  47.376 144.709

                      1                      2                      3
                      A                      A                      A
 Frequencies --     17.7248                27.8891                35.3259
 Red. masses --      4.1382                 4.5732                 4.0809
 Frc consts  --      0.0008                 0.0021                 0.0030
 IR Inten    --      0.2474                 0.4137                 0.1033

                      4                      5                      6
                      A                      A                      A
 Frequencies --     64.5229                84.1965               129.3255
 Red. masses --      4.5997                 5.2221                 6.9414
 Frc consts  --      0.0113                 0.0218                 0.0684
 IR Inten    --      0.6989                 0.2601                 0.5787

                      7                      8                      9
                      A                      A                      A
 Frequencies --    172.8222               195.9805               217.1408
 Red. masses --      5.1318                 5.0016                 2.9246
 Frc consts  --      0.0903                 0.1132                 0.0812
 IR Inten    --      0.1308                 0.4997                 0.3849

                     10                     11                     12
                      A                      A                      A
 Frequencies --    235.7727               278.1998               303.6874
 Red. masses --      4.0688                 1.1276                 4.9010
 Frc consts  --      0.1333                 0.0514                 0.2663
 IR Inten    --      0.3216                 0.1682                 2.0789

                     13                     14                     15
                      A                      A                      A
 Frequencies --    327.6459               359.5484               411.2923
 Red. masses --      3.2030                 4.9077                 4.0506
 Frc consts  --      0.2026                 0.3738                 0.4037
 IR Inten    --      6.0180                23.9864                 1.0354

                     16                     17                     18
                      A                      A                      A
 Frequencies --    415.4470               416.8429               445.9648
 Red. masses --      2.9704                 3.1640                 4.2309
 Frc consts  --      0.3021                 0.3239                 0.4958
 IR Inten    --      0.0990                 0.0583                 7.0075

                     19                     20                     21
                      A                      A                      A
 Frequencies --    481.3876               489.0170               504.7842
 Red. masses --      3.9589                 4.9341                 1.1267
 Frc consts  --      0.5405                 0.6952                 0.1692
 IR Inten    --      0.3354                 9.8779               111.8093

                     22                     23                     24
                      A                      A                      A
 Frequencies --    569.4493               580.9201               633.1823
 Red. masses --      3.4347                 4.0131                 6.4002
 Frc consts  --      0.6562                 0.7979                 1.5118
 IR Inten    --     15.9217                 5.2374                 0.4438

                     25                     26                     27
                      A                      A                      A
 Frequencies --    637.6294               691.1561               697.6870
 Red. masses --      6.3689                 6.1166                 4.0167
 Frc consts  --      1.5256                 1.7215                 1.1520
 IR Inten    --      0.0963                12.2339                 2.4723

                     28                     29                     30
                      A                      A                      A
 Frequencies --    711.2885               712.0522               771.7550
 Red. masses --      1.6468                 1.7749                 2.0282
 Frc consts  --      0.4909                 0.5302                 0.7117
 IR Inten    --     25.3168                45.1912                29.6153

                     31                     32                     33
                      A                      A                      A
 Frequencies --    780.0768               813.9407               852.8274
 Red. masses --      2.7083                 2.8394                 1.2527
 Frc consts  --      0.9710                 1.1083                 0.5368
 IR Inten    --      6.2673                 1.8750                 0.1485

                     34                     35                     36
                      A                      A                      A
 Frequencies --    864.5270               871.2267               896.2596
 Red. masses --      1.2505                 2.9447                 2.2769
 Frc consts  --      0.5507                 1.3169                 1.0776
 IR Inten    --      0.9410                 4.4427                10.1424

                     37                     38                     39
                      A                      A                      A
 Frequencies --    920.5679               951.0041               960.0672
 Red. masses --      1.4643                 1.4111                 1.3523
 Frc consts  --      0.7311                 0.7519                 0.7344
 IR Inten    --      0.8481                 2.4414                 0.3383

                     40                     41                     42
                      A                      A                      A
 Frequencies --    985.0823               990.1020              1004.6584
 Red. masses --      1.3563                 1.2464                 4.4073
 Frc consts  --      0.7755                 0.7199                 2.6210
 IR Inten    --      0.2359                 0.0648                78.4394

                     43                     44                     45
                      A                      A                      A
 Frequencies --   1010.9825              1022.3851              1022.8519
 Red. masses --      1.2997                 5.9492                 5.9970
 Frc consts  --      0.7826                 3.6638                 3.6966
 IR Inten    --      2.3113                 0.7001                 0.1960

                     46                     47                     48
                      A                      A                      A
 Frequencies --   1036.3084              1059.9837              1065.7806
 Red. masses --      2.3705                 2.0458                 2.0172
 Frc consts  --      1.5000                 1.3543                 1.3500
 IR Inten    --      4.3297                 0.5740                 2.0631

                     49                     50                     51
                      A                      A                      A
 Frequencies --   1079.8629              1102.6740              1119.0098
 Red. masses --      2.6868                 2.6093                 1.5923
 Frc consts  --      1.8460                 1.8693                 1.1748
 IR Inten    --     19.4574                43.5351                 4.9394

                     52                     53                     54
                      A                      A                      A
 Frequencies --   1131.9323              1143.1262              1193.8559
 Red. masses --      1.7179                 2.2071                 1.0944
 Frc consts  --      1.2969                 1.6993                 0.9191
 IR Inten    --      4.4579                44.0864                 0.0516

                     55                     56                     57
                      A                      A                      A
 Frequencies --   1196.4857              1215.5374              1219.0356
 Red. masses --      1.1023                 1.1810                 1.1335
 Frc consts  --      0.9298                 1.0281                 0.9924
 IR Inten    --      1.3203                20.0029                 0.0921

                     58                     59                     60
                      A                      A                      A
 Frequencies --   1233.4946              1246.0398              1277.6658
 Red. masses --      1.8128                 1.8198                 1.6050
 Frc consts  --      1.6250                 1.6647                 1.5437
 IR Inten    --      9.4728                37.7625                 3.0255

                     61                     62                     63
                      A                      A                      A
 Frequencies --   1311.8916              1336.9870              1353.5225
 Red. masses --      1.9940                 2.0357                 1.7592
 Frc consts  --      2.0219                 2.1439                 1.8988
 IR Inten    --    202.2784                12.5398                38.1731

                     64                     65                     66
                      A                      A                      A
 Frequencies --   1366.0710              1368.8466              1372.7203
 Red. masses --      1.3190                 2.3725                 3.3316
 Frc consts  --      1.4502                 2.6192                 3.6989
 IR Inten    --     14.4562                 0.4828                 4.9502

                     67                     68                     69
                      A                      A                      A
 Frequencies --   1396.0027              1445.3343              1470.6365
 Red. masses --      1.4393                 1.2228                 1.3253
 Frc consts  --      1.6526                 1.5050                 1.6888
 IR Inten    --      5.6386                 1.5051                73.5925

                     70                     71                     72
                      A                      A                      A
 Frequencies --   1498.4020              1504.3216              1528.3022
 Red. masses --      2.1880                 2.1785                 1.0676
 Frc consts  --      2.8943                 2.9046                 1.4692
 IR Inten    --     16.6362                 3.4688                12.6880

                     73                     74                     75
                      A                      A                      A
 Frequencies --   1531.2665              1544.4299              1550.2569
 Red. masses --      1.0516                 2.1654                 2.1357
 Frc consts  --      1.4528                 3.0431                 3.0242
 IR Inten    --      6.1737                 1.9863                11.4979

                     76                     77                     78
                      A                      A                      A
 Frequencies --   1639.1127              1647.3879              1661.1182
 Red. masses --      5.4034                 5.4704                 5.4782
 Frc consts  --      8.5533                 8.7470                 8.9061
 IR Inten    --     11.4734                 1.4926                27.0887

                     79                     80                     81
                      A                      A                      A
 Frequencies --   1668.1534              1747.9155              3043.4471
 Red. masses --      5.6057                10.9520                 1.0837
 Frc consts  --      9.1908                19.7145                 5.9142
 IR Inten    --      5.4402               137.3074                 7.5482

                     82                     83                     84
                      A                      A                      A
 Frequencies --   3062.5615              3096.7439              3128.5720
 Red. masses --      1.0358                 1.0853                 1.1011
 Frc consts  --      5.7237                 6.1320                 6.3500
 IR Inten    --     16.7225                21.0086                22.9669

                     85                     86                     87
                      A                      A                      A
 Frequencies --   3136.0889              3178.3099              3185.7820
 Red. masses --      1.1030                 1.0844                 1.0869
 Frc consts  --      6.3913                 6.4540                 6.4993
 IR Inten    --     37.7902                 4.9242                 0.7126

                     88                     89                     90
                      A                      A                      A
 Frequencies --   3190.5633              3194.7288              3201.7397
 Red. masses --      1.0858                 1.0908                 1.0896
 Frc consts  --      6.5126                 6.5594                 6.5811
 IR Inten    --      0.2513                27.6593                11.8983

                     91                     92                     93
                      A                      A                      A
 Frequencies --   3202.1505              3210.7380              3211.9435
 Red. masses --      1.0940                 1.0979                 1.0942
 Frc consts  --      6.6090                 6.6685                 6.6507
 IR Inten    --     41.6805                20.2730                24.2452

                     94                     95                     96
                      A                      A                      A
 Frequencies --   3226.8143              3229.3443              3636.2795
 Red. masses --      1.0924                 1.0936                 1.0643
 Frc consts  --      6.7016                 6.7196                 8.2913
 IR Inten    --     11.6773                 4.3248                62.4624

 - Thermochemistry -
 -------------------
 Temperature   298.150 Kelvin.  Pressure   1.00000 Atm.
 Atom     1 has atomic number  6 and mass  12.00000

 Molecular mass:   240.11503 amu.
 Principal axes and moments of inertia in atomic units:
                           1         2         3
     Eigenvalues --  1787.862648384.559729405.28199
           X            0.99999   0.00402  -0.00213
           Y           -0.00398   0.99984   0.01756
           Z            0.00220  -0.01755   0.99984
 This molecule is an asymmetric top.
 Rotational symmetry number  1.
 Warning -- assumption of classical behavior for rotation
           may cause significant error
 Rotational temperatures (Kelvin)      0.04845     0.01033     0.00921
 Rotational constants (GHZ):           1.00944     0.21525     0.19189
 Zero-point vibrational energy     741478.2 (Joules/Mol)
                                  177.21755 (Kcal/Mol)
 Warning -- explicit consideration of  23 degrees of freedom as
           vibrations may cause significant error
 Vibrational temperatures:     25.50    40.13    50.83    92.83   121.14
          (Kelvin)            186.07   248.65   281.97   312.42   339.22
                              400.27   436.94   471.41   517.31   591.76
                              597.74   599.74   641.64   692.61   703.59
                              726.27   819.31   835.81   911.01   917.41
                              994.42  1003.82  1023.39  1024.48  1110.38
                             1122.36  1171.08  1227.03  1243.86  1253.50
                             1289.52  1324.49  1368.28  1381.32  1417.31
                             1424.54  1445.48  1454.58  1470.98  1471.66
                             1491.02  1525.08  1533.42  1553.68  1586.50
                             1610.01  1628.60  1644.70  1717.69  1721.48
                             1748.89  1753.92  1774.72  1792.77  1838.28
                             1887.52  1923.63  1947.42  1965.47  1969.47
                             1975.04  2008.54  2079.51  2115.92  2155.87
                             2164.38  2198.89  2203.15  2222.09  2230.47
                             2358.32  2370.22  2389.98  2400.10  2514.86
                             4378.84  4406.34  4455.52  4501.32  4512.13
                             4572.88  4583.63  4590.51  4596.50  4606.59
                             4607.18  4619.54  4621.27  4642.67  4646.31
                             5231.80

 Zero-point correction=                           0.282414 (Hartree/Particle)
 Thermal correction to Energy=                    0.298152
 Thermal correction to Enthalpy=                  0.299097
 Thermal correction to Gibbs Free Energy=         0.237054
 Sum of electronic and zero-point Energies=           -769.568800
 Sum of electronic and thermal Energies=              -769.553062
 Sum of electronic and thermal Enthalpies=            -769.552118
 Sum of electronic and thermal Free Energies=         -769.614160

                     E (Thermal)             CV                S
                      KCal/Mol        Cal/Mol-Kelvin    Cal/Mol-Kelvin
 Total                  187.093             61.523            130.580
 Electronic               0.000              0.000              0.000
 Translational            0.889              2.981             42.329
 Rotational               0.889              2.981             33.311
 Vibrational            185.316             55.561             54.940
 Vibration     1          0.593              1.986              6.874
 Vibration     2          0.593              1.984              5.974
 Vibration     3          0.594              1.982              5.505
 Vibration     4          0.597              1.971              4.314
 Vibration     5          0.601              1.960              3.791
 Vibration     6          0.612              1.924              2.956
 Vibration     7          0.626              1.876              2.405
 Vibration     8          0.636              1.845              2.171
 Vibration     9          0.646              1.815              1.983
 Vibration    10          0.655              1.786              1.835
 Vibration    11          0.679              1.714              1.545
 Vibration    12          0.695              1.667              1.396
 Vibration    13          0.711              1.620              1.272
 Vibration    14          0.734              1.556              1.124
 Vibration    15          0.775              1.446              0.922
 Vibration    16          0.779              1.437              0.908
 Vibration    17          0.780              1.434              0.903
 Vibration    18          0.805              1.370              0.808
 Vibration    19          0.838              1.291              0.706
 Vibration    20          0.845              1.274              0.686
 Vibration    21          0.860              1.239              0.646
 Vibration    22          0.926              1.097              0.505
 Vibration    23          0.938              1.073              0.484

 Optimization completed.
    -- Stationary point found.
 Normal termination of Gaussian 16 at Fri Dec 11 21:42:34 2020.

 ----------------------------------------------------------------------
 # B3LYP/6-311++G(d,p) empiricaldispersion=gd3bj scf=xqc pop=npa geom=c
 heck
 ----------------------------------------------------------------------

 --------------------------------------
 CID_13104208_JID_8669_Energie_neutraal
 --------------------------------------
 Structure from the checkpoint file:  "JID_8669.chk"
 Charge =  0 Multiplicity = 1

 SCF Done:  E(RB3LYP) =  -770.064729797     A.U. after   16 cycles
 Normal termination of Gaussian 16 at Fri Dec 11 21:49:33 2020.

 ----------------------------------------------------------------------
 # B3LYP/6-311++G(d,p) empiricaldispersion=gd3bj scf=xqc pop=npa geom=c
 heck
 ----------------------------------------------------------------------

 ------------------------------------
 CID_13104208_JID_8669_Energie_kation
 ------------------------------------
 Structure from the checkpoint file:  "JID_8669.chk"
 Charge =  1 Multiplicity = 2

 SCF Done:  E(UB3LYP) =  -769.758485947     A.U. after   30 cycles
 Normal termination of Gaussian 16 at Fri Dec 11 22:09:05 2020.
 Gaussian 16:  ES64L-G16RevA.03 25-Dec-2016

 ----------------------------------------------------------------------
 # B3LYP/6-311++G(d,p) empiricaldispersion=gd3bj scf=xqc pop=npa geom=c
 heck
 ----------------------------------------------------------------------

 -----------------------------------
 CID_13104208_JID_8669_Energie_anion
 -----------------------------------
 Structure from the checkpoint file:  "JID_8669.chk"
 Charge = -1 Multiplicity = 2

                         Standard orientation:
 ---------------------------------------------------------------------
 Center     Atomic      Atomic             Coordinates (Angstroms)
 Number     Number       Type             X           Y           Z
 ---------------------------------------------------------------------
      1          6           0        0.154805   -0.682312    1.606354
      2          6           0        0.903875    0.349998    0.750280
      3          6           0        2.311644   -0.087882    0.393872
      4          6           0        3.360505    0.838158    0.410711
      5          6           0        4.656210    0.461278    0.061228
      6          6           0        4.924569   -0.854301   -0.318663
      7          6           0        3.886395   -1.785715   -0.347952
      8          6           0        2.592108   -1.403654    0.004749
      9          6           0        0.151687    0.757229   -0.560072
     10          6           0       -1.271093    1.221248   -0.227205
     11          8           0       -1.416227    2.409629    0.044605
     12          6           0       -2.419902    0.279162   -0.192336
     13          6           0       -2.350269   -1.024908   -0.704713
     14          6           0       -3.463552   -1.861102   -0.650556
     15          6           0       -4.653352   -1.404739   -0.081871
     16          6           0       -4.732855   -0.105081    0.427399
     17          6           0       -3.625416    0.732514    0.367750
     18          8           0        0.824573    1.817333   -1.203080
     19          1           0        0.775198   -0.978995    2.457508
     20          1           0       -0.093624   -1.588406    1.044299
     21          1           0       -0.783629   -0.275197    1.993663
     22          1           0        0.973142    1.280265    1.328795
     23          1           0        3.152293    1.866022    0.692702
     24          1           0        5.456215    1.196226    0.083782
     25          1           0        5.933726   -1.151064   -0.590410
     26          1           0        4.083367   -2.812713   -0.643658
     27          1           0        1.796156   -2.142766   -0.022009
     28          1           0        0.152630   -0.093754   -1.247047
     29          1           0       -1.434846   -1.389750   -1.156158
     30          1           0       -3.402817   -2.867458   -1.053978
     31          1           0       -5.519238   -2.059252   -0.037794
     32          1           0       -5.659442    0.250907    0.868100
     33          1           0       -3.663930    1.746384    0.751064
     34          1           0        0.415873    2.624484   -0.834914
 ---------------------------------------------------------------------

 SCF Done:  E(UB3LYP) =  -770.089109305     A.U. after   24 cycles

 The electronic state is 2-A.
 Alpha  occ. eigenvalues --  -18.98279 -18.92951 -10.08687 -10.08041 -10.07888
 Alpha  occ. eigenvalues --  -10.07804 -10.07554 -10.07252 -10.07096 -10.06395
 Alpha  occ. eigenvalues --  -10.06193 -10.04613 -10.03594 -10.03532 -10.03048
 Alpha  occ. eigenvalues --  -10.02574 -10.02216 -10.02090  -0.90175  -0.85881
 Alpha  occ. eigenvalues --   -0.76056  -0.71341  -0.68941  -0.64943  -0.62900
 Alpha  occ. eigenvalues --   -0.61167  -0.60647  -0.56196  -0.52385  -0.50753
 Alpha  occ. eigenvalues --   -0.48255  -0.46826  -0.45634  -0.42014  -0.41268
 Alpha  occ. eigenvalues --   -0.38663  -0.36695  -0.35878  -0.34459  -0.33318
 Alpha  occ. eigenvalues --   -0.33024  -0.32432  -0.31120  -0.30832  -0.29561
 Alpha  occ. eigenvalues --   -0.28504  -0.27896  -0.27256  -0.26833  -0.25674
 Alpha  occ. eigenvalues --   -0.25292  -0.24710  -0.23411  -0.22339  -0.22175
 Alpha  occ. eigenvalues --   -0.21123  -0.20511  -0.19136  -0.15933  -0.15270
 Alpha  occ. eigenvalues --   -0.14194  -0.12249  -0.11759  -0.09559   0.03512
 Alpha virt. eigenvalues --    0.06712   0.08163   0.08257   0.08519   0.08694
 Alpha virt. eigenvalues --    0.09349   0.10117   0.10552   0.11180   0.11391
 Alpha virt. eigenvalues --    0.12097   0.12817   0.13138   0.13508   0.13615

  Beta  occ. eigenvalues --  -18.98265 -18.92381 -10.08722 -10.08047 -10.07882
  Beta  occ. eigenvalues --  -10.07780 -10.07535 -10.07236 -10.07092 -10.06157
  Beta  occ. eigenvalues --  -10.05968 -10.04605 -10.03653 -10.03621 -10.02888
  Beta  occ. eigenvalues --  -10.02240 -10.02134 -10.01887  -0.89937  -0.85016
  Beta  occ. eigenvalues --   -0.76023  -0.71009  -0.68867  -0.64921  -0.62722
  Beta  occ. eigenvalues --   -0.60750  -0.60327  -0.56034  -0.52174  -0.50726
  Beta  occ. eigenvalues --   -0.47649  -0.46692  -0.45490  -0.41899  -0.40953
  Beta  occ. eigenvalues --   -0.38515  -0.36663  -0.35725  -0.34208  -0.33208
  Beta  occ. eigenvalues --   -0.32769  -0.32381  -0.30904  -0.30762  -0.29373
  Beta  occ. eigenvalues --   -0.28437  -0.27823  -0.27184  -0.26588  -0.25324
  Beta  occ. eigenvalues --   -0.25151  -0.23773  -0.22949  -0.22266  -0.21897
  Beta  occ. eigenvalues --   -0.20631  -0.19702  -0.18008  -0.15855  -0.15148
  Beta  occ. eigenvalues --   -0.14041  -0.11422  -0.10033  -0.09058
  Beta virt. eigenvalues --    0.06695   0.08151   0.08258   0.08486   0.08673
  Beta virt. eigenvalues --    0.09322   0.10060   0.10410   0.10516   0.11162
  Beta virt. eigenvalues --    0.11372   0.12389   0.12833   0.13159   0.13504

 Mulliken charges and spin densities:
               1          2
     1  C   -0.755493   0.013577
     2  C    0.239775   0.014842
     3  C    0.749325  -0.001021
     4  C    0.045786   0.010769
     5  C   -0.449960  -0.002546
     6  C   -0.261630   0.018331
     7  C   -0.400732  -0.004462
     8  C   -0.233499   0.011335
     9  C   -0.617928   0.012979
    10  C   -0.697707   0.210350
    11  O   -0.383156   0.206600
    12  C    1.072578   0.027462
    13  C   -0.466218   0.115966
    14  C   -0.527245  -0.052463
    15  C   -0.383266   0.257695
    16  C   -0.399236  -0.057661
    17  C    0.228700   0.245358
    18  O   -0.169768  -0.005969
    19  H    0.109484  -0.000202
    20  H    0.143903   0.000559
    21  H    0.183699   0.003100
    22  H    0.176487   0.004014
    23  H    0.168073   0.003220
    24  H    0.137916   0.001122
    25  H    0.126988  -0.001471
    26  H    0.146384   0.000479
    27  H    0.134951  -0.001271
    28  H    0.246045   0.008049
    29  H    0.057857  -0.007249
    30  H    0.120461   0.002592
    31  H    0.097901  -0.021042
    32  H    0.115860   0.004761
    33  H    0.184837  -0.012370
    34  H    0.258830  -0.005434
 Sum of Mulliken charges =  -1.00000   1.00000

 Dipole moment (field-independent basis, Debye):
    X=              5.9718    Y=             -3.4127    Z=              1.3737  Tot=              7.0139
 Quadrupole moment (field-independent basis, Debye-Ang):
   XX=           -157.9662   YY=           -124.9450   ZZ=           -121.3291
   XY=              2.3863   XZ=             -1.2057   YZ=              4.8933

 Summary of Natural Population Analysis:

                                       Natural Population
                Natural  -----------------------------------------------
    Atom  No    Charge         Core      Valence    Rydberg      Total
 -----------------------------------------------------------------------
      C    1   -0.28488      0.99965     2.28057    0.00466     3.28488
      C    2   -0.12111      0.99955     2.10983    0.01173     3.12111
      C    3    0.00471      0.99950     1.98536    0.01043     2.99529
      C    4   -0.09158      0.99951     2.08328    0.00878     3.09158
      C    5   -0.10408      0.99957     2.09526    0.00925     3.10408
      C    6   -0.11141      0.99957     2.10246    0.00938     3.11141
      C    7   -0.10603      0.99958     2.09717    0.00929     3.10603
      C    8   -0.10243      0.99951     2.09476    0.00816     3.10243
      C    9    0.03912      0.99952     1.94751    0.01386     2.96088
      C   10    0.31875      0.99960     1.66086    0.02079     2.68125
      O   11   -0.26447      0.99988     3.25793    0.00667     4.26447
      C   12   -0.05649      0.99947     2.04655    0.01047     3.05649
      C   13   -0.06083      0.99954     2.05362    0.00767     3.06083
      C   14   -0.13118      0.99958     2.12197    0.00964     3.13118
      C   15   -0.04307      0.99958     2.03375    0.00974     3.04307
      C   16   -0.13349      0.99957     2.12460    0.00931     3.13349
      C   17   -0.04094      0.99953     2.03223    0.00917     3.04094
      O   18   -0.37986      0.99990     3.37256    0.00741     4.37986
      H   19    0.09382      0.00000     0.40527    0.00091     0.40618
      H   20    0.09763      0.00000     0.40140    0.00097     0.40237
      H   21    0.11177      0.00000     0.38746    0.00077     0.38823
      H   22    0.09952      0.00000     0.39865    0.00184     0.40048
      H   23    0.10180      0.00000     0.39711    0.00109     0.39820
      H   24    0.09508      0.00000     0.40392    0.00100     0.40492
      H   25    0.09432      0.00000     0.40472    0.00096     0.40568
      H   26    0.09492      0.00000     0.40407    0.00101     0.40508
      H   27    0.10026      0.00000     0.39844    0.00129     0.39974
      H   28    0.08493      0.00000     0.41366    0.00142     0.41507
      H   29    0.09000      0.00000     0.40859    0.00141     0.41000
      H   30    0.08977      0.00000     0.40911    0.00112     0.41023
      H   31    0.08506      0.00000     0.41388    0.00106     0.41494
      H   32    0.09012      0.00000     0.40880    0.00108     0.40988
      H   33    0.10373      0.00000     0.39480    0.00147     0.39627
      H   34    0.23655      0.00000     0.26027    0.00317     0.26345
 =======================================================================
   * Total *   -0.00000     17.99261    45.81041    0.19698    64.00000

 Normal termination of Gaussian 16 at Fri Dec 11 22:23:58 2020.
