 Gaussian 16, Revision A.03,

 -----------------------------------------------------------
 # opt freq B3LYP/6-31G(d) empiricaldispersion=gd3bj scf=xqc
 -----------------------------------------------------------

 ------------------------------
 CID_58552480_JID_5028_neutraal
 ------------------------------
 Symbolic Z-matrix:
 Charge =  0 Multiplicity = 1

 SCF Done:  E(RB3LYP) =  -588.571084864     A.U. after   12 cycles
 SCF Done:  E(RB3LYP) =  -588.572928034     A.U. after   10 cycles
 SCF Done:  E(RB3LYP) =  -588.572753293     A.U. after   10 cycles
 SCF Done:  E(RB3LYP) =  -588.573196829     A.U. after   10 cycles
 SCF Done:  E(RB3LYP) =  -588.573315585     A.U. after    9 cycles
 SCF Done:  E(RB3LYP) =  -588.573345791     A.U. after    9 cycles
 SCF Done:  E(RB3LYP) =  -588.573354148     A.U. after    8 cycles
 SCF Done:  E(RB3LYP) =  -588.573355172     A.U. after    7 cycles
 SCF Done:  E(RB3LYP) =  -588.573355268     A.U. after    6 cycles
 Optimization completed.
    -- Stationary point found.
 Normal termination of Gaussian 16 at Thu Dec 10 14:45:07 2020.

 --------------------------------------------------------------------
 #N Geom=AllCheck Guess=TCheck SCRF=Check GenChk RB3LYP/6-31G(d) Freq
 --------------------------------------------------------------------

 Structure from the checkpoint file:  "JID_5028.chk"
 ------------------------------
 CID_58552480_JID_5028_neutraal
 ------------------------------
 Charge =  0 Multiplicity = 1

 SCF Done:  E(RB3LYP) =  -588.573355268     A.U. after    1 cycles

  Exact polarizability: 176.257   1.113 156.272  -0.018  -0.718 126.112
 Approx polarizability: 209.979  -1.128 209.218  -0.914   0.228 212.471

                      1                      2                      3
                      A                      A                      A
 Frequencies --     42.6527                68.5685                82.6737
 Red. masses --      2.9858                 2.9353                 2.8640
 Frc consts  --      0.0032                 0.0081                 0.0115
 IR Inten    --      0.0081                 0.0043                 0.0074

                      4                      5                      6
                      A                      A                      A
 Frequencies --     99.9313               133.4923               160.2606
 Red. masses --      2.5056                 1.8452                 2.5294
 Frc consts  --      0.0147                 0.0194                 0.0383
 IR Inten    --      0.0012                 0.0190                 0.0014

                      7                      8                      9
                      A                      A                      A
 Frequencies --    169.8534               217.7739               231.5419
 Red. masses --      2.3733                 1.4985                 1.0948
 Frc consts  --      0.0403                 0.0419                 0.0346
 IR Inten    --      0.0021                 0.0453                 0.0349

                     10                     11                     12
                      A                      A                      A
 Frequencies --    247.2563               266.8428               283.0085
 Red. masses --      1.8988                 2.8222                 2.0069
 Frc consts  --      0.0684                 0.1184                 0.0947
 IR Inten    --      0.0027                 0.0540                 0.0628

                     13                     14                     15
                      A                      A                      A
 Frequencies --    322.4205               341.3114               365.0195
 Red. masses --      2.1525                 2.0675                 2.9647
 Frc consts  --      0.1318                 0.1419                 0.2327
 IR Inten    --      0.0856                 0.0197                 0.0227

                     16                     17                     18
                      A                      A                      A
 Frequencies --    368.5270               400.5634               421.1532
 Red. masses --      2.1515                 2.4861                 2.0462
 Frc consts  --      0.1722                 0.2350                 0.2138
 IR Inten    --      0.0252                 0.0315                 0.1170

                     19                     20                     21
                      A                      A                      A
 Frequencies --    428.9196               447.9696               475.4966
 Red. masses --      2.7956                 2.7683                 2.4058
 Frc consts  --      0.3030                 0.3273                 0.3205
 IR Inten    --      0.0582                 0.1483                 0.1959

                     22                     23                     24
                      A                      A                      A
 Frequencies --    485.1111               516.7736               539.5184
 Red. masses --      2.8189                 2.0635                 2.0570
 Frc consts  --      0.3909                 0.3247                 0.3528
 IR Inten    --      0.0758                 0.0561                 0.0930

                     25                     26                     27
                      A                      A                      A
 Frequencies --    591.7244               762.4676               784.3548
 Red. masses --      2.0237                 1.2626                 2.0099
 Frc consts  --      0.4175                 0.4325                 0.7285
 IR Inten    --      0.0758                 9.3815                 0.7803

                     28                     29                     30
                      A                      A                      A
 Frequencies --    817.4517               831.8438               844.2821
 Red. masses --      2.0331                 2.1599                 1.7526
 Frc consts  --      0.8004                 0.8806                 0.7360
 IR Inten    --      0.7386                 0.8904                 0.6732

                     31                     32                     33
                      A                      A                      A
 Frequencies --    856.7525               864.1463               886.5937
 Red. masses --      1.7891                 1.7849                 2.1350
 Frc consts  --      0.7737                 0.7853                 0.9888
 IR Inten    --      0.4830                 0.3415                 1.2190

                     34                     35                     36
                      A                      A                      A
 Frequencies --    902.6956               923.3711               943.3410
 Red. masses --      1.5230                 1.7425                 1.7888
 Frc consts  --      0.7312                 0.8754                 0.9379
 IR Inten    --      0.1271                 1.2511                 1.1419

                     37                     38                     39
                      A                      A                      A
 Frequencies --    961.5936               966.6336               977.7419
 Red. masses --      1.9278                 1.4237                 1.9835
 Frc consts  --      1.0503                 0.7838                 1.1172
 IR Inten    --      0.7174                 3.2167                 0.9601

                     40                     41                     42
                      A                      A                      A
 Frequencies --    989.1923              1025.2901              1035.3650
 Red. masses --      1.8154                 2.1378                 1.8831
 Frc consts  --      1.0466                 1.3241                 1.1893
 IR Inten    --      1.5575                 1.2301                 0.3903

                     43                     44                     45
                      A                      A                      A
 Frequencies --   1054.3821              1061.6439              1064.0454
 Red. masses --      1.5421                 1.9018                 1.8040
 Frc consts  --      1.0101                 1.2629                 1.2034
 IR Inten    --      0.6581                 1.4252                 0.6699

                     46                     47                     48
                      A                      A                      A
 Frequencies --   1077.7436              1089.0083              1101.5864
 Red. masses --      1.8114                 1.5501                 1.9426
 Frc consts  --      1.2396                 1.0831                 1.3889
 IR Inten    --      0.3020                 0.0857                 0.2638

                     49                     50                     51
                      A                      A                      A
 Frequencies --   1108.6578              1120.4276              1124.4922
 Red. masses --      2.3789                 1.9707                 1.4914
 Frc consts  --      1.7227                 1.4576                 1.1111
 IR Inten    --      0.3521                 0.5592                 0.2882

                     52                     53                     54
                      A                      A                      A
 Frequencies --   1161.3749              1166.3907              1173.1774
 Red. masses --      2.2193                 1.8616                 1.9386
 Frc consts  --      1.7636                 1.4922                 1.5720
 IR Inten    --      1.7449                 0.5142                 0.8136

                     55                     56                     57
                      A                      A                      A
 Frequencies --   1193.8279              1203.5556              1235.1416
 Red. masses --      2.5564                 1.5630                 1.3863
 Frc consts  --      2.1466                 1.3340                 1.2461
 IR Inten    --      0.3165                 0.6831                 2.2795

                     58                     59                     60
                      A                      A                      A
 Frequencies --   1253.9739              1259.6471              1272.2790
 Red. masses --      1.3751                 1.3029                 1.3033
 Frc consts  --      1.2739                 1.2180                 1.2430
 IR Inten    --      1.7119                 0.2902                 3.9673

                     61                     62                     63
                      A                      A                      A
 Frequencies --   1289.0891              1301.0096              1315.7006
 Red. masses --      1.3085                 1.2418                 1.2689
 Frc consts  --      1.2811                 1.2384                 1.2941
 IR Inten    --      1.6678                 2.4252                 0.0133

                     64                     65                     66
                      A                      A                      A
 Frequencies --   1321.9106              1338.1037              1344.8629
 Red. masses --      1.3185                 1.2572                 1.2537
 Frc consts  --      1.3575                 1.3263                 1.3359
 IR Inten    --      0.7354                 0.5725                 5.4589

                     67                     68                     69
                      A                      A                      A
 Frequencies --   1349.8461              1353.1921              1377.5680
 Red. masses --      1.1944                 1.2188                 1.3045
 Frc consts  --      1.2823                 1.3150                 1.4585
 IR Inten    --      0.5257                 0.8286                 0.6285

                     70                     71                     72
                      A                      A                      A
 Frequencies --   1386.9936              1390.1205              1392.0362
 Red. masses --      1.3903                 1.3426                 1.3932
 Frc consts  --      1.5758                 1.5286                 1.5906
 IR Inten    --      2.0130                 5.1915                 0.3563

                     73                     74                     75
                      A                      A                      A
 Frequencies --   1397.2680              1402.1976              1403.8828
 Red. masses --      1.3667                 1.4738                 1.4700
 Frc consts  --      1.5721                 1.7073                 1.7070
 IR Inten    --      1.2969                 0.9660                 1.7757

                     76                     77                     78
                      A                      A                      A
 Frequencies --   1407.6220              1408.4258              1414.5069
 Red. masses --      1.4870                 1.4611                 1.4746
 Frc consts  --      1.7359                 1.7076                 1.7384
 IR Inten    --      1.3177                 1.6536                 0.5818

                     79                     80                     81
                      A                      A                      A
 Frequencies --   1417.2727              1419.8603              1440.1556
 Red. masses --      1.5729                 1.5696                 1.2322
 Frc consts  --      1.8615                 1.8644                 1.5057
 IR Inten    --      0.8641                 0.7280                 2.7387

                     82                     83                     84
                      A                      A                      A
 Frequencies --   1443.2570              1510.5279              1515.0457
 Red. masses --      1.2559                 1.0849                 1.0873
 Frc consts  --      1.5413                 1.4585                 1.4705
 IR Inten    --      7.1049                 2.1380                 0.1540

                     85                     86                     87
                      A                      A                      A
 Frequencies --   1515.1596              1517.2386              1518.1668
 Red. masses --      1.0763                 1.0827                 1.0805
 Frc consts  --      1.4558                 1.4685                 1.4673
 IR Inten    --      4.2037                 3.2000                 1.0344

                     88                     89                     90
                      A                      A                      A
 Frequencies --   1519.7509              1524.7705              1525.4069
 Red. masses --      1.0748                 1.0787                 1.0822
 Frc consts  --      1.4626                 1.4775                 1.4837
 IR Inten    --      1.8564                 6.9604                 0.4839

                     91                     92                     93
                      A                      A                      A
 Frequencies --   1530.2972              1532.3442              1533.7826
 Red. masses --      1.0562                 1.0631                 1.0988
 Frc consts  --      1.4572                 1.4707                 1.5230
 IR Inten    --      7.0457                 2.4061                 0.9441

                     94                     95                     96
                      A                      A                      A
 Frequencies --   1538.3580              1550.3233              2968.9911
 Red. masses --      1.0645                 1.0664                 1.0790
 Frc consts  --      1.4843                 1.5102                 5.6039
 IR Inten    --      3.6503                13.1701                 0.8839

                     97                     98                     99
                      A                      A                      A
 Frequencies --   2978.1596              2985.8879              2997.5987
 Red. masses --      1.0810                 1.0813                 1.0827
 Frc consts  --      5.6488                 5.6800                 5.7321
 IR Inten    --      5.4240                 2.6195                20.7459

                    100                    101                    102
                      A                      A                      A
 Frequencies --   3012.5392              3014.9719              3017.2047
 Red. masses --      1.0662                 1.0659                 1.0707
 Frc consts  --      5.7011                 5.7085                 5.7430
 IR Inten    --      3.3902                25.9626                 8.2871

                    103                    104                    105
                      A                      A                      A
 Frequencies --   3020.9971              3021.9612              3026.5899
 Red. masses --      1.0637                 1.0672                 1.0650
 Frc consts  --      5.7197                 5.7424                 5.7480
 IR Inten    --     64.2149                22.4520                32.1590

                    106                    107                    108
                      A                      A                      A
 Frequencies --   3027.2953              3037.3696              3044.8639
 Red. masses --      1.0638                 1.0612                 1.0415
 Frc consts  --      5.7441                 5.7680                 5.6893
 IR Inten    --     63.4845                22.5489                40.7554

                    109                    110                    111
                      A                      A                      A
 Frequencies --   3045.7407              3050.2244              3057.3042
 Red. masses --      1.0421                 1.0634                 1.0966
 Frc consts  --      5.6954                 5.8295                 6.0389
 IR Inten    --     31.1841                20.9701                 8.2841

                    112                    113                    114
                      A                      A                      A
 Frequencies --   3062.2130              3065.8720              3069.4096
 Red. masses --      1.0971                 1.1011                 1.0971
 Frc consts  --      6.0612                 6.0982                 6.0901
 IR Inten    --     71.9668                87.0280                33.2921

                    115                    116                    117
                      A                      A                      A
 Frequencies --   3069.7791              3074.6633              3076.4503
 Red. masses --      1.0953                 1.1029                 1.0975
 Frc consts  --      6.0810                 6.1430                 6.1199
 IR Inten    --     74.9644                58.4908                47.3877

                    118                    119                    120
                      A                      A                      A
 Frequencies --   3088.7888              3096.1446              3102.7682
 Red. masses --      1.0940                 1.0929                 1.1007
 Frc consts  --      6.1496                 6.1726                 6.2436
 IR Inten    --     77.1951                27.5949                57.7577

                    121                    122                    123
                      A                      A                      A
 Frequencies --   3110.0640              3118.7404              3138.8693
 Red. masses --      1.1017                 1.1010                 1.0959
 Frc consts  --      6.2782                 6.3096                 6.3619
 IR Inten    --     49.0299                65.3214                33.6586

 - Thermochemistry -
 -------------------
 Temperature   298.150 Kelvin.  Pressure   1.00000 Atm.
 Atom     1 has atomic number  6 and mass  12.00000

 Molecular mass:   208.21910 amu.
 Principal axes and moments of inertia in atomic units:
                           1         2         3
     Eigenvalues --  2055.715934711.424946340.25221
           X            1.00000   0.00169  -0.00067
           Y           -0.00169   1.00000  -0.00113
           Z            0.00067   0.00113   1.00000
 This molecule is an asymmetric top.
 Rotational symmetry number  1.
 Warning -- assumption of classical behavior for rotation
           may cause significant error
 Rotational temperatures (Kelvin)      0.04213     0.01838     0.01366
 Rotational constants (GHZ):           0.87791     0.38306     0.28465
 Zero-point vibrational energy    1072633.7 (Joules/Mol)
                                  256.36561 (Kcal/Mol)
 Warning -- explicit consideration of  25 degrees of freedom as
           vibrations may cause significant error
 Vibrational temperatures:     61.37    98.65   118.95   143.78   192.07
          (Kelvin)            230.58   244.38   313.33   333.14   355.75
                              383.93   407.19   463.89   491.07   525.18
                              530.23   576.32   605.95   617.12   644.53
                              684.13   697.97   743.52   776.25   851.36
                             1097.02  1128.51  1176.13  1196.84  1214.73
                             1232.68  1243.31  1275.61  1298.78  1328.53
                             1357.26  1383.52  1390.77  1406.75  1423.23
                             1475.16  1489.66  1517.02  1527.47  1530.92
                             1550.63  1566.84  1584.94  1595.11  1612.05
                             1617.89  1670.96  1678.18  1687.94  1717.65
                             1731.65  1777.09  1804.19  1812.35  1830.53
                             1854.71  1871.86  1893.00  1901.93  1925.23
                             1934.96  1942.13  1946.94  1982.01  1995.57
                             2000.07  2002.83  2010.36  2017.45  2019.87
                             2025.25  2026.41  2035.16  2039.14  2042.86
                             2072.06  2076.52  2173.31  2179.81  2179.98
                             2182.97  2184.30  2186.58  2193.80  2194.72
                             2201.76  2204.70  2206.77  2213.35  2230.57
                             4271.72  4284.91  4296.03  4312.88  4334.37
                             4337.87  4341.08  4346.54  4347.93  4354.59
                             4355.60  4370.10  4380.88  4382.14  4388.59
                             4398.78  4405.84  4411.11  4416.20  4416.73
                             4423.75  4426.33  4444.08  4454.66  4464.19
                             4474.69  4487.17  4516.13

 Zero-point correction=                           0.408545 (Hartree/Particle)
 Thermal correction to Energy=                    0.424086
 Thermal correction to Enthalpy=                  0.425030
 Thermal correction to Gibbs Free Energy=         0.366661
 Sum of electronic and zero-point Energies=           -588.164811
 Sum of electronic and thermal Energies=              -588.149269
 Sum of electronic and thermal Enthalpies=            -588.148325
 Sum of electronic and thermal Free Energies=         -588.206694

                     E (Thermal)             CV                S
                      KCal/Mol        Cal/Mol-Kelvin    Cal/Mol-Kelvin
 Total                  266.118             62.682            122.847
 Electronic               0.000              0.000              0.000
 Translational            0.889              2.981             41.904
 Rotational               0.889              2.981             32.485
 Vibrational            264.340             56.720             48.458
 Vibration     1          0.595              1.980              5.132
 Vibration     2          0.598              1.969              4.194
 Vibration     3          0.600              1.961              3.826
 Vibration     4          0.604              1.949              3.456
 Vibration     5          0.613              1.920              2.895
 Vibration     6          0.622              1.891              2.547
 Vibration     7          0.625              1.880              2.437
 Vibration     8          0.646              1.814              1.978
 Vibration     9          0.653              1.793              1.867
 Vibration    10          0.661              1.767              1.750
 Vibration    11          0.672              1.734              1.617
 Vibration    12          0.682              1.705              1.515
 Vibration    13          0.707              1.631              1.298
 Vibration    14          0.721              1.593              1.206
 Vibration    15          0.738              1.544              1.101
 Vibration    16          0.741              1.537              1.086
 Vibration    17          0.766              1.469              0.961
 Vibration    18          0.784              1.424              0.888
 Vibration    19          0.790              1.407              0.862
 Vibration    20          0.807              1.365              0.802
 Vibration    21          0.832              1.304              0.722
 Vibration    22          0.841              1.283              0.696
 Vibration    23          0.872              1.213              0.617
 Vibration    24          0.895              1.163              0.566
 Vibration    25          0.949              1.049              0.464

                           ! Non-Optimized Parameters !
 Normal termination of Gaussian 16 at Thu Dec 10 15:01:48 2020.

 ----------------------------------------------------------------------
 # B3LYP/6-311++G(d,p) empiricaldispersion=gd3bj scf=xqc pop=npa geom=c
 heck
 ----------------------------------------------------------------------

 --------------------------------------
 CID_58552480_JID_5028_Energie_neutraal
 --------------------------------------
 Structure from the checkpoint file:  "JID_5028.chk"
 Charge =  0 Multiplicity = 1

 SCF Done:  E(RB3LYP) =  -588.728713617     A.U. after   13 cycles
 Normal termination of Gaussian 16 at Thu Dec 10 15:12:33 2020.

 ----------------------------------------------------------------------
 # B3LYP/6-311++G(d,p) empiricaldispersion=gd3bj scf=xqc pop=npa geom=c
 heck
 ----------------------------------------------------------------------

 ------------------------------------
 CID_58552480_JID_5028_Energie_kation
 ------------------------------------
 Structure from the checkpoint file:  "JID_5028.chk"
 Charge =  1 Multiplicity = 2

 SCF Done:  E(UB3LYP) =  -588.393530683     A.U. after   33 cycles
 SCF Done:  E(UB3LYP) =  -588.393530705     a.u. after    2 cycles
 Normal termination of Gaussian 16 at Thu Dec 10 16:01:09 2020.
 Gaussian 16:  ES64L-G16RevA.03 25-Dec-2016

 ----------------------------------------------------------------------
 # B3LYP/6-311++G(d,p) empiricaldispersion=gd3bj scf=xqc pop=npa geom=c
 heck
 ----------------------------------------------------------------------

 -----------------------------------
 CID_58552480_JID_5028_Energie_anion
 -----------------------------------
 Structure from the checkpoint file:  "JID_5028.chk"
 Charge = -1 Multiplicity = 2

                         Standard orientation:
 ---------------------------------------------------------------------
 Center     Atomic      Atomic             Coordinates (Angstroms)
 Number     Number       Type             X           Y           Z
 ---------------------------------------------------------------------
      1          6           0        4.593356   -0.724474   -0.113633
      2          6           0        3.327552   -1.165862   -0.854210
      3          6           0        2.232436   -1.722161    0.069916
      4          6           0        1.502374   -0.660997    0.912486
      5          6           0        0.503759    0.223137    0.116370
      6          6           0        0.691973    1.731377    0.417980
      7          6           0       -0.370642    2.587152   -0.288682
      8          6           0       -1.793608    2.128532    0.016447
      9          6           0       -1.989620    0.657660   -0.353529
     10          6           0       -0.957855   -0.233005    0.369873
     11          6           0       -1.188439   -1.709478   -0.000763
     12          6           0       -2.625948   -2.166371    0.276542
     13          6           0       -3.644048   -1.275906   -0.441853
     14          6           0       -3.426686    0.194340   -0.073835
     15          6           0        2.083733    2.244880    0.027342
     16          1           0        4.384989    0.059648    0.622166
     17          1           0        5.343651   -0.330946   -0.808573
     18          1           0        5.043961   -1.567852    0.423972
     19          1           0        2.927973   -0.324768   -1.436021
     20          1           0        3.598761   -1.937797   -1.586297
     21          1           0        1.497125   -2.264814   -0.535709
     22          1           0        2.685932   -2.466990    0.739349
     23          1           0        0.961164   -1.162439    1.724773
     24          1           0        2.246751   -0.033917    1.414414
     25          1           0        0.700936    0.090474   -0.960194
     26          1           0        0.564987    1.866851    1.504535
     27          1           0       -0.236796    3.639768   -0.007100
     28          1           0       -0.199566    2.533891   -1.374812
     29          1           0       -2.002702    2.259800    1.088834
     30          1           0       -2.520944    2.750966   -0.521552
     31          1           0       -1.808324    0.554841   -1.437144
     32          1           0       -1.144361   -0.128529    1.453053
     33          1           0       -0.493027   -2.355779    0.544329
     34          1           0       -0.965929   -1.843312   -1.070369
     35          1           0       -2.812963   -2.126394    1.359704
     36          1           0       -2.751131   -3.214222   -0.024023
     37          1           0       -4.667790   -1.585476   -0.196921
     38          1           0       -3.529181   -1.398666   -1.528728
     39          1           0       -3.642357    0.336127    0.996111
     40          1           0       -4.130805    0.835865   -0.620098
     41          1           0        2.169763    3.317367    0.237507
     42          1           0        2.891462    1.739761    0.562997
     43          1           0        2.258399    2.103595   -1.046908
 ---------------------------------------------------------------------

 SCF Done:  E(UB3LYP) =  -588.710712774     A.U. after   33 cycles
 SCF Done:  E(UB3LYP) =  -588.710712773     a.u. after    1 cycles

 The electronic state is 2-A.
 Alpha  occ. eigenvalues --  -10.07680 -10.07432 -10.07331 -10.07234 -10.06810
 Alpha  occ. eigenvalues --  -10.06793 -10.06744 -10.06724 -10.06713 -10.06689
 Alpha  occ. eigenvalues --  -10.06646 -10.06590 -10.06555 -10.06246 -10.06172
 Alpha  occ. eigenvalues --   -0.76040  -0.71882  -0.70232  -0.67368  -0.65749
 Alpha  occ. eigenvalues --   -0.63241  -0.61271  -0.57838  -0.54422  -0.52417
 Alpha  occ. eigenvalues --   -0.49955  -0.49147  -0.46582  -0.46509  -0.45331
 Alpha  occ. eigenvalues --   -0.38551  -0.37073  -0.36344  -0.35666  -0.35551
 Alpha  occ. eigenvalues --   -0.34802  -0.34066  -0.32894  -0.32303  -0.31191
 Alpha  occ. eigenvalues --   -0.30381  -0.29663  -0.28285  -0.28207  -0.27350
 Alpha  occ. eigenvalues --   -0.26380  -0.26024  -0.25483  -0.24837  -0.24186
 Alpha  occ. eigenvalues --   -0.23912  -0.23716  -0.23174  -0.22678  -0.22179
 Alpha  occ. eigenvalues --   -0.21736  -0.21666  -0.18583  -0.18543   0.04423
 Alpha virt. eigenvalues --    0.05947   0.06337   0.06744   0.07674   0.07792
 Alpha virt. eigenvalues --    0.08395   0.09002   0.09196   0.09543   0.10072
 Alpha virt. eigenvalues --    0.10694   0.10851   0.11101   0.11744   0.12227

  Beta  occ. eigenvalues --  -10.07676 -10.07429 -10.07328 -10.07231 -10.06797
  Beta  occ. eigenvalues --  -10.06782 -10.06733 -10.06710 -10.06698 -10.06672
  Beta  occ. eigenvalues --  -10.06635 -10.06582 -10.06546 -10.06227 -10.06142
  Beta  occ. eigenvalues --   -0.76025  -0.71861  -0.70209  -0.67345  -0.65724
  Beta  occ. eigenvalues --   -0.63213  -0.61240  -0.57802  -0.54381  -0.52380
  Beta  occ. eigenvalues --   -0.49916  -0.49108  -0.46546  -0.46475  -0.45291
  Beta  occ. eigenvalues --   -0.38520  -0.37046  -0.36324  -0.35634  -0.35530
  Beta  occ. eigenvalues --   -0.34779  -0.34037  -0.32869  -0.32279  -0.31160
  Beta  occ. eigenvalues --   -0.30351  -0.29638  -0.28261  -0.28176  -0.27327
  Beta  occ. eigenvalues --   -0.26355  -0.25991  -0.25460  -0.24810  -0.24159
  Beta  occ. eigenvalues --   -0.23889  -0.23686  -0.23147  -0.22654  -0.22154
  Beta  occ. eigenvalues --   -0.21713  -0.21640  -0.18562  -0.18524
  Beta virt. eigenvalues --    0.06314   0.06825   0.06963   0.07021   0.08245
  Beta virt. eigenvalues --    0.08323   0.08715   0.09276   0.09421   0.10043
  Beta virt. eigenvalues --    0.10520   0.10929   0.11166   0.11407   0.11991

 Mulliken charges and spin densities:
               1          2
     1  C    1.275593  -1.889132
     2  C   -1.116793   0.961062
     3  C   -0.125897  -0.217907
     4  C    0.773503  -0.950907
     5  C    0.558976  -0.633691
     6  C   -1.225293   1.810682
     7  C    0.048650  -0.595446
     8  C   -0.201035  -0.300099
     9  C    0.178672   0.187864
    10  C    0.157091  -0.569116
    11  C   -0.364204   0.116294
    12  C    0.309175  -0.922520
    13  C    0.139983  -0.628607
    14  C   -0.153873  -0.111789
    15  C    0.480532  -1.229047
    16  H   -0.166036   0.294266
    17  H   -0.299782   0.435664
    18  H   -0.123362   0.254984
    19  H    0.019811   0.089933
    20  H   -0.350773   0.521501
    21  H   -0.137915   0.291948
    22  H   -0.162243   0.312587
    23  H    0.003932   0.172698
    24  H    0.253444  -0.125893
    25  H   -0.057266   0.267399
    26  H   -0.043360   0.233849
    27  H   -0.088979   0.246723
    28  H   -0.003996   0.135552
    29  H    0.042888   0.079459
    30  H   -0.152664   0.311703
    31  H    0.137695   0.045046
    32  H    0.103501   0.102361
    33  H    0.106214   0.046568
    34  H    0.075707   0.082507
    35  H    0.032575   0.086352
    36  H   -0.372660   0.551233
    37  H   -0.389341   0.569149
    38  H    0.022358   0.092725
    39  H    0.073591   0.056413
    40  H   -0.160186   0.317554
    41  H   -0.213732   0.373053
    42  H   -0.004613   0.099117
    43  H    0.120113   0.027906
 Sum of Mulliken charges =  -1.00000   1.00000

 Dipole moment (field-independent basis, Debye):
    X=             -1.5131    Y=              1.7794    Z=              1.1692  Tot=              2.6120
 Quadrupole moment (field-independent basis, Debye-Ang):
   XX=           -200.8312   YY=           -160.5882   ZZ=           -129.2048
   XY=             -2.1431   XZ=              0.4443   YZ=             -1.5617

 Summary of Natural Population Analysis:

                                       Natural Population
                Natural  -----------------------------------------------
    Atom  No    Charge         Core      Valence    Rydberg      Total
 -----------------------------------------------------------------------
      C    1   -0.28505      0.99966     2.28027    0.00511     3.28505
      C    2   -0.19207      0.99964     2.18460    0.00783     3.19207
      C    3   -0.18811      0.99962     2.18000    0.00849     3.18811
      C    4   -0.19109      0.99961     2.18283    0.00864     3.19109
      C    5   -0.10717      0.99956     2.09707    0.01054     3.10717
      C    6   -0.10500      0.99958     2.09656    0.00886     3.10500
      C    7   -0.18490      0.99961     2.17653    0.00876     3.18490
      C    8   -0.18459      0.99961     2.17620    0.00879     3.18459
      C    9   -0.10714      0.99957     2.09811    0.00947     3.10714
      C   10   -0.10012      0.99956     2.09114    0.00942     3.10012
      C   11   -0.18964      0.99961     2.18091    0.00912     3.18964
      C   12   -0.18648      0.99963     2.17823    0.00862     3.18648
      C   13   -0.18782      0.99963     2.18003    0.00816     3.18782
      C   14   -0.18549      0.99961     2.17656    0.00932     3.18549
      C   15   -0.28291      0.99965     2.27741    0.00585     3.28291
      H   16    0.09430      0.00000     0.40451    0.00119     0.40570
      H   17    0.09914      0.00000     0.39980    0.00106     0.40086
      H   18    0.09548      0.00000     0.40335    0.00117     0.40452
      H   19    0.09367      0.00000     0.40492    0.00141     0.40633
      H   20    0.09547      0.00000     0.40342    0.00111     0.40453
      H   21    0.09757      0.00000     0.40089    0.00153     0.40243
      H   22    0.09463      0.00000     0.40433    0.00104     0.40537
      H   23    0.09755      0.00000     0.40140    0.00105     0.40245
      H   24    0.09785      0.00000     0.40085    0.00130     0.40215
      H   25    0.09276      0.00000     0.40516    0.00208     0.40724
      H   26    0.09102      0.00000     0.40740    0.00158     0.40898
      H   27    0.09841      0.00000     0.40065    0.00094     0.40159
      H   28    0.09292      0.00000     0.40584    0.00124     0.40708
      H   29    0.09260      0.00000     0.40614    0.00126     0.40740
      H   30    0.09839      0.00000     0.40065    0.00096     0.40161
      H   31    0.09211      0.00000     0.40611    0.00178     0.40789
      H   32    0.09164      0.00000     0.40659    0.00177     0.40836
      H   33    0.10086      0.00000     0.39798    0.00116     0.39914
      H   34    0.09372      0.00000     0.40488    0.00140     0.40628
      H   35    0.09146      0.00000     0.40736    0.00119     0.40854
      H   36    0.09932      0.00000     0.39960    0.00108     0.40068
      H   37    0.09866      0.00000     0.40010    0.00124     0.40134
      H   38    0.09231      0.00000     0.40643    0.00126     0.40769
      H   39    0.09221      0.00000     0.40651    0.00127     0.40779
      H   40    0.09881      0.00000     0.40014    0.00105     0.40119
      H   41    0.09903      0.00000     0.40005    0.00091     0.40097
      H   42    0.09945      0.00000     0.39954    0.00100     0.40055
      H   43    0.09626      0.00000     0.40264    0.00110     0.40374
 =======================================================================
   * Total *   -0.00000     14.99414    43.84374    0.16212    59.00000

 Normal termination of Gaussian 16 at Thu Dec 10 16:34:39 2020.
