 Gaussian 16, Revision A.03,

 -----------------------------------------------------------
 # opt freq B3LYP/6-31G(d) empiricaldispersion=gd3bj scf=xqc
 -----------------------------------------------------------

 -------------------------------
 CID_116330692_JID_5158_neutraal
 -------------------------------
 Symbolic Z-matrix:
 Charge =  0 Multiplicity = 1

 SCF Done:  E(RB3LYP) =  -635.446286800     A.U. after   14 cycles
 SCF Done:  E(RB3LYP) =  -635.450196050     A.U. after   12 cycles
 SCF Done:  E(RB3LYP) =  -635.451187062     A.U. after   12 cycles
 SCF Done:  E(RB3LYP) =  -635.451422818     A.U. after   11 cycles
 SCF Done:  E(RB3LYP) =  -635.451474550     A.U. after   10 cycles
 SCF Done:  E(RB3LYP) =  -635.451516934     A.U. after   10 cycles
 SCF Done:  E(RB3LYP) =  -635.451531996     A.U. after    9 cycles
 SCF Done:  E(RB3LYP) =  -635.451542811     A.U. after   10 cycles
 SCF Done:  E(RB3LYP) =  -635.451551018     A.U. after   10 cycles
 SCF Done:  E(RB3LYP) =  -635.451558365     A.U. after   10 cycles
 SCF Done:  E(RB3LYP) =  -635.451562003     A.U. after    9 cycles
 SCF Done:  E(RB3LYP) =  -635.451563370     A.U. after    9 cycles
 SCF Done:  E(RB3LYP) =  -635.451564669     A.U. after    9 cycles
 SCF Done:  E(RB3LYP) =  -635.451565039     A.U. after    8 cycles
 SCF Done:  E(RB3LYP) =  -635.451565097     A.U. after    7 cycles
 Optimization completed.
    -- Stationary point found.
 Normal termination of Gaussian 16 at Thu Dec 10 14:51:33 2020.

 --------------------------------------------------------------------
 #N Geom=AllCheck Guess=TCheck SCRF=Check GenChk RB3LYP/6-31G(d) Freq
 --------------------------------------------------------------------

 Structure from the checkpoint file:  "JID_5158.chk"
 -------------------------------
 CID_116330692_JID_5158_neutraal
 -------------------------------
 Charge =  0 Multiplicity = 1

 SCF Done:  E(RB3LYP) =  -635.451565097     A.U. after    1 cycles

  Exact polarizability: 179.779   8.246 130.423  -2.548  10.280 118.649
 Approx polarizability: 219.426   7.266 193.493  -7.283  24.237 185.270

                      1                      2                      3
                      A                      A                      A
 Frequencies --     20.4224                29.2887                54.4232
 Red. masses --      3.4066                 3.9970                 3.1128
 Frc consts  --      0.0008                 0.0020                 0.0054
 IR Inten    --      0.6902                 1.1403                 1.7251

                      4                      5                      6
                      A                      A                      A
 Frequencies --     62.9918                86.4724                98.1807
 Red. masses --      3.3452                 3.2427                 2.9544
 Frc consts  --      0.0078                 0.0143                 0.0168
 IR Inten    --      2.2352                 0.7922                 0.5135

                      7                      8                      9
                      A                      A                      A
 Frequencies --    129.3828               189.2749               204.3157
 Red. masses --      3.7501                 2.8713                 1.4206
 Frc consts  --      0.0370                 0.0606                 0.0349
 IR Inten    --      1.9656                 2.6777                 0.2116

                     10                     11                     12
                      A                      A                      A
 Frequencies --    230.9196               241.1765               248.1328
 Red. masses --      1.3087                 1.9596                 1.1349
 Frc consts  --      0.0411                 0.0672                 0.0412
 IR Inten    --      0.5274                 1.0562                 0.5164

                     13                     14                     15
                      A                      A                      A
 Frequencies --    265.0199               283.2396               291.2968
 Red. masses --      1.6138                 1.6680                 2.1806
 Frc consts  --      0.0668                 0.0788                 0.1090
 IR Inten    --      5.8426                 1.2018                 2.1522

                     16                     17                     18
                      A                      A                      A
 Frequencies --    300.3788               318.8155               382.2650
 Red. masses --      2.0069                 2.5573                 2.1932
 Frc consts  --      0.1067                 0.1531                 0.1888
 IR Inten    --      0.4873                 1.1938                 1.2488

                     19                     20                     21
                      A                      A                      A
 Frequencies --    422.8712               430.8119               446.3358
 Red. masses --      1.9895                 2.5951                 2.4966
 Frc consts  --      0.2096                 0.2838                 0.2930
 IR Inten    --      0.5095                 0.6201                 1.0279

                     22                     23                     24
                      A                      A                      A
 Frequencies --    467.9153               495.0207               578.2338
 Red. masses --      2.3081                 2.6948                 2.8755
 Frc consts  --      0.2977                 0.3891                 0.5665
 IR Inten    --      5.6933                 4.4378                 3.1501

                     25                     26                     27
                      A                      A                      A
 Frequencies --    602.5240               674.5095               684.5739
 Red. masses --      2.3977                 2.4765                 1.9256
 Frc consts  --      0.5129                 0.6638                 0.5317
 IR Inten    --     19.0815                32.7755                13.0990

                     28                     29                     30
                      A                      A                      A
 Frequencies --    721.3343               754.8025               766.0649
 Red. masses --      1.2729                 2.4237                 2.3236
 Frc consts  --      0.3902                 0.8136                 0.8034
 IR Inten    --     39.2415                 6.3776                 9.7440

                     31                     32                     33
                      A                      A                      A
 Frequencies --    787.6535               827.9048               846.5418
 Red. masses --      2.1323                 1.9001                 1.2641
 Frc consts  --      0.7794                 0.7674                 0.5337
 IR Inten    --     43.9633                11.1718                13.9278

                     34                     35                     36
                      A                      A                      A
 Frequencies --    898.0679               906.6216               915.9066
 Red. masses --      1.6920                 1.3996                 1.9043
 Frc consts  --      0.8040                 0.6778                 0.9412
 IR Inten    --      6.0555                 5.3411                 1.2738

                     37                     38                     39
                      A                      A                      A
 Frequencies --    939.9237               941.8858               960.5416
 Red. masses --      4.0038                 1.3185                 1.5849
 Frc consts  --      2.0841                 0.6892                 0.8616
 IR Inten    --      4.3346                 3.6341                 0.4221

                     40                     41                     42
                      A                      A                      A
 Frequencies --    976.9075               984.0844               994.0783
 Red. masses --      1.5978                 1.8734                 2.0067
 Frc consts  --      0.8984                 1.0689                 1.1684
 IR Inten    --      0.0287                 1.4192                 4.6369

                     43                     44                     45
                      A                      A                      A
 Frequencies --   1038.7171              1061.7398              1079.8715
 Red. masses --      1.7143                 1.6529                 1.5374
 Frc consts  --      1.0898                 1.0979                 1.0563
 IR Inten    --      3.4777                 2.0683                40.5767

                     46                     47                     48
                      A                      A                      A
 Frequencies --   1090.5734              1099.3016              1110.1614
 Red. masses --      1.9400                 1.8939                 2.1823
 Frc consts  --      1.3594                 1.3485                 1.5847
 IR Inten    --     15.7716                 9.9092                 1.4385

                     49                     50                     51
                      A                      A                      A
 Frequencies --   1142.1314              1162.6372              1171.8994
 Red. masses --      1.9989                 2.5645                 2.0122
 Frc consts  --      1.5363                 2.0424                 1.6282
 IR Inten    --      6.4738                86.5773                 2.3758

                     52                     53                     54
                      A                      A                      A
 Frequencies --   1185.3496              1193.5325              1205.2263
 Red. masses --      2.3644                 2.2455                 1.8250
 Frc consts  --      1.9574                 1.8846                 1.5619
 IR Inten    --      0.4778                33.5577                 7.8113

                     55                     56                     57
                      A                      A                      A
 Frequencies --   1215.4774              1260.2837              1261.2849
 Red. masses --      2.0214                 1.3930                 1.8848
 Frc consts  --      1.7595                 1.3036                 1.7666
 IR Inten    --      6.0617                 9.1681                17.1096

                     58                     59                     60
                      A                      A                      A
 Frequencies --   1290.5228              1325.7841              1349.3709
 Red. masses --      1.4161                 1.3557                 1.2917
 Frc consts  --      1.3896                 1.4040                 1.3857
 IR Inten    --      4.5635                35.1357                 3.2802

                     61                     62                     63
                      A                      A                      A
 Frequencies --   1361.6080              1367.3418              1384.4375
 Red. masses --      1.4531                 1.2546                 1.3748
 Frc consts  --      1.5873                 1.3820                 1.5525
 IR Inten    --     29.5754                 2.4560                 7.5489

                     64                     65                     66
                      A                      A                      A
 Frequencies --   1393.3624              1407.4899              1415.5214
 Red. masses --      1.3258                 2.8955                 1.4643
 Frc consts  --      1.5165                 3.3796                 1.7287
 IR Inten    --      3.0943                 6.5629                 0.1180

                     67                     68                     69
                      A                      A                      A
 Frequencies --   1423.1194              1429.6475              1432.1792
 Red. masses --      1.3001                 1.2727                 1.3136
 Frc consts  --      1.5514                 1.5326                 1.5874
 IR Inten    --      2.3322                 8.6332                11.8942

                     70                     71                     72
                      A                      A                      A
 Frequencies --   1440.8247              1450.8175              1473.8785
 Red. masses --      1.2664                 1.2380                 4.2140
 Frc consts  --      1.5490                 1.5353                 5.3935
 IR Inten    --      9.3141                 8.1758                18.2431

                     73                     74                     75
                      A                      A                      A
 Frequencies --   1501.3344              1507.8083              1510.6342
 Red. masses --      1.1986                 1.1629                 1.5925
 Frc consts  --      1.5917                 1.5577                 2.1412
 IR Inten    --     33.8057                 0.2407                 2.2010

                     76                     77                     78
                      A                      A                      A
 Frequencies --   1515.4579              1522.1640              1523.8598
 Red. masses --      1.0651                 1.3174                 1.1299
 Frc consts  --      1.4412                 1.7985                 1.5460
 IR Inten    --      0.8225                 7.9979                 2.9398

                     79                     80                     81
                      A                      A                      A
 Frequencies --   1526.4302              1527.5941              1533.0187
 Red. masses --      1.0659                 1.1597                 1.0744
 Frc consts  --      1.4633                 1.5945                 1.4877
 IR Inten    --      6.0574                 6.1201                 1.9600

                     82                     83                     84
                      A                      A                      A
 Frequencies --   1536.1768              1538.7387              1544.1836
 Red. masses --      1.0593                 1.0684                 1.0505
 Frc consts  --      1.4729                 1.4904                 1.4759
 IR Inten    --      1.5591                 9.1538                 4.3203

                     85                     86                     87
                      A                      A                      A
 Frequencies --   1591.3964              3010.1541              3012.3570
 Red. masses --      4.5479                 1.0824                 1.0799
 Frc consts  --      6.7860                 5.7788                 5.7738
 IR Inten    --     33.0413                12.7570                14.7463

                     88                     89                     90
                      A                      A                      A
 Frequencies --   3023.5310              3033.9840              3036.8362
 Red. masses --      1.0658                 1.0627                 1.0365
 Frc consts  --      5.7404                 5.7633                 5.6318
 IR Inten    --     27.2418                27.8734                35.1629

                     91                     92                     93
                      A                      A                      A
 Frequencies --   3041.8376              3043.3053              3053.3645
 Red. masses --      1.0508                 1.0410                 1.0729
 Frc consts  --      5.7285                 5.6804                 5.8936
 IR Inten    --     10.9594                31.7494                29.8689

                     94                     95                     96
                      A                      A                      A
 Frequencies --   3057.2670              3058.9483              3087.1812
 Red. masses --      1.0375                 1.0996                 1.0974
 Frc consts  --      5.7133                 6.0623                 6.1621
 IR Inten    --     22.7183                19.2536                56.6026

                     97                     98                     99
                      A                      A                      A
 Frequencies --   3100.3363              3106.0596              3110.5187
 Red. masses --      1.1012                 1.1009                 1.1018
 Frc consts  --      6.2363                 6.2575                 6.2809
 IR Inten    --     12.2870                52.7968                42.2732

                    100                    101                    102
                      A                      A                      A
 Frequencies --   3111.4387              3117.5246              3125.9662
 Red. masses --      1.0954                 1.1010                 1.1018
 Frc consts  --      6.2481                 6.3048                 6.3433
 IR Inten    --     44.3482                46.3750                43.2065

                    103                    104                    105
                      A                      A                      A
 Frequencies --   3139.5077              3149.9020              3258.1122
 Red. masses --      1.1004                 1.1016                 1.0925
 Frc consts  --      6.3906                 6.4395                 6.8328
 IR Inten    --     35.0504                11.2300                11.6100

                    106                    107                    108
                      A                      A                      A
 Frequencies --   3292.3928              3475.2507              3639.9800
 Red. masses --      1.1028                 1.0736                 1.0803
 Frc consts  --      7.0431                 7.6393                 8.4332
 IR Inten    --      6.7234                 0.2457                72.8144

 - Thermochemistry -
 -------------------
 Temperature   298.150 Kelvin.  Pressure   1.00000 Atm.
 Atom     1 has atomic number  6 and mass  12.00000

 Molecular mass:   209.18920 amu.
 Principal axes and moments of inertia in atomic units:
                           1         2         3
     Eigenvalues --  1460.729017712.671828164.27700
           X            0.99998  -0.00570   0.00370
           Y            0.00573   0.99996  -0.00726
           Z           -0.00366   0.00728   0.99997
 This molecule is an asymmetric top.
 Rotational symmetry number  1.
 Warning -- assumption of classical behavior for rotation
           may cause significant error
 Rotational temperatures (Kelvin)      0.05929     0.01123     0.01061
 Rotational constants (GHZ):           1.23551     0.23400     0.22105
 Zero-point vibrational energy     907067.0 (Joules/Mol)
                                  216.79421 (Kcal/Mol)
 Warning -- explicit consideration of  25 degrees of freedom as
           vibrations may cause significant error
 Vibrational temperatures:     29.38    42.14    78.30    90.63   124.41
          (Kelvin)            141.26   186.15   272.32   293.96   332.24
                              347.00   357.01   381.30   407.52   419.11
                              432.18   458.70   549.99   608.42   619.84
                              642.18   673.23   712.22   831.95   866.90
                              970.47   984.95  1037.84  1085.99  1102.20
                             1133.26  1191.17  1217.98  1292.12  1304.43
                             1317.79  1352.34  1355.16  1382.01  1405.55
                             1415.88  1430.26  1494.48  1527.61  1553.69
                             1569.09  1581.65  1597.27  1643.27  1672.78
                             1686.10  1705.45  1717.23  1734.05  1748.80
                             1813.27  1814.71  1856.77  1907.51  1941.44
                             1959.05  1967.30  1991.90  2004.74  2025.06
                             2036.62  2047.55  2056.94  2060.59  2073.03
                             2087.40  2120.58  2160.09  2169.40  2173.47
                             2180.41  2190.05  2192.49  2196.19  2197.87
                             2205.67  2210.22  2213.90  2221.74  2289.66
                             4330.94  4334.11  4350.19  4365.23  4369.33
                             4376.53  4378.64  4393.11  4398.73  4401.14
                             4441.77  4460.69  4468.93  4475.34  4476.67
                             4485.42  4497.57  4517.05  4532.01  4687.70
                             4737.02  5000.11  5237.12

 Zero-point correction=                           0.345484 (Hartree/Particle)
 Thermal correction to Energy=                    0.362310
 Thermal correction to Enthalpy=                  0.363254
 Thermal correction to Gibbs Free Energy=         0.299715
 Sum of electronic and zero-point Energies=           -635.106082
 Sum of electronic and thermal Energies=              -635.089256
 Sum of electronic and thermal Enthalpies=            -635.088311
 Sum of electronic and thermal Free Energies=         -635.151850

                     E (Thermal)             CV                S
                      KCal/Mol        Cal/Mol-Kelvin    Cal/Mol-Kelvin
 Total                  227.353             63.513            133.728
 Electronic               0.000              0.000              0.000
 Translational            0.889              2.981             41.918
 Rotational               0.889              2.981             32.886
 Vibrational            225.575             57.551             58.924
 Vibration     1          0.593              1.986              6.593
 Vibration     2          0.593              1.984              5.877
 Vibration     3          0.596              1.976              4.650
 Vibration     4          0.597              1.972              4.361
 Vibration     5          0.601              1.959              3.738
 Vibration     6          0.604              1.950              3.490
 Vibration     7          0.612              1.924              2.955
 Vibration     8          0.633              1.855              2.235
 Vibration     9          0.640              1.834              2.094
 Vibration    10          0.653              1.794              1.872
 Vibration    11          0.658              1.777              1.794
 Vibration    12          0.662              1.766              1.744
 Vibration    13          0.671              1.737              1.628
 Vibration    14          0.682              1.705              1.514
 Vibration    15          0.687              1.690              1.466
 Vibration    16          0.693              1.673              1.415
 Vibration    17          0.705              1.638              1.316
 Vibration    18          0.752              1.508              1.030
 Vibration    19          0.785              1.421              0.882
 Vibration    20          0.792              1.403              0.856
 Vibration    21          0.806              1.369              0.807
 Vibration    22          0.825              1.321              0.743
 Vibration    23          0.851              1.261              0.671
 Vibration    24          0.935              1.078              0.489
 Vibration    25          0.961              1.026              0.445

 Optimization completed.
    -- Stationary point found.
 Normal termination of Gaussian 16 at Thu Dec 10 15:02:50 2020.

 ----------------------------------------------------------------------
 # B3LYP/6-311++G(d,p) empiricaldispersion=gd3bj scf=xqc pop=npa geom=c
 heck
 ----------------------------------------------------------------------

 ---------------------------------------
 CID_116330692_JID_5158_Energie_neutraal
 ---------------------------------------
 Structure from the checkpoint file:  "JID_5158.chk"
 Charge =  0 Multiplicity = 1

 SCF Done:  E(RB3LYP) =  -635.632650726     A.U. after   14 cycles
 Normal termination of Gaussian 16 at Thu Dec 10 15:09:25 2020.

 ----------------------------------------------------------------------
 # B3LYP/6-311++G(d,p) empiricaldispersion=gd3bj scf=xqc pop=npa geom=c
 heck
 ----------------------------------------------------------------------

 -------------------------------------
 CID_116330692_JID_5158_Energie_kation
 -------------------------------------
 Structure from the checkpoint file:  "JID_5158.chk"
 Charge =  1 Multiplicity = 2

 SCF Done:  E(UB3LYP) =  -635.341419146     A.U. after   19 cycles
 Normal termination of Gaussian 16 at Thu Dec 10 15:21:31 2020.
 Gaussian 16:  ES64L-G16RevA.03 25-Dec-2016

 ----------------------------------------------------------------------
 # B3LYP/6-311++G(d,p) empiricaldispersion=gd3bj scf=xqc pop=npa geom=c
 heck
 ----------------------------------------------------------------------

 ------------------------------------
 CID_116330692_JID_5158_Energie_anion
 ------------------------------------
 Structure from the checkpoint file:  "JID_5158.chk"
 Charge = -1 Multiplicity = 2

                         Standard orientation:
 ---------------------------------------------------------------------
 Center     Atomic      Atomic             Coordinates (Angstroms)
 Number     Number       Type             X           Y           Z
 ---------------------------------------------------------------------
      1          6           0        3.238024   -1.550513    1.315766
      2          6           0        3.712202   -0.346479    0.492330
      3          6           0        5.243158   -0.255927    0.498338
      4          6           0        3.189527   -0.389167   -0.955604
      5          6           0        1.663548   -0.457184   -1.111646
      6          6           0        0.867115    0.660675   -0.415762
      7          6           0        1.280652    2.054357   -0.907133
      8          7           0       -0.571279    0.390281   -0.602650
      9          6           0       -1.449167    0.621543    0.555211
     10          6           0       -1.669390    2.082540    0.969463
     11          6           0       -2.762545   -0.060089    0.274060
     12          7           0       -3.944747    0.224543    0.789439
     13          6           0       -4.809596   -0.713321    0.263450
     14          6           0       -4.142891   -1.570013   -0.579135
     15          7           0       -2.832847   -1.139388   -0.559236
     16          1           0        3.565798   -2.490029    0.852008
     17          1           0        2.146953   -1.585948    1.403302
     18          1           0        3.651374   -1.518265    2.330317
     19          1           0        3.325616    0.564752    0.972328
     20          1           0        5.686880   -1.148984    0.039650
     21          1           0        5.593223    0.616675   -0.065715
     22          1           0        5.633810   -0.176892    1.519426
     23          1           0        3.577094    0.486051   -1.493752
     24          1           0        3.627553   -1.264881   -1.456075
     25          1           0        1.412484   -0.438553   -2.181763
     26          1           0        1.286299   -1.413544   -0.731843
     27          1           0        1.059318    0.602308    0.662833
     28          1           0        1.132373    2.135188   -1.992387
     29          1           0        0.689982    2.838506   -0.425520
     30          1           0        2.337675    2.256098   -0.704751
     31          1           0       -0.921383    0.926175   -1.396322
     32          1           0       -0.970803    0.097366    1.396163
     33          1           0       -2.040505    2.668517    0.120767
     34          1           0       -2.418879    2.137415    1.763314
     35          1           0       -0.737360    2.531202    1.326542
     36          1           0       -5.860546   -0.713822    0.519081
     37          1           0       -4.465796   -2.408682   -1.176967
     38          1           0       -2.032869   -1.487239   -1.069544
 ---------------------------------------------------------------------

 SCF Done:  E(UB3LYP) =  -635.620541982     A.U. after   32 cycles

 The electronic state is 2-A.
 Alpha  occ. eigenvalues --  -14.26630 -14.20946 -14.19857 -10.13088 -10.12363
 Alpha  occ. eigenvalues --  -10.10838 -10.10472 -10.09082 -10.08051 -10.06989
 Alpha  occ. eigenvalues --  -10.06802 -10.06771 -10.06568 -10.06463 -10.06444
 Alpha  occ. eigenvalues --   -0.92125  -0.82363  -0.77470  -0.72513  -0.69743
 Alpha  occ. eigenvalues --   -0.65376  -0.63025  -0.61806  -0.59266  -0.55675
 Alpha  occ. eigenvalues --   -0.53920  -0.51270  -0.49919  -0.48827  -0.46016
 Alpha  occ. eigenvalues --   -0.43884  -0.39304  -0.38628  -0.37157  -0.35459
 Alpha  occ. eigenvalues --   -0.34972  -0.34437  -0.34244  -0.33498  -0.32591
 Alpha  occ. eigenvalues --   -0.32052  -0.31792  -0.29894  -0.29474  -0.29331
 Alpha  occ. eigenvalues --   -0.28753  -0.28248  -0.26828  -0.26288  -0.25139
 Alpha  occ. eigenvalues --   -0.24604  -0.22974  -0.22550  -0.21725  -0.19089
 Alpha  occ. eigenvalues --   -0.18325  -0.14487  -0.13282   0.04041
 Alpha virt. eigenvalues --    0.05741   0.06697   0.06965   0.07503   0.08384
 Alpha virt. eigenvalues --    0.08832   0.09112   0.09383   0.09761   0.10045
 Alpha virt. eigenvalues --    0.10588   0.11354   0.11479   0.11761   0.12262

  Beta  occ. eigenvalues --  -14.26607 -14.20933 -14.19853 -10.13087 -10.12357
  Beta  occ. eigenvalues --  -10.10833 -10.10453 -10.09081 -10.08043 -10.06977
  Beta  occ. eigenvalues --  -10.06786 -10.06742 -10.06542 -10.06439 -10.06424
  Beta  occ. eigenvalues --   -0.92104  -0.82343  -0.77441  -0.72487  -0.69722
  Beta  occ. eigenvalues --   -0.65347  -0.62999  -0.61762  -0.59215  -0.55628
  Beta  occ. eigenvalues --   -0.53880  -0.51236  -0.49869  -0.48790  -0.45969
  Beta  occ. eigenvalues --   -0.43843  -0.39274  -0.38592  -0.37121  -0.35425
  Beta  occ. eigenvalues --   -0.34944  -0.34405  -0.34214  -0.33472  -0.32567
  Beta  occ. eigenvalues --   -0.32031  -0.31757  -0.29868  -0.29446  -0.29303
  Beta  occ. eigenvalues --   -0.28727  -0.28222  -0.26800  -0.26256  -0.25105
  Beta  occ. eigenvalues --   -0.24574  -0.22937  -0.22516  -0.21693  -0.19066
  Beta  occ. eigenvalues --   -0.18315  -0.14473  -0.13264
  Beta virt. eigenvalues --    0.06066   0.06734   0.07223   0.07340   0.07937
  Beta virt. eigenvalues --    0.08698   0.09161   0.09335   0.09665   0.10118
  Beta virt. eigenvalues --    0.10578   0.10698   0.11477   0.11641   0.11926

 Mulliken charges and spin densities:
               1          2
     1  C    0.537172  -1.244692
     2  C   -1.157025   1.632675
     3  C    0.319835  -0.918010
     4  C    1.383090  -1.926106
     5  C   -0.491091   0.464660
     6  C   -0.966453   0.452541
     7  C    1.099462  -1.765083
     8  N    0.197208  -0.020110
     9  C   -0.016636   0.062153
    10  C   -0.122917  -0.497832
    11  C   -0.131889  -0.329873
    12  N   -0.117318   0.025483
    13  C    0.593631  -0.634217
    14  C   -0.283920   0.219657
    15  N   -0.227288   0.100192
    16  H   -0.150612   0.295900
    17  H    0.043363   0.104677
    18  H   -0.076182   0.210352
    19  H   -0.078098   0.223249
    20  H    0.009306   0.117959
    21  H   -0.231576   0.367852
    22  H   -0.145509   0.278851
    23  H    0.138809   0.002155
    24  H   -0.087848   0.252078
    25  H   -0.431104   0.595075
    26  H    0.193974  -0.021359
    27  H    0.194251  -0.011417
    28  H   -0.185371   0.340659
    29  H   -0.065786   0.198559
    30  H   -0.160750   0.322662
    31  H    0.221433   0.007698
    32  H   -0.020187   0.173378
    33  H    0.003619   0.164659
    34  H    0.152477   0.016896
    35  H    0.086116   0.059916
    36  H    0.084875   0.067408
    37  H   -0.941210   1.104773
    38  H   -0.169854   0.506581
 Sum of Mulliken charges =  -1.00000   1.00000

 Dipole moment (field-independent basis, Debye):
    X=             -0.8658    Y=              1.8184    Z=              1.7446  Tot=              2.6645
 Quadrupole moment (field-independent basis, Debye-Ang):
   XX=           -193.1722   YY=           -141.7666   ZZ=           -135.8972
   XY=             -8.1876   XZ=             -4.4091   YZ=             -3.5839

 Summary of Natural Population Analysis:

                                       Natural Population
                Natural  -----------------------------------------------
    Atom  No    Charge         Core      Valence    Rydberg      Total
 -----------------------------------------------------------------------
      C    1   -0.28463      0.99965     2.27983    0.00515     3.28463
      C    2   -0.11860      0.99962     2.10877    0.01022     3.11860
      C    3   -0.27999      0.99965     2.27530    0.00504     3.27999
      C    4   -0.18868      0.99961     2.18018    0.00889     3.18868
      C    5   -0.18913      0.99961     2.17877    0.01075     3.18913
      C    6   -0.01332      0.99959     2.00192    0.01181     3.01332
      C    7   -0.29472      0.99964     2.28914    0.00594     3.29472
      N    8   -0.34806      0.99973     2.83619    0.01213     3.84806
      C    9   -0.02470      0.99956     2.01415    0.01099     3.02470
      C   10   -0.29111      0.99965     2.28665    0.00482     3.29111
      C   11    0.18724      0.99960     1.79379    0.01937     2.81276
      N   12   -0.26410      0.99969     2.75558    0.00883     3.76410
      C   13   -0.03981      0.99959     2.02623    0.01400     3.03981
      C   14   -0.04032      0.99957     2.02790    0.01285     3.04032
      N   15   -0.26968      0.99965     2.76042    0.00961     3.76968
      H   16    0.09644      0.00000     0.40253    0.00102     0.40356
      H   17    0.09999      0.00000     0.39891    0.00110     0.40001
      H   18    0.09834      0.00000     0.40068    0.00097     0.40166
      H   19    0.09137      0.00000     0.40668    0.00195     0.40863
      H   20    0.09488      0.00000     0.40401    0.00111     0.40512
      H   21    0.09942      0.00000     0.39941    0.00117     0.40058
      H   22    0.09768      0.00000     0.40130    0.00101     0.40232
      H   23    0.09716      0.00000     0.40151    0.00133     0.40284
      H   24    0.09714      0.00000     0.40175    0.00111     0.40286
      H   25    0.09891      0.00000     0.39979    0.00130     0.40109
      H   26    0.10100      0.00000     0.39728    0.00173     0.39900
      H   27    0.08930      0.00000     0.40811    0.00260     0.41070
      H   28    0.09749      0.00000     0.40130    0.00121     0.40251
      H   29    0.10057      0.00000     0.39838    0.00105     0.39943
      H   30    0.10301      0.00000     0.39592    0.00107     0.39699
      H   31    0.17414      0.00000     0.32323    0.00263     0.32586
      H   32    0.09915      0.00000     0.39930    0.00155     0.40085
      H   33    0.09841      0.00000     0.40045    0.00114     0.40159
      H   34    0.11050      0.00000     0.38827    0.00123     0.38950
      H   35    0.09753      0.00000     0.40159    0.00088     0.40247
      H   36    0.09420      0.00000     0.40492    0.00087     0.40580
      H   37    0.10509      0.00000     0.39306    0.00185     0.39491
      H   38    0.21787      0.00000     0.27850    0.00362     0.28213
 =======================================================================
   * Total *    0.00000     14.99440    42.82170    0.18390    58.00000

 Normal termination of Gaussian 16 at Thu Dec 10 15:40:59 2020.
