 Gaussian 16, Revision A.03,

 -----------------------------------------------------------
 # opt freq B3LYP/6-31G(d) empiricaldispersion=gd3bj scf=xqc
 -----------------------------------------------------------

 ------------------------------
 CID_129807575_JID_846_neutraal
 ------------------------------
 Symbolic Z-matrix:
 Charge =  0 Multiplicity = 1

 SCF Done:  E(RB3LYP) =  -787.887608396     A.U. after   14 cycles
 SCF Done:  E(RB3LYP) =  -787.892648517     A.U. after   12 cycles
 SCF Done:  E(RB3LYP) =  -787.893404832     A.U. after   13 cycles
 SCF Done:  E(RB3LYP) =  -787.895327012     A.U. after   13 cycles
 SCF Done:  E(RB3LYP) =  -787.897034966     A.U. after   12 cycles
 SCF Done:  E(RB3LYP) =  -787.899212105     A.U. after   14 cycles
 SCF Done:  E(RB3LYP) =  -787.901674057     A.U. after   14 cycles
 SCF Done:  E(RB3LYP) =  -787.903415919     A.U. after   14 cycles
 SCF Done:  E(RB3LYP) =  -787.903854987     A.U. after   12 cycles
 SCF Done:  E(RB3LYP) =  -787.905156502     A.U. after   12 cycles
 SCF Done:  E(RB3LYP) =  -787.905963037     A.U. after   11 cycles
 SCF Done:  E(RB3LYP) =  -787.906043305     A.U. after   11 cycles
 SCF Done:  E(RB3LYP) =  -787.906052783     A.U. after   10 cycles
 SCF Done:  E(RB3LYP) =  -787.906053873     A.U. after    8 cycles
 SCF Done:  E(RB3LYP) =  -787.906054008     A.U. after    7 cycles
 Optimization completed.
    -- Stationary point found.
 Normal termination of Gaussian 16 at Tue Dec  8 13:04:03 2020.

 --------------------------------------------------------------------
 #N Geom=AllCheck Guess=TCheck SCRF=Check GenChk RB3LYP/6-31G(d) Freq
 --------------------------------------------------------------------

 Structure from the checkpoint file:  "JID_846.chk"
 ------------------------------
 CID_129807575_JID_846_neutraal
 ------------------------------
 Charge =  0 Multiplicity = 1

 SCF Done:  E(RB3LYP) =  -787.906054008     A.U. after    1 cycles

  Exact polarizability: 111.440   2.277 112.142  -9.137  -2.985  87.991
 Approx polarizability: 139.671   7.792 163.650 -22.253  -9.735 143.489

                      1                      2                      3
                      A                      A                      A
 Frequencies --     27.5990                45.7094                72.5817
 Red. masses --      3.4469                 2.9239                 4.2296
 Frc consts  --      0.0015                 0.0036                 0.0131
 IR Inten    --      0.0729                 0.0465                 0.9041

                      4                      5                      6
                      A                      A                      A
 Frequencies --     93.6565               136.0624               153.6479
 Red. masses --      3.1851                 2.7842                 3.1874
 Frc consts  --      0.0165                 0.0304                 0.0443
 IR Inten    --      0.8658                 0.8475                 3.8837

                      7                      8                      9
                      A                      A                      A
 Frequencies --    179.0866               212.7933               243.3656
 Red. masses --      1.9931                 2.3827                 2.3131
 Frc consts  --      0.0377                 0.0636                 0.0807
 IR Inten    --      0.5899                 5.1929                 0.6359

                     10                     11                     12
                      A                      A                      A
 Frequencies --    279.0257               285.3107               344.7660
 Red. masses --      2.3322                 1.5757                 1.9326
 Frc consts  --      0.1070                 0.0756                 0.1353
 IR Inten    --      0.6995                 2.1456                 1.6406

                     13                     14                     15
                      A                      A                      A
 Frequencies --    397.5197               459.2946               469.2713
 Red. masses --      2.2948                 2.9214                 2.3277
 Frc consts  --      0.2137                 0.3631                 0.3020
 IR Inten    --      1.3010                 1.1817                 6.0945

                     16                     17                     18
                      A                      A                      A
 Frequencies --    540.1966               613.9064               637.8422
 Red. masses --      2.3738                 1.4342                 4.2624
 Frc consts  --      0.4081                 0.3185                 1.0217
 IR Inten    --      3.1616                 9.2900                 2.7855

                     19                     20                     21
                      A                      A                      A
 Frequencies --    712.2746               748.9114               823.1746
 Red. masses --      4.5149                 1.2286                 1.8744
 Frc consts  --      1.3496                 0.4060                 0.7483
 IR Inten    --     13.4193                 5.7893                 1.3484

                     22                     23                     24
                      A                      A                      A
 Frequencies --    839.5142               879.3231               900.0168
 Red. masses --      2.4274                 1.6911                 1.3609
 Frc consts  --      1.0080                 0.7704                 0.6495
 IR Inten    --      2.8019                 6.5033                39.3033

                     25                     26                     27
                      A                      A                      A
 Frequencies --    942.3121               979.5980               995.9634
 Red. masses --      1.7557                 2.0076                 1.6698
 Frc consts  --      0.9185                 1.1351                 0.9759
 IR Inten    --      4.6157                 1.6929                 1.6641

                     28                     29                     30
                      A                      A                      A
 Frequencies --   1002.2440              1019.2273              1050.4625
 Red. masses --      1.0856                 1.7907                 1.4906
 Frc consts  --      0.6425                 1.0960                 0.9691
 IR Inten    --     41.5669                 9.4413                 0.7663

                     31                     32                     33
                      A                      A                      A
 Frequencies --   1076.9125              1094.5985              1144.7986
 Red. masses --      1.5892                 2.0450                 2.0969
 Frc consts  --      1.0859                 1.4436                 1.6192
 IR Inten    --     25.3248                 5.2206                29.5404

                     34                     35                     36
                      A                      A                      A
 Frequencies --   1162.2852              1170.8357              1243.8720
 Red. masses --      3.9389                 1.9605                 1.2507
 Frc consts  --      3.1351                 1.5834                 1.1401
 IR Inten    --    144.7437                 3.7735                 1.4310

                     37                     38                     39
                      A                      A                      A
 Frequencies --   1267.5464              1288.9005              1302.9951
 Red. masses --      1.1833                 1.2404                 1.3142
 Frc consts  --      1.1202                 1.2141                 1.3146
 IR Inten    --      2.4252                 1.9114                 9.5228

                     40                     41                     42
                      A                      A                      A
 Frequencies --   1325.9358              1338.8718              1359.2771
 Red. masses --      1.2280                 1.1121                 1.1868
 Frc consts  --      1.2721                 1.1746                 1.2919
 IR Inten    --      5.6787                 4.6359                20.3140

                     43                     44                     45
                      A                      A                      A
 Frequencies --   1391.6800              1409.1868              1420.0364
 Red. masses --      1.3238                 1.4579                 1.2786
 Frc consts  --      1.5107                 1.7057                 1.5190
 IR Inten    --      8.8562                 6.3867                25.2649

                     46                     47                     48
                      A                      A                      A
 Frequencies --   1441.5387              1443.5469              1457.6060
 Red. masses --      1.2432                 1.2548                 1.3260
 Frc consts  --      1.5220                 1.5406                 1.6599
 IR Inten    --      0.5543                 7.8201                 1.7410

                     49                     50                     51
                      A                      A                      A
 Frequencies --   1480.2468              1506.8726              1516.9330
 Red. masses --      1.1011                 1.0854                 1.0885
 Frc consts  --      1.4215                 1.4521                 1.4758
 IR Inten    --      8.9791                 1.7741                 1.9070

                     52                     53                     54
                      A                      A                      A
 Frequencies --   1520.3901              1530.9580              1537.2435
 Red. masses --      1.0718                 1.0541                 1.0678
 Frc consts  --      1.4597                 1.4556                 1.4867
 IR Inten    --      1.8684                 4.9132                 5.1366

                     55                     56                     57
                      A                      A                      A
 Frequencies --   1555.1309              1670.0832              3006.6880
 Red. masses --      1.0796                 3.8294                 1.0667
 Frc consts  --      1.5383                 6.2930                 5.6814
 IR Inten    --      3.4945                34.1978                23.2162

                     58                     59                     60
                      A                      A                      A
 Frequencies --   3018.4932              3035.5331              3043.5468
 Red. masses --      1.0583                 1.0628                 1.0391
 Frc consts  --      5.6812                 5.7698                 5.6712
 IR Inten    --     63.0085                18.4813                33.8135

                     61                     62                     63
                      A                      A                      A
 Frequencies --   3048.0044              3058.4639              3071.4102
 Red. masses --      1.0650                 1.0965                 1.0714
 Frc consts  --      5.8297                 6.0433                 5.9550
 IR Inten    --     30.3443                11.3726                36.6836

                     64                     65                     66
                      A                      A                      A
 Frequencies --   3077.5819              3086.9249              3091.1776
 Red. masses --      1.0967                 1.0952                 1.0985
 Frc consts  --      6.1203                 6.1488                 6.1845
 IR Inten    --     21.0858                29.2334                29.5458

                     67                     68                     69
                      A                      A                      A
 Frequencies --   3110.8575              3117.6606              3125.4507
 Red. masses --      1.1003                 1.1024                 1.1046
 Frc consts  --      6.2739                 6.3131                 6.3571
 IR Inten    --     52.7751                57.5671                 7.1001

                     70                     71                     72
                      A                      A                      A
 Frequencies --   3168.6455              3183.6997              3266.6401
 Red. masses --      1.0643                 1.0860                 1.1149
 Frc consts  --      6.2962                 6.4855                 7.0097
 IR Inten    --      1.1020                11.3175                 3.5250

 - Thermochemistry -
 -------------------
 Temperature   298.150 Kelvin.  Pressure   1.00000 Atm.
 Atom     1 has atomic number  6 and mass  12.00000

 Molecular mass:   160.09219 amu.
 Principal axes and moments of inertia in atomic units:
                           1         2         3
     Eigenvalues --   889.794003243.593483702.84438
           X            0.99993  -0.00325   0.01159
           Y            0.00325   0.99999   0.00055
           Z           -0.01159  -0.00052   0.99993
 This molecule is an asymmetric top.
 Rotational symmetry number  1.
 Warning -- assumption of classical behavior for rotation
           may cause significant error
 Rotational temperatures (Kelvin)      0.09734     0.02670     0.02339
 Rotational constants (GHZ):           2.02827     0.55640     0.48739
 Zero-point vibrational energy     605631.7 (Joules/Mol)
                                  144.74946 (Kcal/Mol)
 Warning -- explicit consideration of  17 degrees of freedom as
           vibrations may cause significant error
 Vibrational temperatures:     39.71    65.77   104.43   134.75   195.76
          (Kelvin)            221.07   257.67   306.16   350.15   401.46
                              410.50   496.04   571.94   660.82   675.18
                              777.22   883.27   917.71  1024.80  1077.52
                             1184.36  1207.87  1265.15  1294.92  1355.78
                             1409.42  1432.97  1442.01  1466.44  1511.38
                             1549.44  1574.88  1647.11  1672.27  1684.57
                             1789.65  1823.72  1854.44  1874.72  1907.73
                             1926.34  1955.70  2002.32  2027.51  2043.12
                             2074.05  2076.94  2097.17  2129.74  2168.05
                             2182.53  2187.50  2202.71  2211.75  2237.49
                             2402.88  4325.95  4342.94  4367.46  4378.99
                             4385.40  4400.45  4419.07  4427.95  4441.40
                             4447.52  4475.83  4485.62  4496.83  4558.97
                             4580.63  4699.97

 Zero-point correction=                           0.230673 (Hartree/Particle)
 Thermal correction to Energy=                    0.243203
 Thermal correction to Enthalpy=                  0.244148
 Thermal correction to Gibbs Free Energy=         0.190622
 Sum of electronic and zero-point Energies=           -787.675381
 Sum of electronic and thermal Energies=              -787.662851
 Sum of electronic and thermal Enthalpies=            -787.661906
 Sum of electronic and thermal Free Energies=         -787.715432

                     E (Thermal)             CV                S
                      KCal/Mol        Cal/Mol-Kelvin    Cal/Mol-Kelvin
 Total                  152.612             44.858            112.654
 Electronic               0.000              0.000              0.000
 Translational            0.889              2.981             41.121
 Rotational               0.889              2.981             30.747
 Vibrational            150.835             38.896             40.786
 Vibration     1          0.593              1.984              5.995
 Vibration     2          0.595              1.979              4.995
 Vibration     3          0.599              1.967              4.082
 Vibration     4          0.603              1.954              3.582
 Vibration     5          0.614              1.917              2.859
 Vibration     6          0.619              1.899              2.627
 Vibration     7          0.629              1.868              2.338
 Vibration     8          0.644              1.821              2.020
 Vibration     9          0.659              1.774              1.778
 Vibration    10          0.679              1.712              1.540
 Vibration    11          0.683              1.701              1.502
 Vibration    12          0.723              1.586              1.190
 Vibration    13          0.764              1.475              0.972
 Vibration    14          0.817              1.340              0.768
 Vibration    15          0.826              1.318              0.740
 Vibration    16          0.895              1.161              0.565
 Vibration    17          0.973              1.002              0.426

                           ! Non-Optimized Parameters !
 Normal termination of Gaussian 16 at Tue Dec  8 13:10:00 2020.

 ----------------------------------------------------------------------
 # B3LYP/6-311++G(d,p) empiricaldispersion=gd3bj scf=xqc pop=npa geom=c
 heck
 ----------------------------------------------------------------------

 --------------------------------------
 CID_129807575_JID_846_Energie_neutraal
 --------------------------------------
 Structure from the checkpoint file:  "JID_846.chk"
 Charge =  0 Multiplicity = 1

 SCF Done:  E(RB3LYP) =  -788.047703901     A.U. after   14 cycles
 Normal termination of Gaussian 16 at Tue Dec  8 13:17:15 2020.

 ----------------------------------------------------------------------
 # B3LYP/6-311++G(d,p) empiricaldispersion=gd3bj scf=xqc pop=npa geom=c
 heck
 ----------------------------------------------------------------------

 ------------------------------------
 CID_129807575_JID_846_Energie_kation
 ------------------------------------
 Structure from the checkpoint file:  "JID_846.chk"
 Charge =  1 Multiplicity = 2

 SCF Done:  E(UB3LYP) =  -787.752673587     A.U. after   18 cycles
 Normal termination of Gaussian 16 at Tue Dec  8 13:23:58 2020.
 Gaussian 16:  ES64L-G16RevA.03 25-Dec-2016

 ----------------------------------------------------------------------
 # B3LYP/6-311++G(d,p) empiricaldispersion=gd3bj scf=xqc pop=npa geom=c
 heck
 ----------------------------------------------------------------------

 -----------------------------------
 CID_129807575_JID_846_Energie_anion
 -----------------------------------
 Structure from the checkpoint file:  "JID_846.chk"
 Charge = -1 Multiplicity = 2

                         Standard orientation:
 ---------------------------------------------------------------------
 Center     Atomic      Atomic             Coordinates (Angstroms)
 Number     Number       Type             X           Y           Z
 ---------------------------------------------------------------------
      1          6           0       -3.977861    0.531291   -0.319378
      2          6           0       -3.199449   -0.550581    0.434365
      3          6           0       -1.989037   -1.097942   -0.334924
      4          6           0       -0.939265   -0.051030   -0.680263
      5          8           0       -0.528429    0.584752    0.530818
      6          6           0        0.361651    1.671127    0.371192
      7          6           0        1.828779    1.317190    0.614250
      8         16           0        2.658791    0.283892   -0.655217
      9          6           0        2.388626   -1.375727   -0.107503
     10          6           0        1.544869   -1.833214    0.821927
     11          1           0       -3.369397    1.429666   -0.470993
     12          1           0       -4.872748    0.831997    0.236746
     13          1           0       -4.301780    0.176059   -1.305932
     14          1           0       -2.854244   -0.149321    1.393639
     15          1           0       -3.870924   -1.387427    0.666370
     16          1           0       -1.507968   -1.889329    0.253085
     17          1           0       -2.319084   -1.560315   -1.275868
     18          1           0       -0.085324   -0.524168   -1.178356
     19          1           0       -1.350771    0.707250   -1.364121
     20          1           0        0.243520    2.129377   -0.621033
     21          1           0        0.077719    2.421949    1.121834
     22          1           0        2.411423    2.245207    0.637526
     23          1           0        1.951403    0.823499    1.583151
     24          1           0        3.046849   -2.056705   -0.643791
     25          1           0        1.532545   -2.892913    1.060375
     26          1           0        0.845679   -1.191791    1.346294
 ---------------------------------------------------------------------

 SCF Done:  E(UB3LYP) =  -788.029608800     A.U. after   33 cycles
 SCF Done:  E(UB3LYP) =  -788.029608800     a.u. after    1 cycles

 The electronic state is 2-A.
 Alpha  occ. eigenvalues --  -88.75502 -19.02251 -10.11979 -10.10881 -10.10661
 Alpha  occ. eigenvalues --  -10.10231 -10.06627 -10.06235 -10.05897 -10.05269
 Alpha  occ. eigenvalues --   -7.84109  -5.80492  -5.80081  -5.79550  -0.93543
 Alpha  occ. eigenvalues --   -0.72448  -0.69581  -0.66412  -0.62162  -0.58905
 Alpha  occ. eigenvalues --   -0.54072  -0.51366  -0.46514  -0.45227  -0.40127
 Alpha  occ. eigenvalues --   -0.38372  -0.37838  -0.36409  -0.34187  -0.34002
 Alpha  occ. eigenvalues --   -0.32599  -0.30549  -0.29456  -0.28484  -0.27467
 Alpha  occ. eigenvalues --   -0.25499  -0.24106  -0.23031  -0.22680  -0.22276
 Alpha  occ. eigenvalues --   -0.21989  -0.20883  -0.16238  -0.12141   0.04766
 Alpha virt. eigenvalues --    0.06642   0.06792   0.08116   0.08651   0.08971
 Alpha virt. eigenvalues --    0.09313   0.09956   0.10106   0.11142   0.11555
 Alpha virt. eigenvalues --    0.12379   0.12658   0.13082   0.13513   0.13685

  Beta  occ. eigenvalues --  -88.75500 -19.02242 -10.11947 -10.10870 -10.10653
  Beta  occ. eigenvalues --  -10.10196 -10.06603 -10.06222 -10.05883 -10.05235
  Beta  occ. eigenvalues --   -7.84106  -5.80487  -5.80077  -5.79550  -0.93528
  Beta  occ. eigenvalues --   -0.72407  -0.69549  -0.66365  -0.62121  -0.58856
  Beta  occ. eigenvalues --   -0.54013  -0.51287  -0.46458  -0.45184  -0.40078
  Beta  occ. eigenvalues --   -0.38335  -0.37797  -0.36369  -0.34151  -0.33948
  Beta  occ. eigenvalues --   -0.32561  -0.30504  -0.29423  -0.28434  -0.27431
  Beta  occ. eigenvalues --   -0.25455  -0.24068  -0.23000  -0.22646  -0.22244
  Beta  occ. eigenvalues --   -0.21949  -0.20840  -0.16203  -0.12112
  Beta virt. eigenvalues --    0.06915   0.07493   0.08054   0.08401   0.08913
  Beta virt. eigenvalues --    0.09350   0.09772   0.10391   0.10686   0.11523
  Beta virt. eigenvalues --    0.11962   0.12538   0.12978   0.13410   0.13757

 Mulliken charges and spin densities:
               1          2
     1  C    1.192889  -1.774440
     2  C   -0.844152   0.766317
     3  C    0.550695  -0.868958
     4  C   -0.222177  -0.150238
     5  O   -0.094133   0.044822
     6  C    0.609746  -0.790562
     7  C    0.348714  -0.765320
     8  S    0.228944   0.038844
     9  C   -0.434795   0.254842
    10  C    0.233870  -0.757230
    11  H   -0.198729   0.349105
    12  H   -0.398728   0.534930
    13  H   -0.156779   0.285669
    14  H    0.168572  -0.022819
    15  H   -0.310890   0.450601
    16  H    0.004166   0.151893
    17  H   -0.226595   0.356336
    18  H    0.092208  -0.029836
    19  H   -0.028819   0.190571
    20  H   -0.108973   0.202969
    21  H   -0.627457   0.802425
    22  H   -0.794010   1.041978
    23  H    0.160110   0.028647
    24  H   -0.138084   0.373504
    25  H   -0.119149   0.256034
    26  H    0.113555   0.029918
 Sum of Mulliken charges =  -1.00000   1.00000

 Dipole moment (field-independent basis, Debye):
    X=              2.5712    Y=             -3.2351    Z=             -0.8092  Tot=              4.2109
 Quadrupole moment (field-independent basis, Debye-Ang):
   XX=           -147.2888   YY=           -123.1492   ZZ=            -98.6747
   XY=             -5.0946   XZ=             -3.4279   YZ=             -4.1231

 Summary of Natural Population Analysis:

                                       Natural Population
                Natural  -----------------------------------------------
    Atom  No    Charge         Core      Valence    Rydberg      Total
 -----------------------------------------------------------------------
      C    1   -0.28766      0.99967     2.28290    0.00509     3.28766
      C    2   -0.19249      0.99964     2.18394    0.00891     3.19249
      C    3   -0.19731      0.99962     2.18851    0.00919     3.19731
      C    4   -0.00947      0.99956     1.99943    0.01047     3.00947
      O    5   -0.30968      0.99988     3.29932    0.01048     4.30968
      C    6   -0.01104      0.99955     1.99656    0.01492     3.01104
      C    7   -0.26502      0.99958     2.25312    0.01232     3.26502
      S    8    0.11781      4.99954     2.86301    0.01964     7.88219
      C    9   -0.17515      0.99950     2.16418    0.01147     3.17515
      C   10   -0.21983      0.99953     2.20883    0.01148     3.21983
      H   11    0.09756      0.00000     0.40105    0.00139     0.40244
      H   12    0.09903      0.00000     0.39978    0.00118     0.40097
      H   13    0.09402      0.00000     0.40469    0.00129     0.40598
      H   14    0.10000      0.00000     0.39846    0.00154     0.40000
      H   15    0.09350      0.00000     0.40533    0.00116     0.40650
      H   16    0.09968      0.00000     0.39892    0.00140     0.40032
      H   17    0.09622      0.00000     0.40278    0.00100     0.40378
      H   18    0.08798      0.00000     0.40989    0.00213     0.41202
      H   19    0.07880      0.00000     0.41942    0.00179     0.42120
      H   20    0.08326      0.00000     0.41458    0.00215     0.41674
      H   21    0.09352      0.00000     0.40428    0.00220     0.40648
      H   22    0.11448      0.00000     0.38166    0.00386     0.38552
      H   23    0.10782      0.00000     0.39076    0.00142     0.39218
      H   24    0.10134      0.00000     0.39757    0.00110     0.39866
      H   25    0.09784      0.00000     0.40085    0.00130     0.40216
      H   26    0.10481      0.00000     0.39323    0.00196     0.39519
 =======================================================================
   * Total *   -0.00000     13.99607    29.86307    0.14086    44.00000

 Normal termination of Gaussian 16 at Tue Dec  8 13:34:15 2020.
