 Gaussian 16, Revision A.03,

 -----------------------------------------------------------
 # opt freq B3LYP/6-31G(d) empiricaldispersion=gd3bj scf=xqc
 -----------------------------------------------------------

 -------------------------------
 CID_144745905_JID_2800_neutraal
 -------------------------------
 Symbolic Z-matrix:
 Charge =  0 Multiplicity = 1

 SCF Done:  E(RB3LYP) =  -539.933436962     A.U. after   15 cycles
 SCF Done:  E(RB3LYP) =  -539.936988168     A.U. after   12 cycles
 SCF Done:  E(RB3LYP) =  -539.936934182     A.U. after   13 cycles
 SCF Done:  E(RB3LYP) =  -539.938498405     A.U. after   13 cycles
 SCF Done:  E(RB3LYP) =  -539.940174622     A.U. after   14 cycles
 SCF Done:  E(RB3LYP) =  -539.941078741     A.U. after   12 cycles
 SCF Done:  E(RB3LYP) =  -539.941374950     A.U. after   12 cycles
 SCF Done:  E(RB3LYP) =  -539.941431681     A.U. after   11 cycles
 SCF Done:  E(RB3LYP) =  -539.941473069     A.U. after   10 cycles
 SCF Done:  E(RB3LYP) =  -539.941528799     A.U. after   12 cycles
 SCF Done:  E(RB3LYP) =  -539.941577525     A.U. after   10 cycles
 SCF Done:  E(RB3LYP) =  -539.941596917     A.U. after   11 cycles
 SCF Done:  E(RB3LYP) =  -539.941597973     A.U. after    9 cycles
 SCF Done:  E(RB3LYP) =  -539.941598709     A.U. after    9 cycles
 SCF Done:  E(RB3LYP) =  -539.941598929     A.U. after    8 cycles
 SCF Done:  E(RB3LYP) =  -539.941598917     A.U. after    8 cycles
 Optimization completed.
    -- Stationary point found.
 Normal termination of Gaussian 16 at Wed Dec  9 18:13:01 2020.

 --------------------------------------------------------------------
 #N Geom=AllCheck Guess=TCheck SCRF=Check GenChk RB3LYP/6-31G(d) Freq
 --------------------------------------------------------------------

 Structure from the checkpoint file:  "JID_2800.chk"
 -------------------------------
 CID_144745905_JID_2800_neutraal
 -------------------------------
 Charge =  0 Multiplicity = 1

 SCF Done:  E(RB3LYP) =  -539.941598917     A.U. after    1 cycles

  Exact polarizability: 132.380   6.659 105.943   5.250 -11.075  89.800
 Approx polarizability: 173.069  14.788 179.073   7.063 -34.243 139.984

                      1                      2                      3
                      A                      A                      A
 Frequencies --     15.1387                39.6552                51.9866
 Red. masses --      4.4084                 4.1758                 4.1073
 Frc consts  --      0.0006                 0.0039                 0.0065
 IR Inten    --      0.1196                 0.5789                 0.3498

                      4                      5                      6
                      A                      A                      A
 Frequencies --     64.2766               145.2879               181.1416
 Red. masses --      3.6111                 4.2001                 3.8775
 Frc consts  --      0.0088                 0.0522                 0.0750
 IR Inten    --      0.1135                 0.5743                 0.5137

                      7                      8                      9
                      A                      A                      A
 Frequencies --    203.8172               217.4942               245.2477
 Red. masses --      3.5078                 2.3989                 1.2299
 Frc consts  --      0.0859                 0.0669                 0.0436
 IR Inten    --      2.4135                 0.3037                 0.0362

                     10                     11                     12
                      A                      A                      A
 Frequencies --    265.9469               320.1145               332.0831
 Red. masses --      1.0609                 2.9995                 2.3856
 Frc consts  --      0.0442                 0.1811                 0.1550
 IR Inten    --      0.2676                 4.6377                 0.2710

                     13                     14                     15
                      A                      A                      A
 Frequencies --    369.6096               398.3075               457.0965
 Red. masses --      2.9863                 2.4033                 4.5217
 Frc consts  --      0.2404                 0.2246                 0.5566
 IR Inten    --      1.8722                 4.1575                 4.6515

                     16                     17                     18
                      A                      A                      A
 Frequencies --    483.3805               522.6793               539.9214
 Red. masses --      2.5616                 4.4090                 1.9581
 Frc consts  --      0.3526                 0.7097                 0.3363
 IR Inten    --      3.7322                 9.2857                 6.0471

                     19                     20                     21
                      A                      A                      A
 Frequencies --    615.4105               622.3395               681.6173
 Red. masses --      2.5886                 1.3644                 2.2874
 Frc consts  --      0.5776                 0.3113                 0.6261
 IR Inten    --     60.9022                95.0579                 7.1388

                     22                     23                     24
                      A                      A                      A
 Frequencies --    719.1281               740.7813               772.2491
 Red. masses --      2.1516                 1.7409                 2.1353
 Frc consts  --      0.6556                 0.5629                 0.7503
 IR Inten    --      5.1521                 4.0603                 9.1614

                     25                     26                     27
                      A                      A                      A
 Frequencies --    807.2375               831.8458               860.8134
 Red. masses --      1.4413                 3.5311                 2.4672
 Frc consts  --      0.5534                 1.4396                 1.0771
 IR Inten    --     22.6182                15.2577                 3.6772

                     28                     29                     30
                      A                      A                      A
 Frequencies --    909.9050               933.4764               943.8985
 Red. masses --      2.1787                 1.3731                 1.2191
 Frc consts  --      1.0628                 0.7050                 0.6399
 IR Inten    --      5.5942                31.2368                 6.1860

                     31                     32                     33
                      A                      A                      A
 Frequencies --    951.2130               976.3022               984.9983
 Red. masses --      2.0087                 1.5083                 1.3632
 Frc consts  --      1.0708                 0.8470                 0.7792
 IR Inten    --      2.5974                 0.4545                33.9557

                     34                     35                     36
                      A                      A                      A
 Frequencies --   1001.6615              1022.8607              1096.5654
 Red. masses --      2.1722                 1.2410                 1.4133
 Frc consts  --      1.2841                 0.7650                 1.0013
 IR Inten    --      7.3812                 1.6684                12.6770

                     37                     38                     39
                      A                      A                      A
 Frequencies --   1131.9664              1146.8549              1205.4384
 Red. masses --      2.2018                 3.0130                 1.9095
 Frc consts  --      1.6622                 2.3349                 1.6348
 IR Inten    --      3.1793               285.9947                 1.2741

                     40                     41                     42
                      A                      A                      A
 Frequencies --   1256.5594              1277.7818              1299.2497
 Red. masses --      1.6476                 1.7232                 1.4737
 Frc consts  --      1.5328                 1.6577                 1.4657
 IR Inten    --     50.2673                 1.8388                 3.1971

                     43                     44                     45
                      A                      A                      A
 Frequencies --   1356.2301              1359.6721              1392.2180
 Red. masses --      1.3352                 1.3367                 2.3512
 Frc consts  --      1.4470                 1.4560                 2.6851
 IR Inten    --     10.2715                 3.3093                55.0075

                     46                     47                     48
                      A                      A                      A
 Frequencies --   1423.8823              1445.3282              1456.4280
 Red. masses --      1.2319                 1.2248                 1.4349
 Frc consts  --      1.4715                 1.5074                 1.7933
 IR Inten    --      4.9984                 2.7769                10.4207

                     49                     50                     51
                      A                      A                      A
 Frequencies --   1470.2367              1484.7786              1517.5346
 Red. masses --      1.2642                 1.3866                 1.0422
 Frc consts  --      1.6101                 1.8010                 1.4141
 IR Inten    --     12.3673                 6.8128                 2.0739

                     52                     53                     54
                      A                      A                      A
 Frequencies --   1523.2983              1532.7606              1542.1107
 Red. masses --      1.0499                 1.0439                 1.0560
 Frc consts  --      1.4354                 1.4449                 1.4795
 IR Inten    --      0.8891                 8.9251                 7.8409

                     55                     56                     57
                      A                      A                      A
 Frequencies --   1682.0841              1702.6009              1726.5123
 Red. masses --      5.2686                 5.1887                 6.5837
 Frc consts  --      8.7829                 8.8621                11.5627
 IR Inten    --      8.9738                 9.3149                 2.9968

                     58                     59                     60
                      A                      A                      A
 Frequencies --   1817.4932              3038.0749              3047.8757
 Red. masses --      9.7636                 1.0843                 1.0344
 Frc consts  --     19.0023                 5.8967                 5.6616
 IR Inten    --    266.3783                20.8314                24.4985

                     61                     62                     63
                      A                      A                      A
 Frequencies --   3053.1313              3115.6922              3120.0585
 Red. masses --      1.0355                 1.1023                 1.1029
 Frc consts  --      5.6871                 6.3043                 6.3259
 IR Inten    --     21.5689                 2.6492                28.7655

                     64                     65                     66
                      A                      A                      A
 Frequencies --   3120.9947              3130.3139              3136.6925
 Red. masses --      1.1016                 1.1022                 1.0856
 Frc consts  --      6.3220                 6.3633                 6.2931
 IR Inten    --     63.4787                19.6177                16.3604

                     67                     68                     69
                      A                      A                      A
 Frequencies --   3153.7197              3203.1434              3208.3836
 Red. masses --      1.0600                 1.0888                 1.0594
 Frc consts  --      6.2114                 6.5818                 6.4252
 IR Inten    --      8.1481                 6.8985                 0.7955

                     70                     71                     72
                      A                      A                      A
 Frequencies --   3234.8878              3301.0828              3703.5740
 Red. masses --      1.1159                 1.1168                 1.0642
 Frc consts  --      6.8804                 7.1701                 8.6007
 IR Inten    --     16.2698                 0.2283                69.2993

 - Thermochemistry -
 -------------------
 Temperature   298.150 Kelvin.  Pressure   1.00000 Atm.
 Atom     1 has atomic number  6 and mass  12.00000

 Molecular mass:   166.09938 amu.
 Principal axes and moments of inertia in atomic units:
                           1         2         3
     Eigenvalues --  1061.102283832.980543917.98505
           X            0.99990  -0.01389  -0.00209
           Y            0.01394   0.99948   0.02891
           Z            0.00169  -0.02893   0.99958
 This molecule is an asymmetric top.
 Rotational symmetry number  1.
 Warning -- assumption of classical behavior for rotation
           may cause significant error
 Rotational temperatures (Kelvin)      0.08163     0.02260     0.02211
 Rotational constants (GHZ):           1.70082     0.47085     0.46063
 Zero-point vibrational energy     578060.3 (Joules/Mol)
                                  138.15972 (Kcal/Mol)
 Warning -- explicit consideration of  19 degrees of freedom as
           vibrations may cause significant error
 Vibrational temperatures:     21.78    57.06    74.80    92.48   209.04
          (Kelvin)            260.62   293.25   312.93   352.86   382.64
                              460.57   477.79   531.79   573.08   657.66
                              695.48   752.02   776.83   885.44   895.41
                              980.70  1034.66  1065.82  1111.09  1161.43
                             1196.84  1238.52  1309.15  1343.06  1358.06
                             1368.58  1404.68  1417.19  1441.17  1471.67
                             1577.71  1628.65  1650.07  1734.36  1807.91
                             1838.44  1869.33  1951.31  1956.26  2003.09
                             2048.65  2079.50  2095.48  2115.34  2136.27
                             2183.39  2191.69  2205.30  2218.75  2420.14
                             2449.66  2484.07  2614.97  4371.11  4385.21
                             4392.77  4482.79  4489.07  4490.42  4503.82
                             4513.00  4537.50  4608.61  4616.15  4654.28
                             4749.52  5328.62

 Zero-point correction=                           0.220172 (Hartree/Particle)
 Thermal correction to Energy=                    0.233481
 Thermal correction to Enthalpy=                  0.234425
 Thermal correction to Gibbs Free Energy=         0.178588
 Sum of electronic and zero-point Energies=           -539.721427
 Sum of electronic and thermal Energies=              -539.708118
 Sum of electronic and thermal Enthalpies=            -539.707174
 Sum of electronic and thermal Free Energies=         -539.763011

                     E (Thermal)             CV                S
                      KCal/Mol        Cal/Mol-Kelvin    Cal/Mol-Kelvin
 Total                  146.512             48.940            117.519
 Electronic               0.000              0.000              0.000
 Translational            0.889              2.981             41.231
 Rotational               0.889              2.981             31.144
 Vibrational            144.734             42.978             45.144
 Vibration     1          0.593              1.986              7.187
 Vibration     2          0.594              1.981              5.276
 Vibration     3          0.596              1.977              4.740
 Vibration     4          0.597              1.971              4.321
 Vibration     5          0.617              1.908              2.733
 Vibration     6          0.630              1.865              2.317
 Vibration     7          0.639              1.834              2.098
 Vibration     8          0.646              1.814              1.980
 Vibration     9          0.660              1.771              1.764
 Vibration    10          0.672              1.736              1.622
 Vibration    11          0.706              1.635              1.310
 Vibration    12          0.714              1.611              1.250
 Vibration    13          0.742              1.535              1.081
 Vibration    14          0.765              1.474              0.969
 Vibration    15          0.815              1.345              0.775
 Vibration    16          0.840              1.287              0.701
 Vibration    17          0.878              1.200              0.604
 Vibration    18          0.895              1.162              0.565
 Vibration    19          0.975              0.999              0.424

                           ! Non-Optimized Parameters !
 Normal termination of Gaussian 16 at Wed Dec  9 18:18:54 2020.

 ----------------------------------------------------------------------
 # B3LYP/6-311++G(d,p) empiricaldispersion=gd3bj scf=xqc pop=npa geom=c
 heck
 ----------------------------------------------------------------------

 ---------------------------------------
 CID_144745905_JID_2800_Energie_neutraal
 ---------------------------------------
 Structure from the checkpoint file:  "JID_2800.chk"
 Charge =  0 Multiplicity = 1

 SCF Done:  E(RB3LYP) =  -540.104744237     A.U. after   16 cycles
 Normal termination of Gaussian 16 at Wed Dec  9 18:21:26 2020.

 ----------------------------------------------------------------------
 # B3LYP/6-311++G(d,p) empiricaldispersion=gd3bj scf=xqc pop=npa geom=c
 heck
 ----------------------------------------------------------------------

 -------------------------------------
 CID_144745905_JID_2800_Energie_kation
 -------------------------------------
 Structure from the checkpoint file:  "JID_2800.chk"
 Charge =  1 Multiplicity = 2

 SCF Done:  E(UB3LYP) =  -539.786825257     A.U. after   23 cycles
 Normal termination of Gaussian 16 at Wed Dec  9 18:26:54 2020.
 Gaussian 16:  ES64L-G16RevA.03 25-Dec-2016

 ----------------------------------------------------------------------
 # B3LYP/6-311++G(d,p) empiricaldispersion=gd3bj scf=xqc pop=npa geom=c
 heck
 ----------------------------------------------------------------------

 ------------------------------------
 CID_144745905_JID_2800_Energie_anion
 ------------------------------------
 Structure from the checkpoint file:  "JID_2800.chk"
 Charge = -1 Multiplicity = 2

                         Standard orientation:
 ---------------------------------------------------------------------
 Center     Atomic      Atomic             Coordinates (Angstroms)
 Number     Number       Type             X           Y           Z
 ---------------------------------------------------------------------
      1          6           0       -1.689588    0.678821    1.708675
      2          6           0       -2.585302    0.151743    0.575267
      3          6           0       -3.379316    1.302766   -0.066538
      4          6           0       -1.771112   -0.611531   -0.460255
      5          6           0       -1.977803   -1.910863   -0.700967
      6          6           0       -0.793281    0.176707   -1.256203
      7          6           0        0.539294    0.277945   -1.116619
      8          6           0        1.435411   -0.347114   -0.129708
      9          6           0        1.180531   -1.418676    0.643686
     10          6           0        2.775407    0.315481   -0.040252
     11          8           0        3.142363    1.233917   -0.746815
     12          8           0        3.580880   -0.206018    0.919622
     13          1           0       -0.931437    1.365421    1.316862
     14          1           0       -1.170087   -0.139044    2.217618
     15          1           0       -2.288914    1.220590    2.449355
     16          1           0       -3.304010   -0.558045    1.005734
     17          1           0       -2.707336    2.067946   -0.471226
     18          1           0       -4.015515    0.940966   -0.881744
     19          1           0       -4.020342    1.785204    0.679663
     20          1           0       -1.406863   -2.450159   -1.452008
     21          1           0       -2.732208   -2.474481   -0.156444
     22          1           0       -1.238928    0.791222   -2.039446
     23          1           0        1.056701    0.956130   -1.788603
     24          1           0        1.921295   -1.780567    1.346428
     25          1           0        0.236977   -1.944366    0.584042
     26          1           0        4.409282    0.304325    0.864785
 ---------------------------------------------------------------------

 SCF Done:  E(UB3LYP) =  -540.116389247     A.U. after   28 cycles

 The electronic state is 2-A.
 Alpha  occ. eigenvalues --  -19.01440 -18.93888 -10.12456 -10.05980 -10.05053
 Alpha  occ. eigenvalues --  -10.04914 -10.03478 -10.02711 -10.01190 -10.00846
 Alpha  occ. eigenvalues --  -10.00240  -9.97661  -0.94997  -0.85409  -0.70268
 Alpha  occ. eigenvalues --   -0.64818  -0.61870  -0.57378  -0.56774  -0.48653
 Alpha  occ. eigenvalues --   -0.48519  -0.46684  -0.40969  -0.35585  -0.34368
 Alpha  occ. eigenvalues --   -0.34150  -0.32871  -0.31578  -0.29934  -0.29649
 Alpha  occ. eigenvalues --   -0.29202  -0.27928  -0.26666  -0.26549  -0.24545
 Alpha  occ. eigenvalues --   -0.22838  -0.22473  -0.21560  -0.21082  -0.18252
 Alpha  occ. eigenvalues --   -0.17477  -0.15379  -0.12572  -0.11361  -0.08195
 Alpha  occ. eigenvalues --    0.04996
 Alpha virt. eigenvalues --    0.07797   0.09833   0.09848   0.09901   0.11000
 Alpha virt. eigenvalues --    0.11764   0.12392   0.12737   0.13111   0.13879
 Alpha virt. eigenvalues --    0.14618   0.15074   0.15425   0.15644   0.16637

  Beta  occ. eigenvalues --  -19.01433 -18.93633 -10.12288 -10.05965 -10.05046
  Beta  occ. eigenvalues --  -10.04928 -10.03464 -10.02658 -10.01141 -10.00659
  Beta  occ. eigenvalues --  -10.00182  -9.97046  -0.94831  -0.85064  -0.70175
  Beta  occ. eigenvalues --   -0.64443  -0.61568  -0.57006  -0.56685  -0.48516
  Beta  occ. eigenvalues --   -0.47600  -0.46378  -0.40664  -0.35391  -0.34243
  Beta  occ. eigenvalues --   -0.34069  -0.32680  -0.31283  -0.29837  -0.29525
  Beta  occ. eigenvalues --   -0.28441  -0.27800  -0.26625  -0.26365  -0.24340
  Beta  occ. eigenvalues --   -0.22782  -0.22261  -0.21474  -0.20852  -0.18037
  Beta  occ. eigenvalues --   -0.16736  -0.13994  -0.12300  -0.11112  -0.06026
  Beta virt. eigenvalues --    0.07703   0.09692   0.09776   0.09848   0.10825
  Beta virt. eigenvalues --    0.11158   0.12055   0.12584   0.12796   0.13060
  Beta virt. eigenvalues --    0.14018   0.14589   0.15204   0.15673   0.16074

 Mulliken charges and spin densities:
               1          2
     1  C   -0.498797  -0.064570
     2  C    0.155740  -0.040106
     3  C   -0.488030  -0.140286
     4  C    0.793130   0.077412
     5  C   -0.514031   0.011188
     6  C   -0.578033   0.113861
     7  C   -0.779216   0.062994
     8  C    0.881691  -0.077473
     9  C   -0.870509   0.649502
    10  C   -0.208825   0.084711
    11  O   -0.414650   0.084753
    12  O   -0.216228  -0.000199
    13  H    0.165477  -0.008616
    14  H    0.086282   0.067885
    15  H    0.056560   0.059511
    16  H    0.090922   0.041104
    17  H    0.132700   0.029385
    18  H    0.100652   0.022714
    19  H    0.065955   0.052191
    20  H    0.117413   0.026105
    21  H    0.075268   0.001145
    22  H    0.153746  -0.005222
    23  H    0.179456  -0.002849
    24  H    0.116367  -0.027897
    25  H    0.148347  -0.015829
    26  H    0.248612  -0.001414
 Sum of Mulliken charges =  -1.00000   1.00000

 Dipole moment (field-independent basis, Debye):
    X=             -3.7569    Y=              0.6877    Z=              1.2043  Tot=              4.0047
 Quadrupole moment (field-independent basis, Debye-Ang):
   XX=           -103.8320   YY=            -91.1507   ZZ=            -88.0035
   XY=             -1.8362   XZ=              3.5252   YZ=              2.2253

 Summary of Natural Population Analysis:

                                       Natural Population
                Natural  -----------------------------------------------
    Atom  No    Charge         Core      Valence    Rydberg      Total
 -----------------------------------------------------------------------
      C    1   -0.28365      0.99965     2.27856    0.00544     3.28365
      C    2   -0.11909      0.99957     2.10968    0.00984     3.11909
      C    3   -0.28238      0.99965     2.27784    0.00489     3.28238
      C    4   -0.00116      0.99949     1.98784    0.01382     3.00116
      C    5   -0.19435      0.99950     2.18782    0.00703     3.19435
      C    6   -0.10438      0.99949     2.09449    0.01040     3.10438
      C    7   -0.07576      0.99951     2.06733    0.00892     3.07576
      C    8   -0.11396      0.99946     2.10182    0.01268     3.11396
      C    9   -0.01321      0.99956     2.00534    0.00831     3.01321
      C   10    0.41475      0.99966     1.55975    0.02584     2.58525
      O   11   -0.31522      0.99987     3.30904    0.00631     4.31522
      O   12   -0.35725      0.99988     3.34998    0.00739     4.35725
      H   13    0.10689      0.00000     0.39217    0.00093     0.39311
      H   14    0.10710      0.00000     0.39190    0.00100     0.39290
      H   15    0.08791      0.00000     0.41115    0.00094     0.41209
      H   16    0.08718      0.00000     0.41041    0.00241     0.41282
      H   17    0.10116      0.00000     0.39782    0.00102     0.39884
      H   18    0.09615      0.00000     0.40300    0.00084     0.40385
      H   19    0.09242      0.00000     0.40665    0.00092     0.40758
      H   20    0.09494      0.00000     0.40398    0.00108     0.40506
      H   21    0.08315      0.00000     0.41582    0.00104     0.41685
      H   22    0.08910      0.00000     0.40936    0.00154     0.41090
      H   23    0.10296      0.00000     0.39590    0.00114     0.39704
      H   24    0.08555      0.00000     0.41354    0.00091     0.41445
      H   25    0.08401      0.00000     0.41479    0.00119     0.41599
      H   26    0.22713      0.00000     0.26798    0.00489     0.27287
 =======================================================================
   * Total *    0.00000     11.99529    32.86396    0.14075    45.00000

 Normal termination of Gaussian 16 at Wed Dec  9 18:32:39 2020.
