 Gaussian 16, Revision A.03,

 -----------------------------------------------------------
 # opt freq B3LYP/6-31G(d) empiricaldispersion=gd3bj scf=xqc
 -----------------------------------------------------------

 ------------------------------
 CID_23044615_JID_3387_neutraal
 ------------------------------
 Symbolic Z-matrix:
 Charge =  0 Multiplicity = 1

 SCF Done:  E(RB3LYP) =  -618.790118766     A.U. after   12 cycles
 SCF Done:  E(RB3LYP) =  -618.793123019     A.U. after   11 cycles
 SCF Done:  E(RB3LYP) =  -618.793503255     A.U. after   10 cycles
 SCF Done:  E(RB3LYP) =  -618.793549572     A.U. after   10 cycles
 SCF Done:  E(RB3LYP) =  -618.793567469     A.U. after    9 cycles
 SCF Done:  E(RB3LYP) =  -618.793596584     A.U. after   10 cycles
 SCF Done:  E(RB3LYP) =  -618.793635370     A.U. after   10 cycles
 SCF Done:  E(RB3LYP) =  -618.793697760     A.U. after   10 cycles
 SCF Done:  E(RB3LYP) =  -618.793725371     A.U. after   10 cycles
 SCF Done:  E(RB3LYP) =  -618.793446717     A.U. after   11 cycles
 SCF Done:  E(RB3LYP) =  -618.795678345     A.U. after   10 cycles
 SCF Done:  E(RB3LYP) =  -618.795683255     A.U. after    9 cycles
 SCF Done:  E(RB3LYP) =  -618.795685260     A.U. after    9 cycles
 SCF Done:  E(RB3LYP) =  -618.795685541     A.U. after    7 cycles
 SCF Done:  E(RB3LYP) =  -618.795685470     A.U. after    7 cycles
 SCF Done:  E(RB3LYP) =  -618.795685595     A.U. after    7 cycles
 Optimization completed.
    -- Stationary point found.
 Normal termination of Gaussian 16 at Wed Dec  9 23:17:34 2020.

 --------------------------------------------------------------------
 #N Geom=AllCheck Guess=TCheck SCRF=Check GenChk RB3LYP/6-31G(d) Freq
 --------------------------------------------------------------------

 Structure from the checkpoint file:  "JID_3387.chk"
 ------------------------------
 CID_23044615_JID_3387_neutraal
 ------------------------------
 Charge =  0 Multiplicity = 1

 SCF Done:  E(RB3LYP) =  -618.795685595     A.U. after    1 cycles

  Exact polarizability: 131.660  -1.238 106.446  -0.037  -0.022 106.839
 Approx polarizability: 155.471  -0.903 149.098  -0.643  -2.396 151.763

                      1                      2                      3
                      A                      A                      A
 Frequencies --     22.2018                27.5619                51.6356
 Red. masses --      3.0307                 2.7846                 3.2981
 Frc consts  --      0.0009                 0.0012                 0.0052
 IR Inten    --      0.0508                 0.0757                 0.8568

                      4                      5                      6
                      A                      A                      A
 Frequencies --     56.3236                80.6658                97.0635
 Red. masses --      3.6610                 2.6836                 3.4348
 Frc consts  --      0.0068                 0.0103                 0.0191
 IR Inten    --      2.5385                 1.7476                 0.4987

                      7                      8                      9
                      A                      A                      A
 Frequencies --    138.9629               161.9217               170.6392
 Red. masses --      1.9985                 2.5348                 1.7490
 Frc consts  --      0.0227                 0.0392                 0.0300
 IR Inten    --      1.4690                 1.0518                 0.8016

                     10                     11                     12
                      A                      A                      A
 Frequencies --    191.2890               228.4711               256.7806
 Red. masses --      1.9465                 1.5877                 2.1195
 Frc consts  --      0.0420                 0.0488                 0.0823
 IR Inten    --      4.0053                 1.9352                 2.0620

                     13                     14                     15
                      A                      A                      A
 Frequencies --    280.4417               293.3652               315.6203
 Red. masses --      2.4914                 2.3556                 1.9934
 Frc consts  --      0.1154                 0.1194                 0.1170
 IR Inten    --      2.1978                 0.8591                 1.2100

                     16                     17                     18
                      A                      A                      A
 Frequencies --    384.3979               413.1991               436.4025
 Red. masses --      3.1621                 2.7306                 2.6339
 Frc consts  --      0.2753                 0.2747                 0.2955
 IR Inten    --      2.2318                 0.2853                 4.4680

                     19                     20                     21
                      A                      A                      A
 Frequencies --    506.3128               574.7258               756.0433
 Red. masses --      2.4629                 2.7486                 4.1700
 Frc consts  --      0.3720                 0.5349                 1.4044
 IR Inten    --      0.5360                 1.5031                13.1287

                     22                     23                     24
                      A                      A                      A
 Frequencies --    772.0022               782.5914               820.6163
 Red. masses --      1.4057                 1.3897                 3.5178
 Frc consts  --      0.4936                 0.5015                 1.3957
 IR Inten    --      5.1790                 0.7314                 2.9711

                     25                     26                     27
                      A                      A                      A
 Frequencies --    884.7121               889.1984               897.3545
 Red. masses --      2.4734                 2.4414                 2.3916
 Frc consts  --      1.1406                 1.1373                 1.1347
 IR Inten    --      2.9535                 8.3807                 2.8680

                     28                     29                     30
                      A                      A                      A
 Frequencies --    905.4893               930.1224               936.9647
 Red. masses --      2.5074                 1.9291                 1.4492
 Frc consts  --      1.2113                 0.9833                 0.7496
 IR Inten    --     12.8068                 9.9952                 5.7885

                     31                     32                     33
                      A                      A                      A
 Frequencies --    941.2263               960.2300               966.8039
 Red. masses --      1.6714                 1.9543                 2.1300
 Frc consts  --      0.8724                 1.0616                 1.1730
 IR Inten    --     10.6783                 3.0392                11.0562

                     34                     35                     36
                      A                      A                      A
 Frequencies --   1028.9208              1036.2980              1087.5685
 Red. masses --      1.8694                 1.7916                 1.7800
 Frc consts  --      1.1661                 1.1336                 1.2405
 IR Inten    --     34.0328                29.7627                 4.6631

                     37                     38                     39
                      A                      A                      A
 Frequencies --   1091.8286              1101.6779              1133.6785
 Red. masses --      2.0519                 2.4933                 6.0806
 Frc consts  --      1.4411                 1.7829                 4.6045
 IR Inten    --      5.9917                18.4120                98.8485

                     40                     41                     42
                      A                      A                      A
 Frequencies --   1141.3621              1159.5273              1162.8531
 Red. masses --      2.3066                 3.0511                 2.7064
 Frc consts  --      1.7704                 2.4169                 2.1562
 IR Inten    --     95.4502                45.5982                40.4235

                     43                     44                     45
                      A                      A                      A
 Frequencies --   1164.4215              1193.3021              1194.8107
 Red. masses --      3.3787                 1.7948                 1.8502
 Frc consts  --      2.6991                 1.5058                 1.5562
 IR Inten    --    173.9632                 7.8885                 2.4546

                     46                     47                     48
                      A                      A                      A
 Frequencies --   1233.1356              1241.6404              1286.3097
 Red. masses --      1.5215                 1.2631                 1.1786
 Frc consts  --      1.3631                 1.1473                 1.1490
 IR Inten    --      1.9161                67.6001                 2.4226

                     49                     50                     51
                      A                      A                      A
 Frequencies --   1287.1545              1292.0707              1317.8467
 Red. masses --      1.1717                 1.3556                 1.2468
 Frc consts  --      1.1437                 1.3334                 1.2758
 IR Inten    --      3.1708                 1.8935                 1.0677

                     52                     53                     54
                      A                      A                      A
 Frequencies --   1322.8594              1327.0288              1358.2079
 Red. masses --      1.1748                 1.2211                 1.2172
 Frc consts  --      1.2113                 1.2669                 1.3230
 IR Inten    --      0.9280                 4.0043                40.8677

                     55                     56                     57
                      A                      A                      A
 Frequencies --   1381.7584              1386.6490              1397.5829
 Red. masses --      1.4631                 1.2608                 1.3864
 Frc consts  --      1.6458                 1.4283                 1.5955
 IR Inten    --     21.6656                34.0079                 5.1567

                     58                     59                     60
                      A                      A                      A
 Frequencies --   1401.0775              1423.5850              1434.4714
 Red. masses --      1.3967                 1.4145                 1.3481
 Frc consts  --      1.6154                 1.6890                 1.6344
 IR Inten    --      1.5641                 0.7512                 4.5020

                     61                     62                     63
                      A                      A                      A
 Frequencies --   1436.4932              1453.5608              1459.6723
 Red. masses --      1.3424                 1.3544                 1.4155
 Frc consts  --      1.6320                 1.6860                 1.7769
 IR Inten    --      3.5013                22.6359                 0.4907

                     64                     65                     66
                      A                      A                      A
 Frequencies --   1509.4807              1509.7783              1525.1667
 Red. masses --      1.0796                 1.0796                 1.0514
 Frc consts  --      1.4493                 1.4499                 1.4410
 IR Inten    --      1.5256                 1.7744                 6.3375

                     67                     68                     69
                      A                      A                      A
 Frequencies --   1525.6918              1528.1167              1539.2568
 Red. masses --      1.0447                 1.0795                 1.0746
 Frc consts  --      1.4328                 1.4851                 1.5000
 IR Inten    --      2.7169                 2.3415                 9.9683

                     70                     71                     72
                      A                      A                      A
 Frequencies --   1540.4770              1542.0447              1551.5708
 Red. masses --      1.0588                 1.0820                 1.0858
 Frc consts  --      1.4804                 1.5159                 1.5400
 IR Inten    --      4.5194                 7.5679                 2.3155

                     73                     74                     75
                      A                      A                      A
 Frequencies --   1552.1137              2973.2188              2984.7666
 Red. masses --      1.0841                 1.0637                 1.0550
 Frc consts  --      1.5387                 5.5400                 5.5376
 IR Inten    --      9.7110                39.7712                35.9747

                     76                     77                     78
                      A                      A                      A
 Frequencies --   3012.3983              3017.5237              3019.7415
 Red. masses --      1.1007                 1.0754                 1.0932
 Frc consts  --      5.8851                 5.7691                 5.8733
 IR Inten    --     55.2628                14.0194                41.3218

                     79                     80                     81
                      A                      A                      A
 Frequencies --   3037.4589              3045.3895              3048.3405
 Red. masses --      1.0821                 1.0726                 1.0403
 Frc consts  --      5.8823                 5.8612                 5.6954
 IR Inten    --     96.6978                19.2904                24.3850

                     82                     83                     84
                      A                      A                      A
 Frequencies --   3049.4105              3049.5366              3050.0899
 Red. masses --      1.0622                 1.0425                 1.0624
 Frc consts  --      5.8193                 5.7122                 5.8231
 IR Inten    --     32.1409                52.5433                31.7357

                     85                     86                     87
                      A                      A                      A
 Frequencies --   3058.8307              3084.4945              3084.9245
 Red. masses --      1.0746                 1.1008                 1.1006
 Frc consts  --      5.9240                 6.1705                 6.1714
 IR Inten    --     47.2021                17.7035                24.0745

                     88                     89                     90
                      A                      A                      A
 Frequencies --   3101.3529              3102.7401              3113.2905
 Red. masses --      1.0954                 1.1069                 1.1002
 Frc consts  --      6.2078                 6.2783                 6.2830
 IR Inten    --     32.4728                52.2376                52.7423

                     91                     92                     93
                      A                      A                      A
 Frequencies --   3113.9632              3138.5458              3139.2127
 Red. masses --      1.1007                 1.1017                 1.1015
 Frc consts  --      6.2882                 6.3939                 6.3955
 IR Inten    --     46.6005                31.4207                32.6031

 - Thermochemistry -
 -------------------
 Temperature   298.150 Kelvin.  Pressure   1.00000 Atm.
 Atom     1 has atomic number  6 and mass  12.00000

 Molecular mass:   188.14124 amu.
 Principal axes and moments of inertia in atomic units:
                           1         2         3
     Eigenvalues --  1552.811554635.538055273.70757
           X            0.99998   0.00115   0.00669
           Y           -0.00118   0.99999   0.00465
           Z           -0.00668  -0.00466   0.99997
 This molecule is an asymmetric top.
 Rotational symmetry number  1.
 Warning -- assumption of classical behavior for rotation
           may cause significant error
 Rotational temperatures (Kelvin)      0.05578     0.01868     0.01642
 Rotational constants (GHZ):           1.16224     0.38933     0.34221
 Zero-point vibrational energy     781266.8 (Joules/Mol)
                                  186.72726 (Kcal/Mol)
 Warning -- explicit consideration of  20 degrees of freedom as
           vibrations may cause significant error
 Vibrational temperatures:     31.94    39.66    74.29    81.04   116.06
          (Kelvin)            139.65   199.94   232.97   245.51   275.22
                              328.72   369.45   403.49   422.09   454.11
                              553.06   594.50   627.89   728.47   826.90
                             1087.78  1110.74  1125.97  1180.68  1272.90
                             1279.36  1291.09  1302.80  1338.24  1348.08
                             1354.21  1381.56  1391.02  1480.39  1491.00
                             1564.77  1570.90  1585.07  1631.11  1642.17
                             1668.30  1673.09  1675.34  1716.90  1719.07
                             1774.21  1786.44  1850.71  1851.93  1859.00
                             1896.09  1903.30  1909.30  1954.16  1988.04
                             1995.08  2010.81  2015.84  2048.22  2063.88
                             2066.79  2091.35  2100.14  2171.81  2172.23
                             2194.37  2195.13  2198.62  2214.65  2216.40
                             2218.66  2232.36  2233.15  4277.80  4294.41
                             4334.17  4341.54  4344.73  4370.23  4381.64
                             4385.88  4387.42  4387.60  4388.40  4400.98
                             4437.90  4438.52  4462.16  4464.15  4479.33
                             4480.30  4515.67  4516.63

 Zero-point correction=                           0.297569 (Hartree/Particle)
 Thermal correction to Energy=                    0.312641
 Thermal correction to Enthalpy=                  0.313585
 Thermal correction to Gibbs Free Energy=         0.252868
 Sum of electronic and zero-point Energies=           -618.498117
 Sum of electronic and thermal Energies=              -618.483044
 Sum of electronic and thermal Enthalpies=            -618.482100
 Sum of electronic and thermal Free Energies=         -618.542818

                     E (Thermal)             CV                S
                      KCal/Mol        Cal/Mol-Kelvin    Cal/Mol-Kelvin
 Total                  196.185             53.604            127.791
 Electronic               0.000              0.000              0.000
 Translational            0.889              2.981             41.602
 Rotational               0.889              2.981             32.007
 Vibrational            194.408             47.642             54.182
 Vibration     1          0.593              1.985              6.427
 Vibration     2          0.593              1.984              5.998
 Vibration     3          0.596              1.977              4.754
 Vibration     4          0.596              1.975              4.582
 Vibration     5          0.600              1.962              3.875
 Vibration     6          0.603              1.951              3.512
 Vibration     7          0.615              1.914              2.818
 Vibration     8          0.622              1.889              2.527
 Vibration     9          0.626              1.879              2.428
 Vibration    10          0.634              1.852              2.215
 Vibration    11          0.651              1.798              1.891
 Vibration    12          0.666              1.751              1.684
 Vibration    13          0.680              1.710              1.531
 Vibration    14          0.688              1.686              1.454
 Vibration    15          0.703              1.644              1.333
 Vibration    16          0.753              1.503              1.022
 Vibration    17          0.777              1.442              0.915
 Vibration    18          0.797              1.391              0.838
 Vibration    19          0.862              1.236              0.643
 Vibration    20          0.931              1.086              0.495

                           ! Non-Optimized Parameters !
 Normal termination of Gaussian 16 at Wed Dec  9 23:25:31 2020.

 ----------------------------------------------------------------------
 # B3LYP/6-311++G(d,p) empiricaldispersion=gd3bj scf=xqc pop=npa geom=c
 heck
 ----------------------------------------------------------------------

 --------------------------------------
 CID_23044615_JID_3387_Energie_neutraal
 --------------------------------------
 Structure from the checkpoint file:  "JID_3387.chk"
 Charge =  0 Multiplicity = 1

 SCF Done:  E(RB3LYP) =  -618.977208687     A.U. after   13 cycles
 Normal termination of Gaussian 16 at Wed Dec  9 23:28:33 2020.

 ----------------------------------------------------------------------
 # B3LYP/6-311++G(d,p) empiricaldispersion=gd3bj scf=xqc pop=npa geom=c
 heck
 ----------------------------------------------------------------------

 ------------------------------------
 CID_23044615_JID_3387_Energie_kation
 ------------------------------------
 Structure from the checkpoint file:  "JID_3387.chk"
 Charge =  1 Multiplicity = 2

 SCF Done:  E(UB3LYP) =  -618.650790755     A.U. after   28 cycles
 Normal termination of Gaussian 16 at Wed Dec  9 23:37:05 2020.
 Gaussian 16:  ES64L-G16RevA.03 25-Dec-2016

 ----------------------------------------------------------------------
 # B3LYP/6-311++G(d,p) empiricaldispersion=gd3bj scf=xqc pop=npa geom=c
 heck
 ----------------------------------------------------------------------

 -----------------------------------
 CID_23044615_JID_3387_Energie_anion
 -----------------------------------
 Structure from the checkpoint file:  "JID_3387.chk"
 Charge = -1 Multiplicity = 2

                         Standard orientation:
 ---------------------------------------------------------------------
 Center     Atomic      Atomic             Coordinates (Angstroms)
 Number     Number       Type             X           Y           Z
 ---------------------------------------------------------------------
      1          6           0       -3.929456   -1.728229   -0.657804
      2          6           0       -3.955342   -0.573157    0.345470
      3          6           0       -2.596862   -0.310672    0.980957
      4          8           0       -1.686945    0.053865   -0.045522
      5          6           0       -0.343908    0.201866    0.378908
      6          6           0       -0.070235    1.537986    1.073514
      7          8           0        0.043611    2.508497    0.036355
      8          6           0        0.310153    1.849576   -1.205427
      9          6           0        0.503787    0.364917   -0.895301
     10          8           0        1.877072    0.137382   -0.626692
     11          6           0        2.254938   -1.232510   -0.634365
     12          6           0        3.711244   -1.328319   -0.202196
     13          6           0        3.936710   -0.830457    1.227316
     14          1           0       -3.632338   -2.665077   -0.170111
     15          1           0       -3.211995   -1.524409   -1.457730
     16          1           0       -4.915048   -1.883151   -1.109604
     17          1           0       -4.288896    0.347703   -0.148702
     18          1           0       -4.673432   -0.780937    1.149482
     19          1           0       -2.674539    0.487929    1.734519
     20          1           0       -2.230929   -1.216288    1.495970
     21          1           0       -0.032907   -0.658503    0.988820
     22          1           0       -0.873701    1.843665    1.751196
     23          1           0        0.867591    1.470298    1.644650
     24          1           0        1.213121    2.267600   -1.662626
     25          1           0       -0.542584    1.994245   -1.880151
     26          1           0        0.143087   -0.288768   -1.700471
     27          1           0        1.620145   -1.816124    0.051922
     28          1           0        2.114832   -1.649476   -1.645088
     29          1           0        4.027579   -2.375331   -0.296754
     30          1           0        4.320925   -0.745836   -0.903890
     31          1           0        3.354110   -1.421767    1.945027
     32          1           0        4.991815   -0.904010    1.511528
     33          1           0        3.627097    0.214266    1.322454
 ---------------------------------------------------------------------

 SCF Done:  E(UB3LYP) =  -618.961979232     A.U. after   27 cycles

 The electronic state is 2-A.
 Alpha  occ. eigenvalues --  -19.03404 -19.03207 -19.02721 -10.13254 -10.12962
 Alpha  occ. eigenvalues --  -10.12161 -10.11882 -10.11872 -10.11800 -10.07181
 Alpha  occ. eigenvalues --  -10.07119 -10.05937 -10.05797  -0.96466  -0.94347
 Alpha  occ. eigenvalues --   -0.93235  -0.70866  -0.68901  -0.65661  -0.64645
 Alpha  occ. eigenvalues --   -0.58845  -0.57295  -0.51384  -0.50459  -0.48703
 Alpha  occ. eigenvalues --   -0.48490  -0.43373  -0.42324  -0.40051  -0.38502
 Alpha  occ. eigenvalues --   -0.37440  -0.35939  -0.35098  -0.33584  -0.33225
 Alpha  occ. eigenvalues --   -0.32774  -0.31572  -0.31490  -0.29155  -0.28599
 Alpha  occ. eigenvalues --   -0.27062  -0.26369  -0.25709  -0.24996  -0.24697
 Alpha  occ. eigenvalues --   -0.24332  -0.23420  -0.22865  -0.21974  -0.17716
 Alpha  occ. eigenvalues --   -0.16417  -0.15997   0.04495
 Alpha virt. eigenvalues --    0.06299   0.07187   0.07771   0.07975   0.08464
 Alpha virt. eigenvalues --    0.09196   0.09754   0.10156   0.10515   0.11101
 Alpha virt. eigenvalues --    0.11324   0.12131   0.12857   0.13149   0.13387

  Beta  occ. eigenvalues --  -19.03396 -19.03197 -19.02721 -10.13249 -10.12951
  Beta  occ. eigenvalues --  -10.12157 -10.11861 -10.11857 -10.11773 -10.07160
  Beta  occ. eigenvalues --  -10.07100 -10.05907 -10.05768  -0.96455  -0.94332
  Beta  occ. eigenvalues --   -0.93228  -0.70839  -0.68863  -0.65629  -0.64624
  Beta  occ. eigenvalues --   -0.58792  -0.57237  -0.51347  -0.50425  -0.48628
  Beta  occ. eigenvalues --   -0.48428  -0.43331  -0.42297  -0.40009  -0.38481
  Beta  occ. eigenvalues --   -0.37416  -0.35909  -0.35072  -0.33553  -0.33195
  Beta  occ. eigenvalues --   -0.32743  -0.31543  -0.31452  -0.29131  -0.28565
  Beta  occ. eigenvalues --   -0.27026  -0.26327  -0.25667  -0.24953  -0.24656
  Beta  occ. eigenvalues --   -0.24298  -0.23390  -0.22809  -0.21928  -0.17697
  Beta  occ. eigenvalues --   -0.16401  -0.15988
  Beta virt. eigenvalues --    0.06677   0.07177   0.07747   0.08161   0.08634
  Beta virt. eigenvalues --    0.08859   0.09487   0.10088   0.10605   0.10909
  Beta virt. eigenvalues --    0.11435   0.11553   0.12362   0.13138   0.13464

 Mulliken charges and spin densities:
               1          2
     1  C    0.615894  -1.096605
     2  C   -0.702620   0.412630
     3  C    1.048970  -1.130462
     4  O   -0.000399   0.042834
     5  C   -0.888028   0.429283
     6  C    0.173668  -0.448700
     7  O   -0.151541   0.019114
     8  C   -0.058072  -0.162870
     9  C   -0.251242   0.054951
    10  O   -0.012956   0.031141
    11  C    0.887706  -1.004302
    12  C   -0.695509   0.391201
    13  C    0.696859  -1.143842
    14  H   -0.140824   0.273260
    15  H    0.035370   0.113140
    16  H   -0.348786   0.481332
    17  H    0.120389   0.011858
    18  H   -0.262586   0.402481
    19  H   -0.222549   0.327138
    20  H   -0.459500   0.599258
    21  H    0.388267  -0.237847
    22  H    0.058328   0.150011
    23  H   -0.029006   0.179557
    24  H    0.149840   0.028596
    25  H    0.101780   0.053780
    26  H    0.169336   0.023844
    27  H   -0.251837   0.391556
    28  H   -0.353382   0.488320
    29  H   -0.245206   0.389831
    30  H    0.031253   0.102683
    31  H   -0.319725   0.452683
    32  H   -0.252796   0.395323
    33  H    0.168901  -0.021175
 Sum of Mulliken charges =  -1.00000   1.00000

 Dipole moment (field-independent basis, Debye):
    X=              0.7281    Y=              5.1182    Z=             -2.6764  Tot=              5.8215
 Quadrupole moment (field-independent basis, Debye-Ang):
   XX=           -166.8033   YY=           -132.3303   ZZ=           -115.8129
   XY=             -0.3984   XZ=             -1.3535   YZ=              1.5456

 Summary of Natural Population Analysis:

                                       Natural Population
                Natural  -----------------------------------------------
    Atom  No    Charge         Core      Valence    Rydberg      Total
 -----------------------------------------------------------------------
      C    1   -0.28756      0.99967     2.28246    0.00543     3.28756
      C    2   -0.19811      0.99964     2.18954    0.00893     3.19811
      C    3   -0.00599      0.99957     1.99455    0.01187     3.00599
      O    4   -0.30703      0.99987     3.29688    0.01029     4.30703
      C    5    0.04258      0.99952     1.94357    0.01433     2.95742
      C    6   -0.02370      0.99957     2.01114    0.01299     3.02370
      O    7   -0.30278      0.99989     3.29476    0.00813     4.30278
      C    8   -0.01579      0.99957     2.00488    0.01135     3.01579
      C    9    0.04805      0.99953     1.93710    0.01533     2.95195
      O   10   -0.30723      0.99987     3.29768    0.00967     4.30723
      C   11   -0.00696      0.99957     1.99502    0.01236     3.00696
      C   12   -0.19842      0.99964     2.18987    0.00891     3.19842
      C   13   -0.28765      0.99966     2.28221    0.00578     3.28765
      H   14    0.09811      0.00000     0.40068    0.00121     0.40189
      H   15    0.10190      0.00000     0.39669    0.00141     0.39810
      H   16    0.09668      0.00000     0.40232    0.00101     0.40332
      H   17    0.09515      0.00000     0.40369    0.00116     0.40485
      H   18    0.09857      0.00000     0.40009    0.00134     0.40143
      H   19    0.08013      0.00000     0.41819    0.00168     0.41987
      H   20    0.08072      0.00000     0.41704    0.00224     0.41928
      H   21    0.09380      0.00000     0.40413    0.00207     0.40620
      H   22    0.09208      0.00000     0.40645    0.00147     0.40792
      H   23    0.08668      0.00000     0.41162    0.00170     0.41332
      H   24    0.09150      0.00000     0.40702    0.00149     0.40850
      H   25    0.08772      0.00000     0.41100    0.00128     0.41228
      H   26    0.09464      0.00000     0.40375    0.00161     0.40536
      H   27    0.08105      0.00000     0.41682    0.00213     0.41895
      H   28    0.08115      0.00000     0.41718    0.00167     0.41885
      H   29    0.09966      0.00000     0.39884    0.00150     0.40034
      H   30    0.09463      0.00000     0.40415    0.00121     0.40537
      H   31    0.09819      0.00000     0.40045    0.00136     0.40181
      H   32    0.09720      0.00000     0.40184    0.00096     0.40280
      H   33    0.10105      0.00000     0.39758    0.00137     0.39895
 =======================================================================
   * Total *    0.00000     12.99558    38.83919    0.16523    52.00000

 Normal termination of Gaussian 16 at Wed Dec  9 23:45:22 2020.
