 Gaussian 16, Revision A.03,

 -----------------------------------------------------------
 # opt freq B3LYP/6-31G(d) empiricaldispersion=gd3bj scf=xqc
 -----------------------------------------------------------

 -------------------------------
 CID_106597922_JID_9409_neutraal
 -------------------------------
 Symbolic Z-matrix:
 Charge =  0 Multiplicity = 1

 SCF Done:  E(RB3LYP) =  -1578.55383767     A.U. after   15 cycles
 SCF Done:  E(RB3LYP) =  -1578.56087248     A.U. after   14 cycles
 SCF Done:  E(RB3LYP) =  -1578.56315082     A.U. after   14 cycles
 SCF Done:  E(RB3LYP) =  -1578.56503284     A.U. after   14 cycles
 SCF Done:  E(RB3LYP) =  -1578.56538268     A.U. after   13 cycles
 SCF Done:  E(RB3LYP) =  -1578.56585561     A.U. after   13 cycles
 SCF Done:  E(RB3LYP) =  -1578.56624104     A.U. after   12 cycles
 SCF Done:  E(RB3LYP) =  -1578.56632510     A.U. after   12 cycles
 SCF Done:  E(RB3LYP) =  -1578.56633332     A.U. after   10 cycles
 SCF Done:  E(RB3LYP) =  -1578.56633557     A.U. after    9 cycles
 SCF Done:  E(RB3LYP) =  -1578.56633647     A.U. after    8 cycles
 SCF Done:  E(RB3LYP) =  -1578.56633657     A.U. after    7 cycles
 SCF Done:  E(RB3LYP) =  -1578.56633660     A.U. after    7 cycles
 SCF Done:  E(RB3LYP) =  -1578.56633661     A.U. after    7 cycles
 Optimization completed.
    -- Stationary point found.
 Normal termination of Gaussian 16 at Sun Dec 13 16:14:47 2020.

 --------------------------------------------------------------------
 #N Geom=AllCheck Guess=TCheck SCRF=Check GenChk RB3LYP/6-31G(d) Freq
 --------------------------------------------------------------------

 Structure from the checkpoint file:  "JID_9409.chk"
 -------------------------------
 CID_106597922_JID_9409_neutraal
 -------------------------------
 Charge =  0 Multiplicity = 1

 SCF Done:  E(RB3LYP) =  -1578.56633661     A.U. after    1 cycles

  Exact polarizability: 218.603  -5.723 194.802  10.982   6.752 135.690
 Approx polarizability: 308.469 -25.889 320.106  13.674  10.400 226.493

                      1                      2                      3
                      A                      A                      A
 Frequencies --     14.7674                22.7773                41.8832
 Red. masses --      5.0472                 5.2523                 4.1036
 Frc consts  --      0.0006                 0.0016                 0.0042
 IR Inten    --      0.2033                 0.6940                 0.1360

                      4                      5                      6
                      A                      A                      A
 Frequencies --     49.0379                67.0212                69.5266
 Red. masses --      6.4935                 3.0394                 6.1081
 Frc consts  --      0.0092                 0.0080                 0.0174
 IR Inten    --      0.5066                 0.0691                 0.7745

                      7                      8                      9
                      A                      A                      A
 Frequencies --     95.4590               142.5141               146.6650
 Red. masses --      5.3988                 4.2931                 5.9265
 Frc consts  --      0.0290                 0.0514                 0.0751
 IR Inten    --      4.6282                 1.2651                 1.7397

                     10                     11                     12
                      A                      A                      A
 Frequencies --    184.3393               189.6909               203.6832
 Red. masses --      4.7243                 4.5866                 2.7878
 Frc consts  --      0.0946                 0.0972                 0.0681
 IR Inten    --      5.9812                 1.9894                 1.3356

                     13                     14                     15
                      A                      A                      A
 Frequencies --    221.9825               254.3868               281.5389
 Red. masses --      6.7255                 7.2044                 2.3654
 Frc consts  --      0.1953                 0.2747                 0.1105
 IR Inten    --      1.3573                 1.1729                 0.5115

                     16                     17                     18
                      A                      A                      A
 Frequencies --    294.3877               328.8185               355.9124
 Red. masses --      4.9323                 6.3626                 4.1976
 Frc consts  --      0.2518                 0.4053                 0.3133
 IR Inten    --      4.8608                 1.7078                 2.1533

                     19                     20                     21
                      A                      A                      A
 Frequencies --    365.2277               374.0603               402.1718
 Red. masses --      3.3466                 4.2202                 1.9994
 Frc consts  --      0.2630                 0.3479                 0.1905
 IR Inten    --      2.8167                 7.1020                 1.2694

                     22                     23                     24
                      A                      A                      A
 Frequencies --    451.7036               452.4685               515.7762
 Red. masses --      5.2956                 4.7248                 2.9365
 Frc consts  --      0.6366                 0.5699                 0.4603
 IR Inten    --      4.4941                28.3225                 2.7615

                     25                     26                     27
                      A                      A                      A
 Frequencies --    530.4489               536.7666               570.5055
 Red. masses --      6.2724                 4.7884                 4.3447
 Frc consts  --      1.0398                 0.8129                 0.8332
 IR Inten    --     40.3628                10.9281                21.0777

                     28                     29                     30
                      A                      A                      A
 Frequencies --    580.3799               605.6619               656.0586
 Red. masses --      5.1857                 1.3311                 1.7054
 Frc consts  --      1.0292                 0.2877                 0.4325
 IR Inten    --     70.2115               124.1275                50.7275

                     31                     32                     33
                      A                      A                      A
 Frequencies --    657.0240               669.0794               710.4621
 Red. masses --      3.3948                 6.5922                 1.9376
 Frc consts  --      0.8634                 1.7387                 0.5762
 IR Inten    --    111.1389                15.9882                62.7771

                     34                     35                     36
                      A                      A                      A
 Frequencies --    744.3104               775.5061               785.2305
 Red. masses --      1.6544                 6.6097                 1.0750
 Frc consts  --      0.5400                 2.3421                 0.3905
 IR Inten    --      8.0353                20.3671                 0.2414

                     37                     38                     39
                      A                      A                      A
 Frequencies --    800.4335               821.2652               833.4321
 Red. masses --      4.8807                 1.3498                 1.2606
 Frc consts  --      1.8424                 0.5364                 0.5159
 IR Inten    --      8.6926                15.7798                 5.2820

                     40                     41                     42
                      A                      A                      A
 Frequencies --    847.4951               864.1886               911.5867
 Red. masses --      1.6503                 2.0231                 2.1180
 Frc consts  --      0.6984                 0.8902                 1.0370
 IR Inten    --      8.8608                39.1248                86.3363

                     43                     44                     45
                      A                      A                      A
 Frequencies --    922.7594               957.1355               962.9304
 Red. masses --      2.4900                 3.0916                 2.1528
 Frc consts  --      1.2492                 1.6687                 1.1761
 IR Inten    --     15.0094                14.6155                24.5514

                     46                     47                     48
                      A                      A                      A
 Frequencies --    985.0302               997.1437              1005.5931
 Red. masses --      1.3686                 2.2128                 1.3360
 Frc consts  --      0.7824                 1.2963                 0.7960
 IR Inten    --      0.5085                 7.3911                 0.6876

                     49                     50                     51
                      A                      A                      A
 Frequencies --   1048.6189              1052.5492              1065.8049
 Red. masses --      1.5602                 5.3396                 1.3409
 Frc consts  --      1.0108                 3.4854                 0.8974
 IR Inten    --     15.3118                18.1966                13.4300

                     52                     53                     54
                      A                      A                      A
 Frequencies --   1086.2602              1088.4387              1095.3543
 Red. masses --      1.3957                 2.5094                 2.4994
 Frc consts  --      0.9703                 1.7516                 1.7668
 IR Inten    --      2.4097                25.5700                20.7631

                     55                     56                     57
                      A                      A                      A
 Frequencies --   1117.2628              1132.8156              1148.1350
 Red. masses --      2.6284                 5.4837                 1.1444
 Frc consts  --      1.9331                 4.1461                 0.8888
 IR Inten    --      1.2135                90.9746                 0.6159

                     58                     59                     60
                      A                      A                      A
 Frequencies --   1165.3260              1174.3754              1194.3366
 Red. masses --      1.7855                 1.7930                 1.7923
 Frc consts  --      1.4286                 1.4570                 1.5063
 IR Inten    --     27.3029                10.6701                19.3793

                     61                     62                     63
                      A                      A                      A
 Frequencies --   1211.6464              1234.9262              1247.8816
 Red. masses --      1.3964                 1.4329                 1.3979
 Frc consts  --      1.2078                 1.2875                 1.2825
 IR Inten    --      0.7880                 5.9679                 7.4202

                     64                     65                     66
                      A                      A                      A
 Frequencies --   1267.1031              1278.8915              1296.5912
 Red. masses --      1.4641                 1.7585                 6.9813
 Frc consts  --      1.3849                 1.6946                 6.9150
 IR Inten    --      7.2165                14.2113                 4.5863

                     67                     68                     69
                      A                      A                      A
 Frequencies --   1315.8564              1338.2740              1366.0636
 Red. masses --      1.4526                 4.3052                 1.3577
 Frc consts  --      1.4818                 4.5429                 1.4928
 IR Inten    --     21.6684               157.8011                15.6081

                     70                     71                     72
                      A                      A                      A
 Frequencies --   1369.4865              1396.1589              1405.0804
 Red. masses --      2.4399                 1.2446                 1.4396
 Frc consts  --      2.6962                 1.4294                 1.6745
 IR Inten    --     37.4919                 5.4590                 6.2013

                     73                     74                     75
                      A                      A                      A
 Frequencies --   1428.7340              1443.2302              1450.7320
 Red. masses --      3.1432                 1.4683                 1.4932
 Frc consts  --      3.7803                 1.8019                 1.8515
 IR Inten    --    251.5102                 6.0093                 4.6720

                     76                     77                     78
                      A                      A                      A
 Frequencies --   1459.1797              1486.8943              1496.4728
 Red. masses --      2.6334                 2.3559                 1.0894
 Frc consts  --      3.3036                 3.0688                 1.4374
 IR Inten    --     27.6125                38.3997                 1.8751

                     79                     80                     81
                      A                      A                      A
 Frequencies --   1507.3635              1528.0691              1539.5251
 Red. masses --      1.0872                 1.1335                 1.3101
 Frc consts  --      1.4554                 1.5594                 1.8295
 IR Inten    --      5.5947                 4.9845                 0.5023

                     82                     83                     84
                      A                      A                      A
 Frequencies --   1547.5241              1603.1862              1631.6580
 Red. masses --      1.0869                 5.7211                 5.8129
 Frc consts  --      1.5336                 8.6636                 9.1181
 IR Inten    --     17.5476                46.5811                26.7465

                     85                     86                     87
                      A                      A                      A
 Frequencies --   1693.9106              3020.6600              3050.0762
 Red. masses --      1.2085                 1.0680                 1.0635
 Frc consts  --      2.0430                 5.7413                 5.8290
 IR Inten    --     96.5664                34.5533                14.2788

                     88                     89                     90
                      A                      A                      A
 Frequencies --   3068.3397              3068.6512              3094.6960
 Red. masses --      1.0814                 1.0710                 1.1007
 Frc consts  --      5.9983                 5.9423                 6.2112
 IR Inten    --     19.8807                18.9211                36.5956

                     91                     92                     93
                      A                      A                      A
 Frequencies --   3116.2580              3141.3256              3143.7414
 Red. masses --      1.1067                 1.0861                 1.0521
 Frc consts  --      6.3323                 6.3147                 6.1264
 IR Inten    --     36.7619                27.3161                17.7288

                     94                     95                     96
                      A                      A                      A
 Frequencies --   3149.3227              3186.4268              3219.4637
 Red. masses --      1.0607                 1.0900                 1.1190
 Frc consts  --      6.1984                 6.5208                 6.8335
 IR Inten    --      8.7408                18.4722                 0.3851

                     97                     98                     99
                      A                      A                      A
 Frequencies --   3221.1105              3233.5069              3238.4131
 Red. masses --      1.0918                 1.1159                 1.0945
 Frc consts  --      6.6742                 6.8743                 6.7629
 IR Inten    --      9.1347                21.5735                 4.4709

                    100                    101                    102
                      A                      A                      A
 Frequencies --   3445.2173              3481.8564              3635.0114
 Red. masses --      1.0571                 1.0735                 1.0936
 Frc consts  --      7.3929                 7.6681                 8.5138
 IR Inten    --    323.8218                19.1570                81.2789

 - Thermochemistry -
 -------------------
 Temperature   298.150 Kelvin.  Pressure   1.00000 Atm.
 Atom     1 has atomic number  6 and mass  12.00000

 Molecular mass:   299.07622 amu.
 Principal axes and moments of inertia in atomic units:
                           1         2         3
     Eigenvalues --  3262.24458********************
           X            0.99991   0.01238  -0.00422
           Y           -0.01237   0.99992   0.00212
           Z            0.00425  -0.00207   0.99999
 This molecule is an asymmetric top.
 Rotational symmetry number  1.
 Warning -- assumption of classical behavior for rotation
           may cause significant error
 Rotational temperatures (Kelvin)      0.02655     0.00815     0.00746
 Rotational constants (GHZ):           0.55322     0.16978     0.15549
 Zero-point vibrational energy     763720.0 (Joules/Mol)
                                  182.53347 (Kcal/Mol)
 Warning -- explicit consideration of  29 degrees of freedom as
           vibrations may cause significant error
 Vibrational temperatures:     21.25    32.77    60.26    70.55    96.43
          (Kelvin)            100.03   137.34   205.05   211.02   265.22
                              272.92   293.05   319.38   366.01   405.07
                              423.56   473.10   512.08   525.48   538.19
                              578.64   649.90   651.00   742.09   763.20
                              772.29   820.83   835.04   871.41   943.92
                              945.31   962.66  1022.20  1070.90  1115.78
                             1129.77  1151.65  1181.62  1199.12  1219.36
                             1243.37  1311.57  1327.64  1377.10  1385.44
                             1417.24  1434.67  1446.82  1508.73  1514.38
                             1533.46  1562.89  1566.02  1575.97  1607.49
                             1629.87  1651.91  1676.64  1689.66  1718.38
                             1743.29  1776.78  1795.42  1823.08  1840.04
                             1865.51  1893.22  1925.48  1965.46  1970.39
                             2008.76  2021.60  2055.63  2076.49  2087.28
                             2099.43  2139.31  2153.09  2168.76  2198.55
                             2215.03  2226.54  2306.63  2347.59  2437.16
                             4346.06  4388.38  4414.66  4415.10  4452.58
                             4483.60  4519.67  4523.14  4531.17  4584.56
                             4632.09  4634.46  4652.30  4659.35  4956.90
                             5009.61  5229.97

 Zero-point correction=                           0.290886 (Hartree/Particle)
 Thermal correction to Energy=                    0.309710
 Thermal correction to Enthalpy=                  0.310654
 Thermal correction to Gibbs Free Energy=         0.240866
 Sum of electronic and zero-point Energies=          -1578.275451
 Sum of electronic and thermal Energies=             -1578.256627
 Sum of electronic and thermal Enthalpies=           -1578.255682
 Sum of electronic and thermal Free Energies=        -1578.325470

                     E (Thermal)             CV                S
                      KCal/Mol        Cal/Mol-Kelvin    Cal/Mol-Kelvin
 Total                  194.346             70.783            146.881
 Electronic               0.000              0.000              0.000
 Translational            0.889              2.981             42.984
 Rotational               0.889              2.981             34.353
 Vibrational            192.569             64.822             69.545
 Vibration     1          0.593              1.986              7.237
 Vibration     2          0.593              1.985              6.376
 Vibration     3          0.595              1.980              5.168
 Vibration     4          0.595              1.978              4.856
 Vibration     5          0.598              1.970              4.239
 Vibration     6          0.598              1.969              4.167
 Vibration     7          0.603              1.952              3.545
 Vibration     8          0.616              1.911              2.770
 Vibration     9          0.617              1.906              2.715
 Vibration    10          0.631              1.861              2.284
 Vibration    11          0.633              1.854              2.231
 Vibration    12          0.639              1.835              2.100
 Vibration    13          0.648              1.808              1.943
 Vibration    14          0.665              1.755              1.700
 Vibration    15          0.681              1.708              1.524
 Vibration    16          0.689              1.684              1.449
 Vibration    17          0.712              1.618              1.266
 Vibration    18          0.731              1.563              1.140
 Vibration    19          0.738              1.544              1.100
 Vibration    20          0.745              1.525              1.063
 Vibration    21          0.768              1.465              0.955
 Vibration    22          0.810              1.357              0.791
 Vibration    23          0.811              1.355              0.788
 Vibration    24          0.871              1.215              0.620
 Vibration    25          0.885              1.183              0.586
 Vibration    26          0.892              1.169              0.572
 Vibration    27          0.927              1.095              0.503
 Vibration    28          0.937              1.074              0.485
 Vibration    29          0.964              1.020              0.440

 Optimization completed.
    -- Stationary point found.
 Normal termination of Gaussian 16 at Sun Dec 13 16:32:36 2020.

 ----------------------------------------------------------------------
 # B3LYP/6-311++G(d,p) empiricaldispersion=gd3bj scf=xqc pop=npa geom=c
 heck
 ----------------------------------------------------------------------

 ---------------------------------------
 CID_106597922_JID_9409_Energie_neutraal
 ---------------------------------------
 Structure from the checkpoint file:  "JID_9409.chk"
 Charge =  0 Multiplicity = 1

 SCF Done:  E(RB3LYP) =  -1578.84013905     A.U. after   17 cycles
 Normal termination of Gaussian 16 at Sun Dec 13 16:41:54 2020.

 ----------------------------------------------------------------------
 # B3LYP/6-311++G(d,p) empiricaldispersion=gd3bj scf=xqc pop=npa geom=c
 heck
 ----------------------------------------------------------------------

 -------------------------------------
 CID_106597922_JID_9409_Energie_kation
 -------------------------------------
 Structure from the checkpoint file:  "JID_9409.chk"
 Charge =  1 Multiplicity = 2

 SCF Done:  E(UB3LYP) =  -1578.54762838     A.U. after   33 cycles
 SCF Done:  E(UB3LYP) =  -1578.54762875     a.u. after    3 cycles
 Normal termination of Gaussian 16 at Sun Dec 13 17:52:46 2020.
 Gaussian 16:  ES64L-G16RevA.03 25-Dec-2016

 ----------------------------------------------------------------------
 # B3LYP/6-311++G(d,p) empiricaldispersion=gd3bj scf=xqc pop=npa geom=c
 heck
 ----------------------------------------------------------------------

 ------------------------------------
 CID_106597922_JID_9409_Energie_anion
 ------------------------------------
 Structure from the checkpoint file:  "JID_9409.chk"
 Charge = -1 Multiplicity = 2

                         Standard orientation:
 ---------------------------------------------------------------------
 Center     Atomic      Atomic             Coordinates (Angstroms)
 Number     Number       Type             X           Y           Z
 ---------------------------------------------------------------------
      1          6           0        5.622495   -0.623768   -0.251894
      2          6           0        5.884627    0.785616    0.221958
      3          6           0        4.467724    0.302894    0.044823
      4          6           0        3.616719    0.829094   -1.093439
      5          6           0        2.599619   -0.191961   -1.631496
      6          6           0        1.672594   -0.781017   -0.568222
      7          7           0        0.883045    0.292728    0.072528
      8         16           0       -0.193002   -0.213620    1.306045
      9          8           0        0.380332   -1.343828    2.045538
     10          8           0       -0.586550    1.013515    1.993758
     11          6           0       -1.540402   -0.867731    0.312823
     12          6           0       -2.436127   -0.073211   -0.432610
     13          7           0       -3.391585   -0.637746   -1.183095
     14          6           0       -3.505955   -1.966334   -1.199217
     15          6           0       -2.696908   -2.823548   -0.452114
     16          6           0       -1.690344   -2.256443    0.318909
     17          6           0       -2.453656    1.434871   -0.421316
     18         16           0       -3.811318    2.231744    0.087590
     19          7           0       -1.336362    2.029365   -0.875364
     20          1           0        5.820409   -1.444907    0.430741
     21          1           0        5.829407   -0.853535   -1.294435
     22          1           0        6.259267    0.928810    1.231215
     23          1           0        6.269297    1.501447   -0.500079
     24          1           0        3.927048    0.097396    0.967877
     25          1           0        3.101694    1.749296   -0.779641
     26          1           0        4.270330    1.131886   -1.921246
     27          1           0        1.995883    0.270078   -2.422290
     28          1           0        3.142355   -1.029269   -2.086752
     29          1           0        0.960297   -1.468186   -1.035262
     30          1           0        2.241150   -1.348466    0.176574
     31          1           0        1.479786    0.997907    0.509950
     32          1           0       -4.292218   -2.363290   -1.837859
     33          1           0       -2.849766   -3.897249   -0.476561
     34          1           0       -1.023110   -2.857881    0.925744
     35          1           0       -0.464092    1.503602   -0.928220
     36          1           0       -1.276868    3.033678   -0.760009
 ---------------------------------------------------------------------

 SCF Done:  E(UB3LYP) =  -1578.86288838     A.U. after   33 cycles
 SCF Done:  E(UB3LYP) =  -1578.86288839     a.u. after    2 cycles

 The electronic state is 2-A.
 Alpha  occ. eigenvalues --  -88.94107 -88.64671 -19.00158 -18.99867 -14.24212
 Alpha  occ. eigenvalues --  -14.20191 -14.17440 -10.11950 -10.11625 -10.11209
 Alpha  occ. eigenvalues --  -10.11155 -10.10711 -10.10542 -10.09998 -10.07256
 Alpha  occ. eigenvalues --  -10.06640 -10.06463 -10.06282 -10.04170  -8.00273
 Alpha  occ. eigenvalues --   -7.73461  -5.96594  -5.96531  -5.96320  -5.69803
 Alpha  occ. eigenvalues --   -5.69390  -5.68994  -1.00255  -0.89385  -0.82855
 Alpha  occ. eigenvalues --   -0.81845  -0.80147  -0.79612  -0.70857  -0.68372
 Alpha  occ. eigenvalues --   -0.65030  -0.62351  -0.59598  -0.55632  -0.54316
 Alpha  occ. eigenvalues --   -0.53749  -0.51208  -0.49543  -0.48244  -0.45049
 Alpha  occ. eigenvalues --   -0.43757  -0.42541  -0.41722  -0.41140  -0.38975
 Alpha  occ. eigenvalues --   -0.38442  -0.36932  -0.36505  -0.35625  -0.35363
 Alpha  occ. eigenvalues --   -0.33455  -0.32199  -0.32046  -0.30891  -0.29054
 Alpha  occ. eigenvalues --   -0.28372  -0.28308  -0.27714  -0.27041  -0.25985
 Alpha  occ. eigenvalues --   -0.23804  -0.23571  -0.23275  -0.22244  -0.21914
 Alpha  occ. eigenvalues --   -0.21282  -0.19591  -0.19359  -0.18179  -0.16480
 Alpha  occ. eigenvalues --   -0.14348  -0.12514  -0.09168  -0.06742   0.03275
 Alpha virt. eigenvalues --    0.04931   0.06266   0.06559   0.07483   0.08467
 Alpha virt. eigenvalues --    0.08718   0.09305   0.09671   0.10084   0.10291
 Alpha virt. eigenvalues --    0.11041   0.11467   0.11829   0.12340   0.12925

  Beta  occ. eigenvalues --  -88.94093 -88.64634 -19.00120 -18.99830 -14.24178
  Beta  occ. eigenvalues --  -14.20098 -14.17567 -10.11949 -10.11624 -10.11207
  Beta  occ. eigenvalues --  -10.11154 -10.10706 -10.10325 -10.09997 -10.06850
  Beta  occ. eigenvalues --  -10.06673 -10.06200 -10.05997 -10.04008  -8.00258
  Beta  occ. eigenvalues --   -7.73427  -5.96563  -5.96496  -5.96318  -5.69784
  Beta  occ. eigenvalues --   -5.69289  -5.68957  -1.00131  -0.89299  -0.82755
  Beta  occ. eigenvalues --   -0.81517  -0.80141  -0.79396  -0.70820  -0.68047
  Beta  occ. eigenvalues --   -0.64360  -0.62291  -0.59229  -0.55360  -0.54270
  Beta  occ. eigenvalues --   -0.53634  -0.50880  -0.49516  -0.47887  -0.44776
  Beta  occ. eigenvalues --   -0.43724  -0.42454  -0.41567  -0.41009  -0.38904
  Beta  occ. eigenvalues --   -0.38358  -0.36873  -0.36291  -0.35439  -0.35230
  Beta  occ. eigenvalues --   -0.33351  -0.32159  -0.31699  -0.30887  -0.29031
  Beta  occ. eigenvalues --   -0.28329  -0.28143  -0.27144  -0.26716  -0.25583
  Beta  occ. eigenvalues --   -0.23566  -0.23343  -0.23007  -0.22237  -0.21517
  Beta  occ. eigenvalues --   -0.21150  -0.19372  -0.19170  -0.17939  -0.15817
  Beta  occ. eigenvalues --   -0.12655  -0.12262  -0.08497  -0.06530
  Beta virt. eigenvalues --    0.04882   0.06217   0.06491   0.07422   0.08591
  Beta virt. eigenvalues --    0.08962   0.09105   0.09282   0.09658   0.10038
  Beta virt. eigenvalues --    0.10247   0.11079   0.11572   0.12267   0.12795

 Mulliken charges and spin densities:
               1          2
     1  C   -0.507941  -0.022546
     2  C   -0.304332   0.003467
     3  C    0.246282   0.014829
     4  C   -0.401989  -0.031779
     5  C   -0.253403  -0.083644
     6  C   -0.739563   0.025348
     7  N   -0.187709   0.001437
     8  S    0.395311   0.101683
     9  O   -0.134254   0.007491
    10  O   -0.122228  -0.018465
    11  C    0.333535   0.210271
    12  C   -0.793989   0.232557
    13  N    0.165800  -0.078644
    14  C    0.052010   0.224803
    15  C   -0.523666   0.127266
    16  C    0.011541  -0.009181
    17  C   -0.324827   0.028681
    18  S   -0.664483   0.106645
    19  N   -0.286619   0.050333
    20  H    0.146440   0.000633
    21  H    0.116420   0.020921
    22  H    0.132445   0.004941
    23  H    0.105404   0.016997
    24  H    0.241647   0.005362
    25  H    0.160402   0.006570
    26  H    0.114520   0.043164
    27  H    0.147511   0.025988
    28  H    0.131542   0.000089
    29  H    0.185435   0.001158
    30  H    0.225964  -0.001046
    31  H    0.244475   0.006675
    32  H    0.150289  -0.014664
    33  H    0.125288  -0.010701
    34  H    0.210402   0.005268
    35  H    0.377515  -0.004750
    36  H    0.224825   0.002840
 Sum of Mulliken charges =  -1.00000   1.00000

 Dipole moment (field-independent basis, Debye):
    X=             14.0391    Y=             -2.6570    Z=             -2.7871  Tot=             14.5576
 Quadrupole moment (field-independent basis, Debye-Ang):
   XX=           -191.3408   YY=           -150.5661   ZZ=           -151.1901
   XY=             18.0296   XZ=             -4.3397   YZ=             -0.0259

 Summary of Natural Population Analysis:

                                       Natural Population
                Natural  -----------------------------------------------
    Atom  No    Charge         Core      Valence    Rydberg      Total
 -----------------------------------------------------------------------
      C    1   -0.20054      0.99963     2.19432    0.00659     3.20054
      C    2   -0.19723      0.99963     2.19131    0.00629     3.19723
      C    3   -0.11907      0.99959     2.10950    0.00998     3.11907
      C    4   -0.19319      0.99962     2.18463    0.00895     3.19319
      C    5   -0.19043      0.99963     2.18354    0.00727     3.19043
      C    6   -0.09714      0.99962     2.08724    0.01028     3.09714
      N    7   -0.44588      0.99976     2.92991    0.01621     3.94588
      S    8    1.11322      4.99922     1.79124    0.09632     6.88678
      O    9   -0.47254      0.99991     3.46628    0.00635     4.47254
      O   10   -0.45475      0.99991     3.44801    0.00684     4.45475
      C   11   -0.12159      0.99931     2.10463    0.01765     3.12159
      C   12    0.15472      0.99941     1.82880    0.01708     2.84528
      N   13   -0.24268      0.99969     2.73168    0.01131     3.74268
      C   14    0.08347      0.99960     1.90336    0.01358     2.91653
      C   15   -0.11064      0.99956     2.10224    0.00884     3.11064
      C   16   -0.08744      0.99952     2.07861    0.00930     3.08744
      C   17    0.08814      0.99963     1.89168    0.02055     2.91186
      S   18   -0.09403      4.99951     3.07988    0.01464     8.09403
      N   19   -0.37576      0.99966     2.86403    0.01208     3.87576
      H   20    0.10224      0.00000     0.39686    0.00090     0.39776
      H   21    0.09907      0.00000     0.39984    0.00108     0.40093
      H   22    0.10119      0.00000     0.39792    0.00088     0.39881
      H   23    0.09863      0.00000     0.40025    0.00113     0.40137
      H   24    0.10700      0.00000     0.39194    0.00106     0.39300
      H   25    0.09847      0.00000     0.40057    0.00096     0.40153
      H   26    0.09819      0.00000     0.40036    0.00145     0.40181
      H   27    0.10069      0.00000     0.39753    0.00178     0.39931
      H   28    0.09765      0.00000     0.40132    0.00103     0.40235
      H   29    0.10732      0.00000     0.39170    0.00097     0.39268
      H   30    0.09405      0.00000     0.40454    0.00141     0.40595
      H   31    0.18810      0.00000     0.31004    0.00186     0.31190
      H   32    0.07795      0.00000     0.42079    0.00125     0.42205
      H   33    0.09329      0.00000     0.40561    0.00111     0.40671
      H   34    0.11042      0.00000     0.38850    0.00108     0.38958
      H   35    0.20171      0.00000     0.29684    0.00145     0.29829
      H   36    0.18738      0.00000     0.31048    0.00214     0.31262
 =======================================================================
   * Total *    0.00000     26.99238    51.68597    0.32164    79.00000

 Normal termination of Gaussian 16 at Sun Dec 13 18:37:24 2020.
