 Gaussian 16, Revision A.03,

 -----------------------------------------------------------
 # opt freq B3LYP/6-31G(d) empiricaldispersion=gd3bj scf=xqc
 -----------------------------------------------------------

 -------------------------------
 CID_151339131_JID_7648_neutraal
 -------------------------------
 Symbolic Z-matrix:
 Charge =  0 Multiplicity = 1

 SCF Done:  E(RB3LYP) =  -695.625749845     A.U. after   15 cycles
 SCF Done:  E(RB3LYP) =  -695.629309217     A.U. after   13 cycles
 SCF Done:  E(RB3LYP) =  -695.629388540     A.U. after   12 cycles
 SCF Done:  E(RB3LYP) =  -695.630599289     A.U. after   12 cycles
 SCF Done:  E(RB3LYP) =  -695.631470148     A.U. after   12 cycles
 SCF Done:  E(RB3LYP) =  -695.631807667     A.U. after   12 cycles
 SCF Done:  E(RB3LYP) =  -695.631959962     A.U. after   11 cycles
 SCF Done:  E(RB3LYP) =  -695.632083457     A.U. after   11 cycles
 SCF Done:  E(RB3LYP) =  -695.632143941     A.U. after   11 cycles
 SCF Done:  E(RB3LYP) =  -695.632173032     A.U. after   10 cycles
 SCF Done:  E(RB3LYP) =  -695.632907006     A.U. after    7 cycles
 SCF Done:  E(RB3LYP) =  -695.632907013     A.U. after    7 cycles
 SCF Done:  E(RB3LYP) =  -695.632907329     A.U. after    8 cycles
 SCF Done:  E(RB3LYP) =  -695.632907417     A.U. after    7 cycles
 SCF Done:  E(RB3LYP) =  -695.632907455     A.U. after    7 cycles
 Optimization completed.
    -- Stationary point found.
 Normal termination of Gaussian 16 at Fri Dec 11 13:36:32 2020.

 --------------------------------------------------------------------
 #N Geom=AllCheck Guess=TCheck SCRF=Check GenChk RB3LYP/6-31G(d) Freq
 --------------------------------------------------------------------

 Structure from the checkpoint file:  "JID_7648.chk"
 -------------------------------
 CID_151339131_JID_7648_neutraal
 -------------------------------
 Charge =  0 Multiplicity = 1

 SCF Done:  E(RB3LYP) =  -695.632907455     A.U. after    1 cycles

  Exact polarizability: 237.660  -3.856 160.740 -19.328   0.420 134.089
 Approx polarizability: 296.318  -2.645 258.277 -40.431  -0.293 210.975

                      1                      2                      3
                      A                      A                      A
 Frequencies --     16.9132                31.3287                40.6453
 Red. masses --      3.6796                 3.4288                 3.5964
 Frc consts  --      0.0006                 0.0020                 0.0035
 IR Inten    --      0.7698                 0.3977                 1.1064

                      4                      5                      6
                      A                      A                      A
 Frequencies --     59.3354                60.1779                75.9882
 Red. masses --      3.8185                 2.7626                 3.0591
 Frc consts  --      0.0079                 0.0059                 0.0104
 IR Inten    --      0.5562                 0.3331                 0.1389

                      7                      8                      9
                      A                      A                      A
 Frequencies --    120.4937               133.4602               149.1803
 Red. masses --      1.8644                 1.0499                 2.4324
 Frc consts  --      0.0159                 0.0110                 0.0319
 IR Inten    --      3.6847                 0.1263                 0.1694

                     10                     11                     12
                      A                      A                      A
 Frequencies --    175.1046               189.6094               201.2229
 Red. masses --      2.8522                 1.2706                 2.8154
 Frc consts  --      0.0515                 0.0269                 0.0672
 IR Inten    --      0.0648                 1.5167                 1.5773

                     13                     14                     15
                      A                      A                      A
 Frequencies --    212.9733               227.8366               244.6070
 Red. masses --      1.3984                 1.1021                 1.2463
 Frc consts  --      0.0374                 0.0337                 0.0439
 IR Inten    --      1.9966                 0.0741                 0.1689

                     16                     17                     18
                      A                      A                      A
 Frequencies --    258.8990               284.3035               308.4868
 Red. masses --      3.1593                 2.2514                 2.6285
 Frc consts  --      0.1248                 0.1072                 0.1474
 IR Inten    --      0.8819                 0.5406                 0.6169

                     19                     20                     21
                      A                      A                      A
 Frequencies --    326.4057               346.5272               386.0964
 Red. masses --      2.3932                 3.4707                 2.3812
 Frc consts  --      0.1502                 0.2455                 0.2091
 IR Inten    --      3.4359                 0.2006                 0.6068

                     22                     23                     24
                      A                      A                      A
 Frequencies --    416.9569               418.5382               431.1675
 Red. masses --      2.0441                 2.5317                 2.3305
 Frc consts  --      0.2094                 0.2613                 0.2553
 IR Inten    --      0.5511                 3.7409                 1.2612

                     25                     26                     27
                      A                      A                      A
 Frequencies --    455.7517               478.1011               517.3479
 Red. masses --      3.0557                 3.3727                 4.0393
 Frc consts  --      0.3740                 0.4542                 0.6370
 IR Inten    --      1.1322                 3.0922                 2.9049

                     28                     29                     30
                      A                      A                      A
 Frequencies --    534.7165               579.8251               629.2276
 Red. masses --      4.0685                 3.9589                 3.4087
 Frc consts  --      0.6854                 0.7842                 0.7952
 IR Inten    --      8.1133                 4.8504                 7.9845

                     31                     32                     33
                      A                      A                      A
 Frequencies --    699.8575               713.1084               759.3406
 Red. masses --      4.1306                 4.1798                 2.7082
 Frc consts  --      1.1920                 1.2523                 0.9200
 IR Inten    --      9.3677                 1.4038                 0.7195

                     34                     35                     36
                      A                      A                      A
 Frequencies --    767.3524               777.5015               837.5052
 Red. masses --      4.7215                 2.9471                 1.5782
 Frc consts  --      1.6380                 1.0497                 0.6522
 IR Inten    --      2.1082                 3.1446                17.8749

                     37                     38                     39
                      A                      A                      A
 Frequencies --    885.5940               891.2367               903.2814
 Red. masses --      1.7067                 3.0780                 1.6941
 Frc consts  --      0.7886                 1.4405                 0.8144
 IR Inten    --      2.8439                 6.7643                 6.1595

                     40                     41                     42
                      A                      A                      A
 Frequencies --    918.9876               940.2189               943.4948
 Red. masses --      1.7677                 1.2240                 1.3140
 Frc consts  --      0.8796                 0.6375                 0.6891
 IR Inten    --      4.6277                 2.2144                 0.2443

                     43                     44                     45
                      A                      A                      A
 Frequencies --    959.0182               972.8530               976.6597
 Red. masses --      2.4738                 1.4494                 1.3939
 Frc consts  --      1.3405                 0.8082                 0.7834
 IR Inten    --      0.8588                 9.8849                 0.0370

                     46                     47                     48
                      A                      A                      A
 Frequencies --    999.5119              1025.7334              1035.8532
 Red. masses --      1.8229                 1.8264                 1.7567
 Frc consts  --      1.0730                 1.1322                 1.1106
 IR Inten    --      2.3981                 1.6765                 6.2100

                     49                     50                     51
                      A                      A                      A
 Frequencies --   1076.0513              1094.8307              1101.4307
 Red. masses --      1.4972                 2.0230                 1.3929
 Frc consts  --      1.0214                 1.4287                 0.9956
 IR Inten    --      3.3473               154.5731                15.1831

                     52                     53                     54
                      A                      A                      A
 Frequencies --   1128.3477              1139.7484              1151.3736
 Red. masses --      1.6321                 1.2632                 1.9222
 Frc consts  --      1.2243                 0.9668                 1.5013
 IR Inten    --      0.1450                 2.2238                 1.4108

                     55                     56                     57
                      A                      A                      A
 Frequencies --   1159.3688              1179.8638              1183.9050
 Red. masses --      1.8039                 1.3662                 1.5702
 Frc consts  --      1.4286                 1.1205                 1.2967
 IR Inten    --     12.2574                 9.0528                 3.0815

                     58                     59                     60
                      A                      A                      A
 Frequencies --   1205.1886              1230.3963              1244.4932
 Red. masses --      1.7222                 1.4487                 1.9977
 Frc consts  --      1.4739                 1.2922                 1.8230
 IR Inten    --      9.4972                 3.2769                29.7029

                     61                     62                     63
                      A                      A                      A
 Frequencies --   1268.0615              1282.6521              1285.5120
 Red. masses --      3.1308                 1.4631                 3.3834
 Frc consts  --      2.9661                 1.4183                 3.2942
 IR Inten    --     13.8127                 7.4046                18.4362

                     64                     65                     66
                      A                      A                      A
 Frequencies --   1316.0997              1343.5522              1357.6183
 Red. masses --      1.5900                 2.6897                 1.4081
 Frc consts  --      1.6227                 2.8607                 1.5291
 IR Inten    --      0.3413                 5.6867                 4.3551

                     67                     68                     69
                      A                      A                      A
 Frequencies --   1380.1112              1398.7716              1413.1407
 Red. masses --      1.5401                 1.3530                 1.5052
 Frc consts  --      1.7283                 1.5597                 1.7710
 IR Inten    --      3.7176                 4.6673                10.9448

                     70                     71                     72
                      A                      A                      A
 Frequencies --   1420.7500              1429.4322              1442.1372
 Red. masses --      3.1387                 1.2889                 1.2563
 Frc consts  --      3.7328                 1.5517                 1.5395
 IR Inten    --     84.3390                 7.9007                 0.5083

                     73                     74                     75
                      A                      A                      A
 Frequencies --   1448.1950              1463.1124              1472.2159
 Red. masses --      1.2464                 2.1633                 1.3036
 Frc consts  --      1.5401                 2.7285                 1.6647
 IR Inten    --      8.3634                 1.4695                 5.1898

                     76                     77                     78
                      A                      A                      A
 Frequencies --   1486.1222              1504.0238              1506.0634
 Red. masses --      1.1930                 1.0708                 1.0518
 Frc consts  --      1.5523                 1.4272                 1.4056
 IR Inten    --      4.4804                14.5623                 5.2580

                     79                     80                     81
                      A                      A                      A
 Frequencies --   1508.2824              1510.1783              1516.7128
 Red. masses --      1.0788                 1.2081                 1.0607
 Frc consts  --      1.4460                 1.6234                 1.4377
 IR Inten    --      1.8718                12.9925                 0.8812

                     82                     83                     84
                      A                      A                      A
 Frequencies --   1518.1123              1521.2651              1525.0345
 Red. masses --      1.0994                 1.2128                 1.0832
 Frc consts  --      1.4928                 1.6537                 1.4843
 IR Inten    --     12.6516                15.5474                 1.4166

                     85                     86                     87
                      A                      A                      A
 Frequencies --   1526.6992              1532.5617              1535.8641
 Red. masses --      1.0565                 1.0911                 1.0604
 Frc consts  --      1.4508                 1.5100                 1.4737
 IR Inten    --      6.4985                16.9127                 1.7844

                     88                     89                     90
                      A                      A                      A
 Frequencies --   1543.6140              1547.3592              1557.6172
 Red. masses --      1.0625                 2.0015                 1.1349
 Frc consts  --      1.4916                 2.8235                 1.6223
 IR Inten    --      3.5615                58.4355                31.8334

                     91                     92                     93
                      A                      A                      A
 Frequencies --   1620.5753              1668.7385              1744.1309
 Red. masses --      6.6765                 5.7577                 8.6412
 Frc consts  --     10.3309                 9.4467                15.4876
 IR Inten    --      2.1529                39.9732               729.7241

                     94                     95                     96
                      A                      A                      A
 Frequencies --   3017.3323              3017.6255              3033.8458
 Red. masses --      1.0436                 1.0606                 1.0390
 Frc consts  --      5.5980                 5.6905                 5.6347
 IR Inten    --     97.8648                 8.8891                31.0670

                     97                     98                     99
                      A                      A                      A
 Frequencies --   3035.2998              3037.1716              3037.9793
 Red. masses --      1.0596                 1.0440                 1.0429
 Frc consts  --      5.7515                 5.6741                 5.6712
 IR Inten    --     19.2931                29.8321                47.4948

                    100                    101                    102
                      A                      A                      A
 Frequencies --   3038.6296              3043.7163              3057.9025
 Red. masses --      1.0679                 1.0534                 1.1010
 Frc consts  --      5.8093                 5.7497                 6.0658
 IR Inten    --     35.8160                41.2114                35.8882

                    103                    104                    105
                      A                      A                      A
 Frequencies --   3072.4848              3084.5657              3092.6048
 Red. masses --      1.0966                 1.0985                 1.0937
 Frc consts  --      6.0993                 6.1582                 6.1629
 IR Inten    --     43.1543                39.9108                18.3370

                    106                    107                    108
                      A                      A                      A
 Frequencies --   3094.9875              3096.3441              3103.8462
 Red. masses --      1.1001                 1.1005                 1.1000
 Frc consts  --      6.2087                 6.2162                 6.2437
 IR Inten    --     31.2845                10.0792                69.6827

                    109                    110                    111
                      A                      A                      A
 Frequencies --   3108.7154              3116.2626              3121.2412
 Red. masses --      1.1021                 1.0879                 1.0994
 Frc consts  --      6.2751                 6.2243                 6.3106
 IR Inten    --     46.4879                58.3618                47.1072

                    112                    113                    114
                      A                      A                      A
 Frequencies --   3127.8342              3140.3210              3160.3399
 Red. masses --      1.1031                 1.0980                 1.0892
 Frc consts  --      6.3585                 6.3800                 6.4093
 IR Inten    --     17.5983                28.3380                27.1290

                    115                    116                    117
                      A                      A                      A
 Frequencies --   3172.4613              3184.7085              3194.0073
 Red. masses --      1.0869                 1.0967                 1.0936
 Frc consts  --      6.4451                 6.5535                 6.5735
 IR Inten    --     19.5306                 7.4572                18.3239

 - Thermochemistry -
 -------------------
 Temperature   298.150 Kelvin.  Pressure   1.00000 Atm.
 Atom     1 has atomic number  6 and mass  12.00000

 Molecular mass:   232.19395 amu.
 Principal axes and moments of inertia in atomic units:
                           1         2         3
     Eigenvalues --  1798.882748935.380839396.16426
           X            0.99997  -0.00240   0.00690
           Y            0.00230   0.99990   0.01374
           Z           -0.00694  -0.01372   0.99988
 This molecule is an asymmetric top.
 Rotational symmetry number  1.
 Warning -- assumption of classical behavior for rotation
           may cause significant error
 Rotational temperatures (Kelvin)      0.04815     0.00969     0.00922
 Rotational constants (GHZ):           1.00326     0.20198     0.19207
 Zero-point vibrational energy     962981.2 (Joules/Mol)
                                  230.15802 (Kcal/Mol)
 Warning -- explicit consideration of  29 degrees of freedom as
           vibrations may cause significant error
 Vibrational temperatures:     24.33    45.08    58.48    85.37    86.58
          (Kelvin)            109.33   173.36   192.02   214.64   251.94
                              272.81   289.51   306.42   327.81   351.93
                              372.50   409.05   443.84   469.62   498.58
                              555.51   599.91   602.18   620.35   655.72
                              687.88   744.35   769.34   834.24   905.32
                             1006.94  1026.00  1092.52  1104.05  1118.65
                             1204.98  1274.17  1282.29  1299.62  1322.22
                             1352.77  1357.48  1379.81  1399.72  1405.20
                             1438.07  1475.80  1490.36  1548.20  1575.22
                             1584.71  1623.44  1639.84  1656.57  1668.07
                             1697.56  1703.38  1734.00  1770.27  1790.55
                             1824.46  1845.45  1849.57  1893.57  1933.07
                             1953.31  1985.67  2012.52  2033.19  2044.14
                             2056.63  2074.91  2083.63  2105.09  2118.19
                             2138.20  2163.95  2166.89  2170.08  2172.81
                             2182.21  2184.23  2188.76  2194.18  2196.58
                             2205.01  2209.77  2220.92  2226.30  2241.06
                             2331.65  2400.94  2509.42  4341.27  4341.69
                             4365.03  4367.12  4369.81  4370.97  4371.91
                             4379.23  4399.64  4420.62  4438.00  4449.57
                             4453.00  4454.95  4465.74  4472.75  4483.61
                             4490.77  4500.26  4518.22  4547.02  4564.46
                             4582.09  4595.46

 Zero-point correction=                           0.366780 (Hartree/Particle)
 Thermal correction to Energy=                    0.385985
 Thermal correction to Enthalpy=                  0.386929
 Thermal correction to Gibbs Free Energy=         0.317682
 Sum of electronic and zero-point Energies=           -695.266127
 Sum of electronic and thermal Energies=              -695.246922
 Sum of electronic and thermal Enthalpies=            -695.245978
 Sum of electronic and thermal Free Energies=         -695.315226

                     E (Thermal)             CV                S
                      KCal/Mol        Cal/Mol-Kelvin    Cal/Mol-Kelvin
 Total                  242.209             70.962            145.744
 Electronic               0.000              0.000              0.000
 Translational            0.889              2.981             42.229
 Rotational               0.889              2.981             33.379
 Vibrational            240.432             65.000             70.136
 Vibration     1          0.593              1.986              6.967
 Vibration     2          0.594              1.983              5.743
 Vibration     3          0.594              1.981              5.227
 Vibration     4          0.597              1.974              4.479
 Vibration     5          0.597              1.973              4.451
 Vibration     6          0.599              1.965              3.992
 Vibration     7          0.609              1.932              3.092
 Vibration     8          0.613              1.920              2.896
 Vibration     9          0.618              1.904              2.683
 Vibration    10          0.627              1.873              2.380
 Vibration    11          0.633              1.854              2.232
 Vibration    12          0.638              1.838              2.122
 Vibration    13          0.644              1.821              2.018
 Vibration    14          0.651              1.799              1.896
 Vibration    15          0.660              1.772              1.769
 Vibration    16          0.668              1.748              1.669
 Vibration    17          0.683              1.703              1.508
 Vibration    18          0.698              1.658              1.370
 Vibration    19          0.710              1.623              1.278
 Vibration    20          0.725              1.582              1.182
 Vibration    21          0.755              1.500              1.015
 Vibration    22          0.780              1.433              0.902
 Vibration    23          0.781              1.430              0.897
 Vibration    24          0.792              1.402              0.855
 Vibration    25          0.814              1.348              0.779
 Vibration    26          0.835              1.299              0.715
 Vibration    27          0.872              1.212              0.616
 Vibration    28          0.890              1.173              0.577
 Vibration    29          0.936              1.075              0.486

 Optimization completed.
    -- Stationary point found.
 Normal termination of Gaussian 16 at Fri Dec 11 13:52:57 2020.

 ----------------------------------------------------------------------
 # B3LYP/6-311++G(d,p) empiricaldispersion=gd3bj scf=xqc pop=npa geom=c
 heck
 ----------------------------------------------------------------------

 ---------------------------------------
 CID_151339131_JID_7648_Energie_neutraal
 ---------------------------------------
 Structure from the checkpoint file:  "JID_7648.chk"
 Charge =  0 Multiplicity = 1

 SCF Done:  E(RB3LYP) =  -695.816878601     A.U. after   15 cycles
 Normal termination of Gaussian 16 at Fri Dec 11 14:01:13 2020.

 ----------------------------------------------------------------------
 # B3LYP/6-311++G(d,p) empiricaldispersion=gd3bj scf=xqc pop=npa geom=c
 heck
 ----------------------------------------------------------------------

 -------------------------------------
 CID_151339131_JID_7648_Energie_kation
 -------------------------------------
 Structure from the checkpoint file:  "JID_7648.chk"
 Charge =  1 Multiplicity = 2

 SCF Done:  E(UB3LYP) =  -695.557161424     A.U. after   24 cycles
 Normal termination of Gaussian 16 at Fri Dec 11 14:20:03 2020.
 Gaussian 16:  ES64L-G16RevA.03 25-Dec-2016

 ----------------------------------------------------------------------
 # B3LYP/6-311++G(d,p) empiricaldispersion=gd3bj scf=xqc pop=npa geom=c
 heck
 ----------------------------------------------------------------------

 ------------------------------------
 CID_151339131_JID_7648_Energie_anion
 ------------------------------------
 Structure from the checkpoint file:  "JID_7648.chk"
 Charge = -1 Multiplicity = 2

                         Standard orientation:
 ---------------------------------------------------------------------
 Center     Atomic      Atomic             Coordinates (Angstroms)
 Number     Number       Type             X           Y           Z
 ---------------------------------------------------------------------
      1          6           0        1.142831    2.828095    0.118678
      2          6           0        0.563133    1.438582    0.146154
      3          6           0        1.240749    0.388573   -0.513025
      4          6           0        0.688594   -0.900552   -0.489328
      5          6           0       -0.497478   -1.156313    0.196190
      6          6           0       -1.172326   -0.136040    0.871341
      7          6           0       -0.618319    1.150867    0.828313
      8          6           0       -2.481539   -0.386981    1.584554
      9          6           0       -3.694967    0.235158    0.863843
     10          6           0       -3.918699   -0.246766   -0.578894
     11          6           0       -4.206204   -1.751539   -0.649860
     12          6           0       -5.053724    0.549993   -1.233580
     13          7           0        2.383879    0.676912   -1.271486
     14          6           0        3.551975    0.192697   -1.069662
     15          7           0        4.089551   -0.502623   -0.015030
     16          6           0        5.349888   -1.201141   -0.189430
     17          6           0        3.393299   -0.743732    1.238168
     18          1           0        2.090286    2.881751    0.671351
     19          1           0        1.369969    3.132116   -0.909202
     20          1           0        0.452964    3.553831    0.560492
     21          1           0        1.198692   -1.697030   -1.024208
     22          1           0       -0.903721   -2.165158    0.203988
     23          1           0       -1.128242    1.962061    1.345782
     24          1           0       -2.632284   -1.466203    1.702750
     25          1           0       -2.436903    0.028935    2.600083
     26          1           0       -4.600853    0.034714    1.454912
     27          1           0       -3.569462    1.326423    0.851582
     28          1           0       -2.996050   -0.050715   -1.141793
     29          1           0       -5.094594   -2.007541   -0.057134
     30          1           0       -4.393726   -2.065233   -1.683305
     31          1           0       -3.368722   -2.346944   -0.272443
     32          1           0       -4.842922    1.625859   -1.221607
     33          1           0       -5.201401    0.247271   -2.276872
     34          1           0       -6.001864    0.389727   -0.703398
     35          1           0        4.299477    0.385666   -1.843783
     36          1           0        5.833303   -0.869168   -1.111825
     37          1           0        6.023473   -0.993129    0.651218
     38          1           0        5.206641   -2.290056   -0.251113
     39          1           0        2.705104    0.072897    1.450897
     40          1           0        2.817036   -1.678630    1.226977
     41          1           0        4.136515   -0.796866    2.041503
 ---------------------------------------------------------------------

 SCF Done:  E(UB3LYP) =  -695.805755224     A.U. after   33 cycles
 SCF Done:  E(UB3LYP) =  -695.805755224     a.u. after    1 cycles

 The electronic state is 2-A.
 Alpha  occ. eigenvalues --  -14.25016 -14.19375 -10.14837 -10.10736 -10.10338
 Alpha  occ. eigenvalues --  -10.10235 -10.08809 -10.08314 -10.08272 -10.08145
 Alpha  occ. eigenvalues --  -10.08018 -10.07807 -10.07542 -10.07515 -10.07514
 Alpha  occ. eigenvalues --  -10.07291 -10.07196  -0.87563  -0.81022  -0.75836
 Alpha  occ. eigenvalues --   -0.72912  -0.68688  -0.66818  -0.63673  -0.62738
 Alpha  occ. eigenvalues --   -0.60361  -0.59997  -0.58533  -0.55114  -0.51346
 Alpha  occ. eigenvalues --   -0.49531  -0.47419  -0.45893  -0.42944  -0.40733
 Alpha  occ. eigenvalues --   -0.39397  -0.38261  -0.37397  -0.36944  -0.35720
 Alpha  occ. eigenvalues --   -0.34427  -0.34007  -0.33145  -0.32695  -0.31459
 Alpha  occ. eigenvalues --   -0.31417  -0.30897  -0.30721  -0.30614  -0.30073
 Alpha  occ. eigenvalues --   -0.29223  -0.28853  -0.27858  -0.26241  -0.25718
 Alpha  occ. eigenvalues --   -0.25626  -0.24457  -0.24083  -0.23273  -0.23016
 Alpha  occ. eigenvalues --   -0.19642  -0.15350  -0.13546  -0.11116   0.03950
 Alpha virt. eigenvalues --    0.05200   0.06545   0.06783   0.07348   0.07654
 Alpha virt. eigenvalues --    0.07951   0.08115   0.08543   0.08946   0.09281
 Alpha virt. eigenvalues --    0.09649   0.09906   0.10285   0.10638   0.11430

  Beta  occ. eigenvalues --  -14.25016 -14.19375 -10.14823 -10.10734 -10.10268
  Beta  occ. eigenvalues --  -10.10198 -10.08807 -10.08307 -10.08272 -10.08137
  Beta  occ. eigenvalues --  -10.08019 -10.07794 -10.07536 -10.07507 -10.07499
  Beta  occ. eigenvalues --  -10.07283 -10.07190  -0.87551  -0.81013  -0.75827
  Beta  occ. eigenvalues --   -0.72900  -0.68677  -0.66804  -0.63633  -0.62683
  Beta  occ. eigenvalues --   -0.60332  -0.59959  -0.58496  -0.55084  -0.51322
  Beta  occ. eigenvalues --   -0.49506  -0.47384  -0.45864  -0.42911  -0.40671
  Beta  occ. eigenvalues --   -0.39380  -0.38242  -0.37360  -0.36925  -0.35704
  Beta  occ. eigenvalues --   -0.34408  -0.33981  -0.33122  -0.32669  -0.31412
  Beta  occ. eigenvalues --   -0.31388  -0.30874  -0.30699  -0.30575  -0.30059
  Beta  occ. eigenvalues --   -0.29171  -0.28837  -0.27842  -0.26226  -0.25705
  Beta  occ. eigenvalues --   -0.25613  -0.24437  -0.24067  -0.23257  -0.23002
  Beta  occ. eigenvalues --   -0.19631  -0.15342  -0.13530  -0.11106
  Beta virt. eigenvalues --    0.05422   0.06507   0.06746   0.06897   0.07649
  Beta virt. eigenvalues --    0.07901   0.08314   0.08447   0.08858   0.09253
  Beta virt. eigenvalues --    0.09448   0.09880   0.10049   0.10395   0.10842

 Mulliken charges and spin densities:
               1          2
     1  C   -0.118295  -0.505883
     2  C    0.063029   0.406424
     3  C   -0.281036  -0.163889
     4  C    0.260444  -0.351201
     5  C   -0.503770   0.030724
     6  C    1.017099  -0.028779
     7  C   -0.672118   0.036985
     8  C   -0.283942  -0.411288
     9  C    0.300217  -0.536957
    10  C   -0.528391   0.732735
    11  C   -0.125526  -0.533452
    12  C   -0.097595  -0.440817
    13  N   -0.064002   0.007420
    14  C   -0.081755   0.030031
    15  N   -0.290367   0.286352
    16  C    1.777982  -2.094962
    17  C    0.187956  -0.648290
    18  H    0.071377   0.094900
    19  H    0.126680   0.062220
    20  H    0.059790   0.060449
    21  H   -0.100105   0.296434
    22  H   -0.167307   0.313205
    23  H    0.021927   0.141470
    24  H    0.086842   0.064503
    25  H   -0.014472   0.187513
    26  H    0.012245   0.121892
    27  H    0.075291   0.043468
    28  H    0.248158  -0.078782
    29  H   -0.056361   0.194505
    30  H    0.024669   0.108574
    31  H    0.113947  -0.004748
    32  H    0.014297   0.116029
    33  H    0.025387   0.106018
    34  H    0.002444   0.125241
    35  H   -0.223069   0.379514
    36  H   -0.494720   0.624991
    37  H   -0.503433   0.662007
    38  H   -0.584424   0.751072
    39  H    0.024277   0.151283
    40  H    0.042230   0.145347
    41  H   -0.365602   0.517744
 Sum of Mulliken charges =  -1.00000   1.00000

 Dipole moment (field-independent basis, Debye):
    X=             -8.9650    Y=              3.3677    Z=              0.3887  Tot=              9.5846
 Quadrupole moment (field-independent basis, Debye-Ang):
   XX=           -241.7801   YY=           -146.6045   ZZ=           -143.3024
   XY=             15.0353   XZ=             -1.8299   YZ=              1.6780

 Summary of Natural Population Analysis:

                                       Natural Population
                Natural  -----------------------------------------------
    Atom  No    Charge         Core      Valence    Rydberg      Total
 -----------------------------------------------------------------------
      C    1   -0.29967      0.99966     2.29224    0.00777     3.29967
      C    2    0.01584      0.99950     1.97848    0.00618     2.98416
      C    3    0.05378      0.99945     1.92936    0.01741     2.94622
      C    4   -0.11268      0.99952     2.10327    0.00989     3.11268
      C    5   -0.10078      0.99951     2.09186    0.00941     3.10078
      C    6   -0.03344      0.99952     2.02276    0.01117     3.03344
      C    7   -0.10560      0.99951     2.09456    0.01153     3.10560
      C    8   -0.19636      0.99960     2.18712    0.00964     3.19636
      C    9   -0.18289      0.99961     2.17359    0.00969     3.18289
      C   10   -0.12112      0.99961     2.11351    0.00800     3.12112
      C   11   -0.28445      0.99965     2.27985    0.00495     3.28445
      C   12   -0.28074      0.99965     2.27644    0.00464     3.28074
      N   13   -0.28050      0.99964     2.76896    0.01191     3.78050
      C   14    0.17295      0.99957     1.81021    0.01727     2.82705
      N   15   -0.24826      0.99970     2.73818    0.01038     3.74826
      C   16   -0.16975      0.99964     2.16198    0.00814     3.16975
      C   17   -0.17707      0.99963     2.16893    0.00851     3.17707
      H   18    0.10328      0.00000     0.39565    0.00107     0.39672
      H   19    0.10884      0.00000     0.39003    0.00112     0.39116
      H   20    0.09602      0.00000     0.40322    0.00076     0.40398
      H   21    0.10275      0.00000     0.39581    0.00144     0.39725
      H   22    0.09764      0.00000     0.40079    0.00157     0.40236
      H   23    0.09363      0.00000     0.40490    0.00147     0.40637
      H   24    0.09893      0.00000     0.39983    0.00124     0.40107
      H   25    0.10109      0.00000     0.39787    0.00104     0.39891
      H   26    0.09380      0.00000     0.40518    0.00102     0.40620
      H   27    0.09621      0.00000     0.40267    0.00112     0.40379
      H   28    0.10041      0.00000     0.39777    0.00182     0.39959
      H   29    0.09407      0.00000     0.40491    0.00102     0.40593
      H   30    0.09803      0.00000     0.40104    0.00093     0.40197
      H   31    0.10043      0.00000     0.39856    0.00101     0.39957
      H   32    0.09831      0.00000     0.40076    0.00093     0.40169
      H   33    0.09726      0.00000     0.40185    0.00089     0.40274
      H   34    0.09416      0.00000     0.40480    0.00104     0.40584
      H   35    0.08303      0.00000     0.41544    0.00153     0.41697
      H   36    0.10052      0.00000     0.39704    0.00244     0.39948
      H   37    0.09728      0.00000     0.39960    0.00311     0.40272
      H   38    0.09495      0.00000     0.40187    0.00318     0.40505
      H   39    0.10469      0.00000     0.39354    0.00176     0.39531
      H   40    0.09702      0.00000     0.40148    0.00150     0.40298
      H   41    0.09910      0.00000     0.39958    0.00132     0.40090
 =======================================================================
   * Total *    0.00069     16.99296    46.80552    0.20084    63.99931

 Normal termination of Gaussian 16 at Fri Dec 11 14:45:46 2020.
