 Gaussian 16, Revision A.03,

 -----------------------------------------------------------
 # opt freq B3LYP/6-31G(d) empiricaldispersion=gd3bj scf=xqc
 -----------------------------------------------------------

 -------------------------------
 CID_143260304_JID_7866_neutraal
 -------------------------------
 Symbolic Z-matrix:
 Charge =  0 Multiplicity = 1

 SCF Done:  E(RB3LYP) =  -661.088104701     A.U. after   13 cycles
 SCF Done:  E(RB3LYP) =  -661.089636329     A.U. after   12 cycles
 SCF Done:  E(RB3LYP) =  -661.089824098     A.U. after   11 cycles
 SCF Done:  E(RB3LYP) =  -661.089900653     A.U. after   10 cycles
 SCF Done:  E(RB3LYP) =  -661.089938801     A.U. after   11 cycles
 SCF Done:  E(RB3LYP) =  -661.089951099     A.U. after   10 cycles
 SCF Done:  E(RB3LYP) =  -661.089969603     A.U. after   11 cycles
 SCF Done:  E(RB3LYP) =  -661.089982421     A.U. after   11 cycles
 SCF Done:  E(RB3LYP) =  -661.089995463     A.U. after   11 cycles
 SCF Done:  E(RB3LYP) =  -661.090001876     A.U. after   11 cycles
 SCF Done:  E(RB3LYP) =  -661.090010047     A.U. after    7 cycles
 SCF Done:  E(RB3LYP) =  -661.090010093     A.U. after    7 cycles
 SCF Done:  E(RB3LYP) =  -661.090010136     A.U. after    7 cycles
 SCF Done:  E(RB3LYP) =  -661.090010167     A.U. after    7 cycles
 SCF Done:  E(RB3LYP) =  -661.090010179     A.U. after    7 cycles
 Optimization completed.
    -- Stationary point found.
 Normal termination of Gaussian 16 at Sun Dec 13 12:35:02 2020.

 --------------------------------------------------------------------
 #N Geom=AllCheck Guess=TCheck SCRF=Check GenChk RB3LYP/6-31G(d) Freq
 --------------------------------------------------------------------

 Structure from the checkpoint file:  "JID_7866.chk"
 -------------------------------
 CID_143260304_JID_7866_neutraal
 -------------------------------
 Charge =  0 Multiplicity = 1

 SCF Done:  E(RB3LYP) =  -661.090010179     A.U. after    1 cycles

  Exact polarizability: 324.487   5.644 135.302   4.537  -0.687 156.425
 Approx polarizability: 421.415  17.939 196.295  14.231  -0.492 261.487

                      1                      2                      3
                      A                      A                      A
 Frequencies --     11.0921                15.2844                30.9296
 Red. masses --      3.7639                 4.0937                 3.2818
 Frc consts  --      0.0003                 0.0006                 0.0018
 IR Inten    --      0.0248                 0.0379                 0.0761

                      4                      5                      6
                      A                      A                      A
 Frequencies --     33.4791                64.4872                73.0119
 Red. masses --      2.6831                 3.2770                 2.7991
 Frc consts  --      0.0018                 0.0080                 0.0088
 IR Inten    --      0.0300                 0.2138                 0.0734

                      7                      8                      9
                      A                      A                      A
 Frequencies --     76.7698               127.6021               161.7425
 Red. masses --      3.7211                 2.9467                 2.3521
 Frc consts  --      0.0129                 0.0283                 0.0363
 IR Inten    --      0.0030                 0.2325                 0.3963

                     10                     11                     12
                      A                      A                      A
 Frequencies --    168.9532               182.0366               239.2257
 Red. masses --      2.1710                 2.0547                 1.6345
 Frc consts  --      0.0365                 0.0401                 0.0551
 IR Inten    --      0.4594                 0.1614                 0.3670

                     13                     14                     15
                      A                      A                      A
 Frequencies --    248.2979               255.1051               267.0046
 Red. masses --      2.0707                 1.9029                 2.5622
 Frc consts  --      0.0752                 0.0730                 0.1076
 IR Inten    --      0.5752                 0.2107                 0.8724

                     16                     17                     18
                      A                      A                      A
 Frequencies --    293.8731               330.6569               343.1958
 Red. masses --      2.4213                 2.4686                 3.4559
 Frc consts  --      0.1232                 0.1590                 0.2398
 IR Inten    --      7.2047                 1.0246                 0.3701

                     19                     20                     21
                      A                      A                      A
 Frequencies --    394.5399               414.1854               466.7130
 Red. masses --      2.7868                 2.9874                 2.8580
 Frc consts  --      0.2556                 0.3019                 0.3668
 IR Inten    --      2.0782                 0.2874                 2.5342

                     22                     23                     24
                      A                      A                      A
 Frequencies --    495.2822               516.2475               548.7672
 Red. masses --      3.3265                 2.7041                 3.0323
 Frc consts  --      0.4808                 0.4246                 0.5380
 IR Inten    --      2.0313                 0.9995                27.5431

                     25                     26                     27
                      A                      A                      A
 Frequencies --    569.9543               637.6080               644.4520
 Red. masses --      3.2322                 6.2808                 3.5817
 Frc consts  --      0.6186                 1.5044                 0.8764
 IR Inten    --      3.6894                 0.0760                 1.0191

                     28                     29                     30
                      A                      A                      A
 Frequencies --    709.0453               714.3024               761.1912
 Red. masses --      2.9743                 1.7584                 1.6363
 Frc consts  --      0.8810                 0.5286                 0.5586
 IR Inten    --      0.0932                26.8249                 8.6095

                     31                     32                     33
                      A                      A                      A
 Frequencies --    768.4273               783.2724               812.5547
 Red. masses --      1.6276                 1.4926                 1.3325
 Frc consts  --      0.5662                 0.5396                 0.5184
 IR Inten    --     39.7528                14.4046                 4.3815

                     34                     35                     36
                      A                      A                      A
 Frequencies --    824.5306               838.6866               857.8618
 Red. masses --      1.5942                 1.9987                 1.2536
 Frc consts  --      0.6386                 0.8283                 0.5435
 IR Inten    --      0.2827                 2.8627                 0.1327

                     37                     38                     39
                      A                      A                      A
 Frequencies --    864.0077               881.4603               911.8513
 Red. masses --      2.2819                 2.0665                 1.9969
 Frc consts  --      1.0037                 0.9460                 0.9783
 IR Inten    --      2.8189                15.2058                 4.7463

                     40                     41                     42
                      A                      A                      A
 Frequencies --    924.4671               964.3184               974.0643
 Red. masses --      1.5557                 1.3496                 1.2860
 Frc consts  --      0.7834                 0.7394                 0.7189
 IR Inten    --      1.4575                 0.3221                 8.4430

                     43                     44                     45
                      A                      A                      A
 Frequencies --    991.8628              1005.8365              1012.4609
 Red. masses --      1.2433                 2.4370                 1.2329
 Frc consts  --      0.7206                 1.4526                 0.7446
 IR Inten    --      0.1768                 1.0272                12.5081

                     46                     47                     48
                      A                      A                      A
 Frequencies --   1021.9135              1023.5427              1031.5070
 Red. masses --      3.4793                 1.9359                 1.1874
 Frc consts  --      2.1407                 1.1949                 0.7444
 IR Inten    --      2.3406                 3.1578                12.2081

                     49                     50                     51
                      A                      A                      A
 Frequencies --   1037.8925              1061.6520              1074.6180
 Red. masses --      2.2228                 2.3139                 2.5104
 Frc consts  --      1.4108                 1.5366                 1.7080
 IR Inten    --      7.1709                 5.5874                 0.7088

                     52                     53                     54
                      A                      A                      A
 Frequencies --   1088.4279              1099.5849              1117.1298
 Red. masses --      1.8250                 1.6570                 1.5909
 Frc consts  --      1.2738                 1.1804                 1.1697
 IR Inten    --      4.3245                 3.8218                 3.6320

                     55                     56                     57
                      A                      A                      A
 Frequencies --   1132.8975              1168.3890              1193.6764
 Red. masses --      1.8953                 2.2167                 1.0975
 Frc consts  --      1.4332                 1.7829                 0.9213
 IR Inten    --      0.3540                 4.6155                 0.0870

                     58                     59                     60
                      A                      A                      A
 Frequencies --   1196.2795              1219.1761              1225.3246
 Red. masses --      2.1500                 1.1424                 2.1682
 Frc consts  --      1.8128                 1.0005                 1.9180
 IR Inten    --      1.1395                 1.7499                 0.2434

                     61                     62                     63
                      A                      A                      A
 Frequencies --   1260.6223              1283.2196              1287.9797
 Red. masses --      1.2764                 1.2027                 1.4757
 Frc consts  --      1.1951                 1.1668                 1.4423
 IR Inten    --      2.9081                 1.8092                 1.4317

                     64                     65                     66
                      A                      A                      A
 Frequencies --   1298.1247              1318.6828              1327.5793
 Red. masses --      1.2015                 1.1964                 1.2571
 Frc consts  --      1.1929                 1.2257                 1.3054
 IR Inten    --      0.6276                 0.6627                11.7840

                     67                     68                     69
                      A                      A                      A
 Frequencies --   1344.4184              1351.2226              1360.4784
 Red. masses --      1.8250                 1.3345                 1.5194
 Frc consts  --      1.9435                 1.4356                 1.6569
 IR Inten    --      4.1353                10.4227                 3.2891

                     70                     71                     72
                      A                      A                      A
 Frequencies --   1371.1046              1390.5888              1399.2778
 Red. masses --      1.8850                 1.3883                 1.4198
 Frc consts  --      2.0878                 1.5817                 1.6379
 IR Inten    --      3.8785                 7.2500                14.9295

                     73                     74                     75
                      A                      A                      A
 Frequencies --   1423.5736              1435.8695              1443.9766
 Red. masses --      1.3999                 1.2390                 1.2612
 Frc consts  --      1.6715                 1.5050                 1.5494
 IR Inten    --     14.1508                 1.2858                12.9876

                     76                     77                     78
                      A                      A                      A
 Frequencies --   1496.8892              1502.6421              1515.4569
 Red. masses --      1.7945                 2.0129                 1.0785
 Frc consts  --      2.3691                 2.6778                 1.4594
 IR Inten    --      3.1166                 5.1069                 3.6996

                     79                     80                     81
                      A                      A                      A
 Frequencies --   1516.3069              1527.6123              1531.8517
 Red. masses --      1.0752                 1.0430                 1.0431
 Frc consts  --      1.4565                 1.4341                 1.4421
 IR Inten    --      2.9256                 4.9814                 1.4313

                     82                     83                     84
                      A                      A                      A
 Frequencies --   1537.7542              1538.3104              1548.1014
 Red. masses --      1.0771                 1.0583                 2.1697
 Frc consts  --      1.5007                 1.4756                 3.0637
 IR Inten    --      4.0224                 3.1503                14.9807

                     85                     86                     87
                      A                      A                      A
 Frequencies --   1645.7273              1652.1752              1666.8337
 Red. masses --      5.5032                 6.2877                 5.5596
 Frc consts  --      8.7818                10.1124                 9.1007
 IR Inten    --      3.3311                 4.2295                12.8354

                     88                     89                     90
                      A                      A                      A
 Frequencies --   1711.4789              1720.0643              3025.6016
 Red. masses --      5.4440                 5.5294                 1.0704
 Frc consts  --      9.3954                 9.6386                 5.7731
 IR Inten    --      4.1713                 2.0231                37.1631

                     91                     92                     93
                      A                      A                      A
 Frequencies --   3027.7233              3045.9706              3047.8393
 Red. masses --      1.0799                 1.0631                 1.0348
 Frc consts  --      5.8329                 5.8115                 5.6637
 IR Inten    --      8.5875                38.3716                52.7080

                     94                     95                     96
                      A                      A                      A
 Frequencies --   3054.6088              3079.5827              3093.0020
 Red. masses --      1.0358                 1.1038                 1.0920
 Frc consts  --      5.6945                 6.1678                 6.1553
 IR Inten    --     21.3235                30.8855                 3.6340

                     97                     98                     99
                      A                      A                      A
 Frequencies --   3116.5452              3117.2277              3124.1030
 Red. masses --      1.1009                 1.1018                 1.1031
 Frc consts  --      6.3003                 6.3079                 6.3432
 IR Inten    --     41.4063                45.1590                39.4669

                    100                    101                    102
                      A                      A                      A
 Frequencies --   3127.4304              3143.3641              3150.1968
 Red. masses --      1.1025                 1.0856                 1.0866
 Frc consts  --      6.3531                 6.3197                 6.3530
 IR Inten    --     41.6983                21.8687                 1.2714

                    103                    104                    105
                      A                      A                      A
 Frequencies --   3153.9283              3165.3264              3170.6714
 Red. masses --      1.0885                 1.0879                 1.0865
 Frc consts  --      6.3793                 6.4218                 6.4358
 IR Inten    --     14.6931                 5.0982                 9.3073

                    106                    107                    108
                      A                      A                      A
 Frequencies --   3179.8165              3182.8819              3189.8555
 Red. masses --      1.0896                 1.0864                 1.0899
 Frc consts  --      6.4912                 6.4845                 6.5338
 IR Inten    --     10.5021                 0.2493                47.6810

                    109                    110                    111
                      A                      A                      A
 Frequencies --   3192.8073              3205.5392              3213.8244
 Red. masses --      1.0914                 1.0943                 1.0949
 Frc consts  --      6.5552                 6.6250                 6.6629
 IR Inten    --     25.6528                47.6209                12.9102

 - Thermochemistry -
 -------------------
 Temperature   298.150 Kelvin.  Pressure   1.00000 Atm.
 Atom     1 has atomic number  6 and mass  12.00000

 Molecular mass:   226.17215 amu.
 Principal axes and moments of inertia in atomic units:
                           1         2         3
     Eigenvalues --  1868.03386********************
           X            0.99998   0.00602   0.00054
           Y           -0.00602   0.99997   0.00500
           Z           -0.00051  -0.00500   0.99999
 This molecule is an asymmetric top.
 Rotational symmetry number  1.
 Warning -- assumption of classical behavior for rotation
           may cause significant error
 Rotational temperatures (Kelvin)      0.04637     0.00679     0.00640
 Rotational constants (GHZ):           0.96612     0.14149     0.13341
 Zero-point vibrational energy     903889.2 (Joules/Mol)
                                  216.03471 (Kcal/Mol)
 Warning -- explicit consideration of  25 degrees of freedom as
           vibrations may cause significant error
 Vibrational temperatures:     15.96    21.99    44.50    48.17    92.78
          (Kelvin)            105.05   110.45   183.59   232.71   243.09
                              261.91   344.19   357.25   367.04   384.16
                              422.82   475.74   493.78   567.65   595.92
                              671.50   712.60   742.76   789.55   820.04
                              917.38   927.22  1020.16  1027.72  1095.18
                             1105.60  1126.95  1169.08  1186.32  1206.68
                             1234.27  1243.11  1268.22  1311.95  1330.10
                             1387.44  1401.46  1427.07  1447.17  1456.71
                             1470.31  1472.65  1484.11  1493.30  1527.48
                             1546.14  1566.01  1582.06  1607.30  1629.99
                             1681.05  1717.43  1721.18  1754.12  1762.97
                             1813.75  1846.27  1853.12  1867.71  1897.29
                             1910.09  1934.32  1944.11  1957.43  1972.71
                             2000.75  2013.25  2048.20  2065.90  2077.56
                             2153.69  2161.97  2180.40  2181.63  2197.89
                             2203.99  2212.49  2213.29  2227.37  2367.83
                             2377.11  2398.20  2462.44  2474.79  4353.17
                             4356.22  4382.47  4385.16  4394.90  4430.83
                             4450.14  4484.01  4485.00  4494.89  4499.67
                             4522.60  4532.43  4537.80  4554.20  4561.89
                             4575.05  4579.46  4589.49  4593.74  4612.06
                             4623.98

 Zero-point correction=                           0.344273 (Hartree/Particle)
 Thermal correction to Energy=                    0.362345
 Thermal correction to Enthalpy=                  0.363290
 Thermal correction to Gibbs Free Energy=         0.293810
 Sum of electronic and zero-point Energies=           -660.745737
 Sum of electronic and thermal Energies=              -660.727665
 Sum of electronic and thermal Enthalpies=            -660.726721
 Sum of electronic and thermal Free Energies=         -660.796200

                     E (Thermal)             CV                S
                      KCal/Mol        Cal/Mol-Kelvin    Cal/Mol-Kelvin
 Total                  227.375             67.045            146.232
 Electronic               0.000              0.000              0.000
 Translational            0.889              2.981             42.151
 Rotational               0.889              2.981             34.132
 Vibrational            225.598             61.083             69.949
 Vibration     1          0.593              1.987              7.805
 Vibration     2          0.593              1.986              7.168
 Vibration     3          0.594              1.984              5.769
 Vibration     4          0.594              1.983              5.612
 Vibration     5          0.597              1.971              4.315
 Vibration     6          0.599              1.967              4.070
 Vibration     7          0.599              1.965              3.972
 Vibration     8          0.611              1.926              2.982
 Vibration     9          0.622              1.889              2.529
 Vibration    10          0.625              1.881              2.447
 Vibration    11          0.630              1.864              2.307
 Vibration    12          0.657              1.780              1.809
 Vibration    13          0.662              1.766              1.743
 Vibration    14          0.665              1.754              1.695
 Vibration    15          0.672              1.734              1.616
 Vibration    16          0.689              1.685              1.452
 Vibration    17          0.713              1.614              1.257
 Vibration    18          0.722              1.589              1.197
 Vibration    19          0.762              1.482              0.983
 Vibration    20          0.778              1.439              0.912
 Vibration    21          0.824              1.324              0.747
 Vibration    22          0.851              1.260              0.670
 Vibration    23          0.871              1.214              0.619
 Vibration    24          0.904              1.142              0.547
 Vibration    25          0.926              1.096              0.504

 Optimization completed.
    -- Stationary point found.
 Normal termination of Gaussian 16 at Sun Dec 13 12:46:46 2020.

 ----------------------------------------------------------------------
 # B3LYP/6-311++G(d,p) empiricaldispersion=gd3bj scf=xqc pop=npa geom=c
 heck
 ----------------------------------------------------------------------

 ---------------------------------------
 CID_143260304_JID_7866_Energie_neutraal
 ---------------------------------------
 Structure from the checkpoint file:  "JID_7866.chk"
 Charge =  0 Multiplicity = 1

 SCF Done:  E(RB3LYP) =  -661.266637600     A.U. after   14 cycles
 Normal termination of Gaussian 16 at Sun Dec 13 12:53:18 2020.

 ----------------------------------------------------------------------
 # B3LYP/6-311++G(d,p) empiricaldispersion=gd3bj scf=xqc pop=npa geom=c
 heck
 ----------------------------------------------------------------------

 -------------------------------------
 CID_143260304_JID_7866_Energie_kation
 -------------------------------------
 Structure from the checkpoint file:  "JID_7866.chk"
 Charge =  1 Multiplicity = 2

 SCF Done:  E(UB3LYP) =  -660.997335260     A.U. after   24 cycles
 Normal termination of Gaussian 16 at Sun Dec 13 13:09:29 2020.
 Gaussian 16:  ES64L-G16RevA.03 25-Dec-2016

 ----------------------------------------------------------------------
 # B3LYP/6-311++G(d,p) empiricaldispersion=gd3bj scf=xqc pop=npa geom=c
 heck
 ----------------------------------------------------------------------

 ------------------------------------
 CID_143260304_JID_7866_Energie_anion
 ------------------------------------
 Structure from the checkpoint file:  "JID_7866.chk"
 Charge = -1 Multiplicity = 2

                         Standard orientation:
 ---------------------------------------------------------------------
 Center     Atomic      Atomic             Coordinates (Angstroms)
 Number     Number       Type             X           Y           Z
 ---------------------------------------------------------------------
      1          6           0       -7.206302    0.141563   -0.224657
      2          6           0       -6.115417   -0.861842    0.188057
      3          6           0       -4.955683   -0.854446   -0.766011
      4          6           0       -3.684740   -0.476747   -0.520712
      5          6           0       -3.157746   -0.008949    0.746140
      6          6           0       -1.878683    0.368657    0.992421
      7          6           0       -0.775336    0.382800    0.053448
      8          6           0        0.471200    0.770383    0.376129
      9          6           0        1.623475    0.817848   -0.588216
     10          6           0        2.200719    2.258921   -0.706828
     11          6           0        2.846107    2.796005    0.572290
     12          6           0        2.737804   -0.178214   -0.274750
     13          6           0        2.904273   -0.762091    0.985348
     14          6           0        3.962018   -1.639174    1.234262
     15          6           0        4.870759   -1.950879    0.224370
     16          6           0        4.711681   -1.380404   -1.040184
     17          6           0        3.655815   -0.504491   -1.282534
     18          1           0       -6.817050    1.165128   -0.207670
     19          1           0       -8.066360    0.088720    0.452303
     20          1           0       -7.564307   -0.061664   -1.240759
     21          1           0       -5.788669   -0.647407    1.210433
     22          1           0       -6.552756   -1.870803    0.209376
     23          1           0       -5.197929   -1.172064   -1.780668
     24          1           0       -2.984759   -0.527246   -1.351842
     25          1           0       -3.856473    0.046333    1.577016
     26          1           0       -1.636021    0.700411    2.001491
     27          1           0       -0.968323    0.059782   -0.968343
     28          1           0        0.662902    1.096683    1.397982
     29          1           0        1.230472    0.557266   -1.580354
     30          1           0        2.945188    2.260288   -1.512882
     31          1           0        1.388566    2.925084   -1.023734
     32          1           0        3.653423    2.139301    0.912825
     33          1           0        3.269747    3.791369    0.400428
     34          1           0        2.119340    2.885687    1.387171
     35          1           0        2.197286   -0.543276    1.778795
     36          1           0        4.070768   -2.081988    2.220698
     37          1           0        5.691679   -2.635766    0.417189
     38          1           0        5.407557   -1.621863   -1.839205
     39          1           0        3.536059   -0.067621   -2.271678
 ---------------------------------------------------------------------

 SCF Done:  E(UB3LYP) =  -661.264385840     A.U. after   33 cycles
 SCF Done:  E(UB3LYP) =  -661.264385840     a.u. after    1 cycles

 The electronic state is 2-A.
 Alpha  occ. eigenvalues --  -10.08470 -10.08231 -10.08197 -10.08053 -10.07626
 Alpha  occ. eigenvalues --  -10.07429 -10.07136 -10.06788 -10.06357 -10.04885
 Alpha  occ. eigenvalues --  -10.04785 -10.02846 -10.02434 -10.02167 -10.02020
 Alpha  occ. eigenvalues --  -10.01545 -10.01383  -0.76584  -0.70987  -0.67986
 Alpha  occ. eigenvalues --   -0.65839  -0.65301  -0.64968  -0.62449  -0.59109
 Alpha  occ. eigenvalues --   -0.56037  -0.51798  -0.50929  -0.50638  -0.48243
 Alpha  occ. eigenvalues --   -0.44675  -0.43030  -0.41694  -0.38421  -0.36799
 Alpha  occ. eigenvalues --   -0.36425  -0.35104  -0.34954  -0.34284  -0.32914
 Alpha  occ. eigenvalues --   -0.32272  -0.31331  -0.31091  -0.28940  -0.28608
 Alpha  occ. eigenvalues --   -0.27647  -0.26754  -0.25968  -0.25829  -0.25337
 Alpha  occ. eigenvalues --   -0.25138  -0.23713  -0.23292  -0.22808  -0.22182
 Alpha  occ. eigenvalues --   -0.21102  -0.19507  -0.18359  -0.16364  -0.15188
 Alpha  occ. eigenvalues --   -0.14379  -0.07404   0.04753
 Alpha virt. eigenvalues --    0.06084   0.07026   0.07385   0.07567   0.07758
 Alpha virt. eigenvalues --    0.08012   0.09008   0.09310   0.09663   0.09955
 Alpha virt. eigenvalues --    0.10341   0.11020   0.11421   0.11805   0.12209

  Beta  occ. eigenvalues --  -10.08469 -10.08218 -10.08169 -10.08009 -10.07576
  Beta  occ. eigenvalues --  -10.07429 -10.07161 -10.06747 -10.06352 -10.04905
  Beta  occ. eigenvalues --  -10.04736 -10.02826 -10.02428 -10.01846 -10.01724
  Beta  occ. eigenvalues --  -10.01343 -10.01174  -0.76515  -0.70823  -0.67623
  Beta  occ. eigenvalues --   -0.65527  -0.65194  -0.64913  -0.62156  -0.58874
  Beta  occ. eigenvalues --   -0.55795  -0.51650  -0.50875  -0.50508  -0.48016
  Beta  occ. eigenvalues --   -0.44294  -0.42746  -0.41602  -0.38215  -0.36717
  Beta  occ. eigenvalues --   -0.36349  -0.35059  -0.34834  -0.34178  -0.32877
  Beta  occ. eigenvalues --   -0.32145  -0.31199  -0.30999  -0.28834  -0.28472
  Beta  occ. eigenvalues --   -0.27523  -0.26679  -0.25861  -0.25645  -0.25302
  Beta  occ. eigenvalues --   -0.24998  -0.23563  -0.23193  -0.22731  -0.22089
  Beta  occ. eigenvalues --   -0.20937  -0.18328  -0.18193  -0.16167  -0.15023
  Beta  occ. eigenvalues --   -0.13177  -0.05677
  Beta virt. eigenvalues --    0.06044   0.07165   0.07489   0.07558   0.07771
  Beta virt. eigenvalues --    0.08010   0.08967   0.09256   0.09716   0.09951
  Beta virt. eigenvalues --    0.10270   0.10321   0.11050   0.11433   0.11762

 Mulliken charges and spin densities:
               1          2
     1  C    0.056395  -0.673327
     2  C   -0.394546   0.301799
     3  C    0.028746   0.145592
     4  C   -0.214217  -0.096799
     5  C   -0.128315   0.139994
     6  C   -0.182497   0.120517
     7  C   -0.275765   0.006041
     8  C    0.006071   0.238079
     9  C    0.139574  -0.045595
    10  C   -0.416421   0.023965
    11  C   -0.536495  -0.088075
    12  C    1.216928  -0.032412
    13  C   -0.837957  -0.023515
    14  C   -0.537241   0.052970
    15  C   -0.316193  -0.046871
    16  C   -0.354865   0.019396
    17  C    0.170931   0.029938
    18  H    0.094426   0.037272
    19  H   -0.284611   0.402948
    20  H   -0.033166   0.146151
    21  H    0.054887   0.078363
    22  H    0.044921   0.070394
    23  H    0.105624   0.005979
    24  H    0.093917  -0.002553
    25  H    0.037748  -0.013761
    26  H    0.122554  -0.006350
    27  H    0.022136  -0.003411
    28  H    0.030122  -0.016726
    29  H    0.171386   0.005494
    30  H    0.070938   0.040989
    31  H    0.118418   0.024261
    32  H    0.122726   0.005310
    33  H    0.080735   0.046331
    34  H    0.136431   0.009362
    35  H    0.114347   0.007123
    36  H    0.144250   0.018981
    37  H    0.068432   0.050527
    38  H    0.127048   0.018336
    39  H    0.132597   0.003282
 Sum of Mulliken charges =  -1.00000   1.00000

 Dipole moment (field-independent basis, Debye):
    X=             10.4351    Y=              0.6141    Z=             -0.6501  Tot=             10.4734
 Quadrupole moment (field-independent basis, Debye-Ang):
   XX=           -230.0061   YY=           -127.1135   ZZ=           -113.7719
   XY=             -3.0432   XZ=              0.2318   YZ=              0.3685

 Summary of Natural Population Analysis:

                                       Natural Population
                Natural  -----------------------------------------------
    Atom  No    Charge         Core      Valence    Rydberg      Total
 -----------------------------------------------------------------------
      C    1   -0.27917      0.99966     2.27448    0.00503     3.27917
      C    2   -0.21217      0.99963     2.20259    0.00995     3.21217
      C    3   -0.03603      0.99956     2.02574    0.01073     3.03603
      C    4   -0.11844      0.99952     2.10992    0.00899     3.11844
      C    5   -0.07516      0.99954     2.06643    0.00919     3.07516
      C    6   -0.07191      0.99955     2.06270    0.00966     3.07191
      C    7   -0.10406      0.99950     2.09656    0.00800     3.10406
      C    8   -0.03782      0.99953     2.02878    0.00950     3.03782
      C    9   -0.13357      0.99955     2.12111    0.01291     3.13357
      C   10   -0.17436      0.99963     2.16721    0.00752     3.17436
      C   11   -0.29042      0.99967     2.28627    0.00448     3.29042
      C   12    0.00503      0.99949     1.98450    0.01098     2.99497
      C   13   -0.10166      0.99951     2.09452    0.00763     3.10166
      C   14   -0.09484      0.99957     2.08639    0.00888     3.09484
      C   15   -0.11254      0.99957     2.10387    0.00911     3.11254
      C   16   -0.10437      0.99957     2.09573    0.00907     3.10437
      C   17   -0.09695      0.99951     2.08948    0.00795     3.09695
      H   18    0.09639      0.00000     0.40269    0.00092     0.40361
      H   19    0.09308      0.00000     0.40503    0.00189     0.40692
      H   20    0.09170      0.00000     0.40694    0.00136     0.40830
      H   21    0.09603      0.00000     0.40266    0.00132     0.40397
      H   22    0.09507      0.00000     0.40373    0.00121     0.40493
      H   23    0.07951      0.00000     0.41929    0.00120     0.42049
      H   24    0.08810      0.00000     0.41039    0.00151     0.41190
      H   25    0.08378      0.00000     0.41464    0.00158     0.41622
      H   26    0.08179      0.00000     0.41662    0.00159     0.41821
      H   27    0.08529      0.00000     0.41317    0.00153     0.41471
      H   28    0.08080      0.00000     0.41777    0.00144     0.41920
      H   29    0.10107      0.00000     0.39751    0.00142     0.39893
      H   30    0.08928      0.00000     0.40902    0.00170     0.41072
      H   31    0.09741      0.00000     0.40110    0.00149     0.40259
      H   32    0.09890      0.00000     0.40020    0.00089     0.40110
      H   33    0.09337      0.00000     0.40532    0.00131     0.40663
      H   34    0.09827      0.00000     0.40082    0.00091     0.40173
      H   35    0.10725      0.00000     0.39180    0.00095     0.39275
      H   36    0.09513      0.00000     0.40346    0.00142     0.40487
      H   37    0.09514      0.00000     0.40367    0.00119     0.40486
      H   38    0.09516      0.00000     0.40381    0.00103     0.40484
      H   39    0.09592      0.00000     0.40287    0.00121     0.40408
 =======================================================================
   * Total *   -0.00000     16.99258    44.82879    0.17863    62.00000

 Normal termination of Gaussian 16 at Sun Dec 13 13:31:49 2020.
