 Gaussian 16, Revision A.03,

 -----------------------------------------------------------
 # opt freq B3LYP/6-31G(d) empiricaldispersion=gd3bj scf=xqc
 -----------------------------------------------------------

 ------------------------------
 CID_44357860_JID_5715_neutraal
 ------------------------------
 Symbolic Z-matrix:
 Charge =  0 Multiplicity = 1

 SCF Done:  E(RB3LYP) =  -686.385518792     A.U. after   15 cycles
 SCF Done:  E(RB3LYP) =  -686.390869680     A.U. after   12 cycles
 SCF Done:  E(RB3LYP) =  -686.391769432     A.U. after   12 cycles
 SCF Done:  E(RB3LYP) =  -686.392126980     A.U. after   11 cycles
 SCF Done:  E(RB3LYP) =  -686.392347790     A.U. after   12 cycles
 SCF Done:  E(RB3LYP) =  -686.392422822     A.U. after   11 cycles
 SCF Done:  E(RB3LYP) =  -686.392477580     A.U. after   11 cycles
 SCF Done:  E(RB3LYP) =  -686.392514480     A.U. after   10 cycles
 SCF Done:  E(RB3LYP) =  -686.392521162     A.U. after   10 cycles
 SCF Done:  E(RB3LYP) =  -686.392528399     A.U. after    9 cycles
 SCF Done:  E(RB3LYP) =  -686.392534806     A.U. after    8 cycles
 SCF Done:  E(RB3LYP) =  -686.392535754     A.U. after    7 cycles
 SCF Done:  E(RB3LYP) =  -686.392536368     A.U. after    7 cycles
 SCF Done:  E(RB3LYP) =  -686.392536591     A.U. after    7 cycles
 SCF Done:  E(RB3LYP) =  -686.392536666     A.U. after    7 cycles
 Optimization completed.
    -- Stationary point found.
 Normal termination of Gaussian 16 at Thu Dec 10 16:41:40 2020.

 --------------------------------------------------------------------
 #N Geom=AllCheck Guess=TCheck SCRF=Check GenChk RB3LYP/6-31G(d) Freq
 --------------------------------------------------------------------

 Structure from the checkpoint file:  "JID_5715.chk"
 ------------------------------
 CID_44357860_JID_5715_neutraal
 ------------------------------
 Charge =  0 Multiplicity = 1

 SCF Done:  E(RB3LYP) =  -686.392536666     A.U. after    1 cycles

  Exact polarizability: 152.038 -18.568 119.509  -0.015  -7.399  97.513
 Approx polarizability: 219.335 -38.174 192.651  -0.809 -17.379 164.514

                      1                      2                      3
                      A                      A                      A
 Frequencies --     37.1370                52.2976                72.9091
 Red. masses --      5.0190                 4.7746                 5.2739
 Frc consts  --      0.0041                 0.0077                 0.0165
 IR Inten    --      2.1280                 2.9319                 0.3084

                      4                      5                      6
                      A                      A                      A
 Frequencies --     96.0569               119.2838               141.0122
 Red. masses --      2.6822                 1.2866                 2.6318
 Frc consts  --      0.0146                 0.0108                 0.0308
 IR Inten    --      9.3269                 0.3973                 0.6934

                      7                      8                      9
                      A                      A                      A
 Frequencies --    181.5652               201.2198               230.2741
 Red. masses --      5.1137                 5.0566                 5.8877
 Frc consts  --      0.0993                 0.1206                 0.1839
 IR Inten    --      2.2842                 8.4158                 5.0095

                     10                     11                     12
                      A                      A                      A
 Frequencies --    286.7475               322.2652               339.4965
 Red. masses --      4.1391                 2.4062                 3.9376
 Frc consts  --      0.2005                 0.1472                 0.2674
 IR Inten    --     11.8879                14.5147                 0.9897

                     13                     14                     15
                      A                      A                      A
 Frequencies --    419.1780               434.7368               478.3418
 Red. masses --      1.3754                 3.8954                 3.5309
 Frc consts  --      0.1424                 0.4338                 0.4760
 IR Inten    --     55.4785                 6.2985                 1.8111

                     16                     17                     18
                      A                      A                      A
 Frequencies --    510.8575               555.2285               589.9553
 Red. masses --      5.1240                 5.1468                 3.7940
 Frc consts  --      0.7879                 0.9348                 0.7780
 IR Inten    --      8.6402                 0.6029                 2.4942

                     19                     20                     21
                      A                      A                      A
 Frequencies --    598.1581               630.1966               642.8625
 Red. masses --      4.1451                 4.9567                 1.3295
 Frc consts  --      0.8738                 1.1598                 0.3237
 IR Inten    --      1.5011                 0.0545               108.9461

                     22                     23                     24
                      A                      A                      A
 Frequencies --    696.3566               747.0260               750.7290
 Red. masses --      4.5256                 5.9710                 4.7518
 Frc consts  --      1.2930                 1.9632                 1.5779
 IR Inten    --     24.1805                 4.5552                 0.7397

                     25                     26                     27
                      A                      A                      A
 Frequencies --    771.0374               771.8311               793.0190
 Red. masses --      1.1764                 1.7977                 2.4338
 Frc consts  --      0.4121                 0.6310                 0.9018
 IR Inten    --      2.6133                14.0296                21.7603

                     28                     29                     30
                      A                      A                      A
 Frequencies --    818.2864               858.2284               886.0938
 Red. masses --      4.8132                 4.0640                 1.5630
 Frc consts  --      1.8989                 1.7636                 0.7231
 IR Inten    --      5.6094                10.6414                 0.7315

                     31                     32                     33
                      A                      A                      A
 Frequencies --    916.7315               944.8619               978.4819
 Red. masses --      4.1776                 1.3961                 1.7290
 Frc consts  --      2.0685                 0.7344                 0.9753
 IR Inten    --     18.3106                 1.1642                 3.4416

                     34                     35                     36
                      A                      A                      A
 Frequencies --    980.4817              1050.1082              1070.1375
 Red. masses --      1.3774                 7.3734                 2.1148
 Frc consts  --      0.7802                 4.7906                 1.4269
 IR Inten    --      1.5337                60.9360                 8.9146

                     37                     38                     39
                      A                      A                      A
 Frequencies --   1085.6369              1104.5667              1137.8267
 Red. masses --      1.5122                 1.7935                 1.8244
 Frc consts  --      1.0501                 1.2892                 1.3916
 IR Inten    --     22.5419                14.1819                33.4479

                     40                     41                     42
                      A                      A                      A
 Frequencies --   1186.0522              1188.9776              1191.9532
 Red. masses --      1.2569                 1.2387                 1.3634
 Frc consts  --      1.0417                 1.0318                 1.1413
 IR Inten    --      1.3157                 4.0191                 8.5116

                     43                     44                     45
                      A                      A                      A
 Frequencies --   1208.1556              1212.7622              1225.5516
 Red. masses --      2.2958                 1.8352                 2.1191
 Frc consts  --      1.9744                 1.5903                 1.8752
 IR Inten    --     15.8241                 9.2542                 1.7729

                     46                     47                     48
                      A                      A                      A
 Frequencies --   1283.6037              1294.9771              1302.4849
 Red. masses --      3.4433                 2.2667                 1.6173
 Frc consts  --      3.3426                 2.2396                 1.6165
 IR Inten    --     89.7790                31.8050                24.6548

                     49                     50                     51
                      A                      A                      A
 Frequencies --   1339.5932              1384.7152              1398.5244
 Red. masses --      4.4578                 1.7864                 1.9378
 Frc consts  --      4.7132                 2.0181                 2.2331
 IR Inten    --      3.7847                 7.6696                48.5155

                     52                     53                     54
                      A                      A                      A
 Frequencies --   1417.6105              1467.8765              1491.0060
 Red. masses --      1.8716                 2.7875                 1.4217
 Frc consts  --      2.2160                 3.5387                 1.8622
 IR Inten    --     23.9401               109.9324                15.8110

                     55                     56                     57
                      A                      A                      A
 Frequencies --   1506.0993              1508.1267              1514.8959
 Red. masses --      1.1791                 1.5822                 1.1117
 Frc consts  --      1.5758                 2.1202                 1.5031
 IR Inten    --      8.8216                 5.9918                13.5884

                     58                     59                     60
                      A                      A                      A
 Frequencies --   1533.0471              1546.3057              1641.1463
 Red. masses --      1.0755                 2.2757                 6.1338
 Frc consts  --      1.4893                 3.2060                 9.7336
 IR Inten    --     22.3226                52.6917                 8.9224

                     61                     62                     63
                      A                      A                      A
 Frequencies --   1647.0468              1663.6246              1821.1182
 Red. masses --      4.8237                 6.0489                10.1414
 Frc consts  --      7.7099                 9.8637                19.8165
 IR Inten    --      2.9170                10.8928               499.2319

                     64                     65                     66
                      A                      A                      A
 Frequencies --   3029.7931              3055.4840              3100.0923
 Red. masses --      1.0392                 1.0666                 1.1013
 Frc consts  --      5.6203                 5.8667                 6.2360
 IR Inten    --     60.1189                40.5203                39.7708

                     67                     68                     69
                      A                      A                      A
 Frequencies --   3117.8845              3175.1050              3181.7200
 Red. masses --      1.0968                 1.0876                 1.0999
 Frc consts  --      6.2818                 6.4602                 6.5606
 IR Inten    --      2.7637                10.0346                17.8372

                     70                     71                     72
                      A                      A                      A
 Frequencies --   3190.5045              3205.2188              3214.4707
 Red. masses --      1.0877                 1.0924                 1.0969
 Frc consts  --      6.5234                 6.6124                 6.6781
 IR Inten    --      7.5836                24.6267                16.7024

                     73                     74                     75
                      A                      A                      A
 Frequencies --   3293.2250              3313.8632              3690.3665
 Red. masses --      1.0900                 1.1081                 1.0805
 Frc consts  --      6.9648                 7.1697                 8.6698
 IR Inten    --      1.7610                 1.0470                74.4955

 - Thermochemistry -
 -------------------
 Temperature   298.150 Kelvin.  Pressure   1.00000 Atm.
 Atom     1 has atomic number  6 and mass  12.00000

 Molecular mass:   204.08988 amu.
 Principal axes and moments of inertia in atomic units:
                           1         2         3
     Eigenvalues --  1609.898463933.446504583.25693
           X            0.99998   0.00092   0.00581
           Y           -0.00088   0.99997  -0.00727
           Z           -0.00582   0.00726   0.99996
 This molecule is an asymmetric top.
 Rotational symmetry number  1.
 Warning -- assumption of classical behavior for rotation
           may cause significant error
 Rotational temperatures (Kelvin)      0.05380     0.02202     0.01890
 Rotational constants (GHZ):           1.12103     0.45882     0.39377
 Zero-point vibrational energy     573275.6 (Joules/Mol)
                                  137.01617 (Kcal/Mol)
 Warning -- explicit consideration of  19 degrees of freedom as
           vibrations may cause significant error
 Vibrational temperatures:     53.43    75.24   104.90   138.20   171.62
          (Kelvin)            202.89   261.23   289.51   331.31   412.57
                              463.67   488.46   603.10   625.49   688.23
                              735.01   798.85   848.81   860.62   906.71
                              924.94  1001.90  1074.80  1080.13  1109.35
                             1110.49  1140.98  1177.33  1234.80  1274.89
                             1318.97  1359.45  1407.82  1410.69  1510.87
                             1539.69  1561.99  1589.23  1637.08  1706.46
                             1710.67  1714.95  1738.27  1744.89  1763.30
                             1846.82  1863.18  1873.99  1927.38  1992.30
                             2012.16  2039.63  2111.95  2145.23  2166.94
                             2169.86  2179.60  2205.71  2224.79  2361.24
                             2369.73  2393.58  2620.18  4359.20  4396.16
                             4460.34  4485.94  4568.27  4577.79  4590.42
                             4611.59  4624.91  4738.22  4767.91  5309.61

 Zero-point correction=                           0.218349 (Hartree/Particle)
 Thermal correction to Energy=                    0.231714
 Thermal correction to Enthalpy=                  0.232658
 Thermal correction to Gibbs Free Energy=         0.177472
 Sum of electronic and zero-point Energies=           -686.174188
 Sum of electronic and thermal Energies=              -686.160822
 Sum of electronic and thermal Enthalpies=            -686.159878
 Sum of electronic and thermal Free Energies=         -686.215065

                     E (Thermal)             CV                S
                      KCal/Mol        Cal/Mol-Kelvin    Cal/Mol-Kelvin
 Total                  145.403             50.613            116.150
 Electronic               0.000              0.000              0.000
 Translational            0.889              2.981             41.844
 Rotational               0.889              2.981             31.740
 Vibrational            143.625             44.652             42.565
 Vibration     1          0.594              1.982              5.406
 Vibration     2          0.596              1.977              4.729
 Vibration     3          0.599              1.967              4.073
 Vibration     4          0.603              1.952              3.533
 Vibration     5          0.609              1.933              3.112
 Vibration     6          0.615              1.912              2.790
 Vibration     7          0.630              1.865              2.312
 Vibration     8          0.638              1.838              2.122
 Vibration     9          0.652              1.795              1.877
 Vibration    10          0.684              1.698              1.493
 Vibration    11          0.707              1.631              1.299
 Vibration    12          0.719              1.597              1.215
 Vibration    13          0.782              1.429              0.895
 Vibration    14          0.795              1.395              0.843
 Vibration    15          0.835              1.298              0.715
 Vibration    16          0.866              1.226              0.632
 Vibration    17          0.911              1.128              0.533
 Vibration    18          0.947              1.053              0.467
 Vibration    19          0.956              1.036              0.453

                           ! Non-Optimized Parameters !
 Normal termination of Gaussian 16 at Thu Dec 10 16:50:05 2020.

 ----------------------------------------------------------------------
 # B3LYP/6-311++G(d,p) empiricaldispersion=gd3bj scf=xqc pop=npa geom=c
 heck
 ----------------------------------------------------------------------

 --------------------------------------
 CID_44357860_JID_5715_Energie_neutraal
 --------------------------------------
 Structure from the checkpoint file:  "JID_5715.chk"
 Charge =  0 Multiplicity = 1

 SCF Done:  E(RB3LYP) =  -686.585782733     A.U. after   16 cycles
 Normal termination of Gaussian 16 at Thu Dec 10 16:53:36 2020.

 ----------------------------------------------------------------------
 # B3LYP/6-311++G(d,p) empiricaldispersion=gd3bj scf=xqc pop=npa geom=c
 heck
 ----------------------------------------------------------------------

 ------------------------------------
 CID_44357860_JID_5715_Energie_kation
 ------------------------------------
 Structure from the checkpoint file:  "JID_5715.chk"
 Charge =  1 Multiplicity = 2

 SCF Done:  E(UB3LYP) =  -686.308698383     A.U. after   25 cycles
 Normal termination of Gaussian 16 at Thu Dec 10 17:02:54 2020.
 Gaussian 16:  ES64L-G16RevA.03 25-Dec-2016

 ----------------------------------------------------------------------
 # B3LYP/6-311++G(d,p) empiricaldispersion=gd3bj scf=xqc pop=npa geom=c
 heck
 ----------------------------------------------------------------------

 -----------------------------------
 CID_44357860_JID_5715_Energie_anion
 -----------------------------------
 Structure from the checkpoint file:  "JID_5715.chk"
 Charge = -1 Multiplicity = 2

                         Standard orientation:
 ---------------------------------------------------------------------
 Center     Atomic      Atomic             Coordinates (Angstroms)
 Number     Number       Type             X           Y           Z
 ---------------------------------------------------------------------
      1          6           0        0.207943    2.660769    0.151655
      2          8           0        0.232626    1.452434   -0.610954
      3          6           0        1.273548    0.603726   -0.311624
      4          6           0        2.488512    0.740105   -0.982536
      5          6           0        3.535499   -0.144777   -0.722071
      6          6           0        3.364622   -1.169170    0.208394
      7          6           0        2.142844   -1.304758    0.869624
      8          6           0        1.085497   -0.423835    0.628387
      9          6           0       -0.235209   -0.586771    1.349157
     10          7           0       -1.363585   -0.758121    0.454224
     11          6           0       -1.502976   -1.727257   -0.539420
     12          6           0       -2.603377   -1.421341   -1.261101
     13          7           0       -3.139212   -0.253888   -0.713720
     14          6           0       -2.359892    0.207407    0.336163
     15          8           0       -2.509916    1.221069    1.011233
     16          1           0        1.074836    3.290797   -0.089519
     17          1           0        0.197820    2.453004    1.227300
     18          1           0       -0.718644    3.169617   -0.112822
     19          1           0        2.591982    1.537429   -1.712220
     20          1           0        4.479013   -0.035529   -1.249281
     21          1           0        4.172927   -1.864940    0.413070
     22          1           0        2.003348   -2.108825    1.588816
     23          1           0       -0.172324   -1.443095    2.031112
     24          1           0       -0.482910    0.294381    1.947995
     25          1           0       -0.805025   -2.543575   -0.635427
     26          1           0       -3.061171   -1.930743   -2.093542
     27          1           0       -3.924028    0.272916   -1.061016
 ---------------------------------------------------------------------

 SCF Done:  E(UB3LYP) =  -686.572072954     A.U. after   33 cycles
 SCF Done:  E(UB3LYP) =  -686.572072955     a.u. after    1 cycles

 The electronic state is 2-A.
 Alpha  occ. eigenvalues --  -19.04421 -18.98059 -14.25798 -14.25410 -10.18988
 Alpha  occ. eigenvalues --  -10.13576 -10.12412 -10.12363 -10.10688 -10.10435
 Alpha  occ. eigenvalues --  -10.09240 -10.08546 -10.08502 -10.08324 -10.08011
 Alpha  occ. eigenvalues --   -0.96382  -0.95577  -0.88379  -0.81782  -0.76511
 Alpha  occ. eigenvalues --   -0.68870  -0.65981  -0.65079  -0.61396  -0.59068
 Alpha  occ. eigenvalues --   -0.53341  -0.52177  -0.51155  -0.48008  -0.43888
 Alpha  occ. eigenvalues --   -0.42964  -0.40311  -0.39091  -0.38844  -0.37036
 Alpha  occ. eigenvalues --   -0.36073  -0.35602  -0.34911  -0.34503  -0.33422
 Alpha  occ. eigenvalues --   -0.32530  -0.32041  -0.30626  -0.28189  -0.27444
 Alpha  occ. eigenvalues --   -0.26707  -0.24696  -0.23536  -0.20414  -0.18182
 Alpha  occ. eigenvalues --   -0.17522  -0.16403  -0.15168  -0.10490   0.04223
 Alpha virt. eigenvalues --    0.05696   0.06781   0.07125   0.07503   0.07824
 Alpha virt. eigenvalues --    0.08222   0.08950   0.09759   0.10303   0.11103
 Alpha virt. eigenvalues --    0.11464   0.11861   0.11981   0.13493   0.14328

  Beta  occ. eigenvalues --  -19.04422 -18.98056 -14.25793 -14.25379 -10.18988
  Beta  occ. eigenvalues --  -10.13553 -10.12398 -10.12353 -10.10664 -10.10425
  Beta  occ. eigenvalues --  -10.09230 -10.08534 -10.08478 -10.08321 -10.07979
  Beta  occ. eigenvalues --   -0.96372  -0.95564  -0.88365  -0.81744  -0.76471
  Beta  occ. eigenvalues --   -0.68826  -0.65936  -0.65036  -0.61360  -0.59035
  Beta  occ. eigenvalues --   -0.53292  -0.52138  -0.51105  -0.47960  -0.43841
  Beta  occ. eigenvalues --   -0.42918  -0.40278  -0.39047  -0.38799  -0.37007
  Beta  occ. eigenvalues --   -0.36039  -0.35555  -0.34879  -0.34469  -0.33397
  Beta  occ. eigenvalues --   -0.32501  -0.32008  -0.30597  -0.28150  -0.27404
  Beta  occ. eigenvalues --   -0.26665  -0.24660  -0.23520  -0.20395  -0.18172
  Beta  occ. eigenvalues --   -0.17504  -0.16363  -0.15072  -0.10471
  Beta virt. eigenvalues --    0.06442   0.07143   0.07289   0.07471   0.07827
  Beta virt. eigenvalues --    0.08118   0.09114   0.09490   0.10027   0.10852
  Beta virt. eigenvalues --    0.11146   0.11810   0.11959   0.12127   0.13441

 Mulliken charges and spin densities:
               1          2
     1  C   -0.059830  -0.218317
     2  O   -0.055393  -0.003627
     3  C   -2.856049   1.566933
     4  C   -0.638273   0.275009
     5  C    0.886497  -1.168816
     6  C    1.228407  -1.639016
     7  C   -0.155208  -0.018324
     8  C    2.031916   0.138981
     9  C    0.352962  -1.149439
    10  N    0.197749  -0.035450
    11  C   -0.332833   0.069116
    12  C    1.108002  -1.179144
    13  N   -0.288816   0.047043
    14  C    0.713161  -0.586137
    15  O   -0.436539   0.028352
    16  H    0.030677   0.084045
    17  H    0.048497   0.088074
    18  H    0.134642   0.045967
    19  H   -0.028642   0.212515
    20  H   -0.333846   0.495793
    21  H   -0.816852   0.997013
    22  H   -0.563849   0.712941
    23  H   -0.116845   0.321317
    24  H    0.262291  -0.062096
    25  H   -0.050572   0.198904
    26  H   -1.033640   1.209290
    27  H   -0.227617   0.569073
 Sum of Mulliken charges =  -1.00000   1.00000

 Dipole moment (field-independent basis, Debye):
    X=              0.5500    Y=              3.6349    Z=              2.0214  Tot=              4.1954
 Quadrupole moment (field-independent basis, Debye-Ang):
   XX=           -175.8054   YY=           -125.7923   ZZ=           -125.2859
   XY=             10.3789   XZ=            -10.5330   YZ=             -2.3597

 Summary of Natural Population Analysis:

                                       Natural Population
                Natural  -----------------------------------------------
    Atom  No    Charge         Core      Valence    Rydberg      Total
 -----------------------------------------------------------------------
      C    1   -0.09327      0.99959     2.08594    0.00774     3.09327
      O    2   -0.29159      0.99986     3.28203    0.00970     4.29159
      C    3    0.16129      0.99932     1.82472    0.01467     2.83871
      C    4   -0.11786      0.99951     2.10808    0.01027     3.11786
      C    5   -0.09449      0.99957     2.08457    0.01036     3.09449
      C    6   -0.10122      0.99956     2.09111    0.01056     3.10122
      C    7   -0.09390      0.99952     2.08365    0.01072     3.09390
      C    8   -0.04395      0.99945     2.03411    0.01039     3.04395
      C    9   -0.09140      0.99958     2.07973    0.01210     3.09140
      N   10   -0.23818      0.99963     2.72774    0.01081     3.73818
      C   11   -0.02656      0.99954     2.01530    0.01172     3.02656
      C   12   -0.02600      0.99956     2.01360    0.01284     3.02600
      N   13   -0.30305      0.99968     2.79259    0.01077     3.80305
      C   14    0.39502      0.99967     1.58110    0.02421     2.60498
      O   15   -0.34901      0.99988     3.34391    0.00522     4.34901
      H   16    0.07673      0.00000     0.42196    0.00131     0.42327
      H   17    0.08376      0.00000     0.41522    0.00102     0.41624
      H   18    0.09751      0.00000     0.40153    0.00096     0.40249
      H   19    0.10471      0.00000     0.39418    0.00111     0.39529
      H   20    0.10210      0.00000     0.39660    0.00131     0.39790
      H   21    0.10466      0.00000     0.39274    0.00260     0.39534
      H   22    0.10213      0.00000     0.39583    0.00203     0.39787
      H   23    0.09971      0.00000     0.39914    0.00115     0.40029
      H   24    0.11790      0.00000     0.38058    0.00153     0.38210
      H   25    0.10866      0.00000     0.39014    0.00120     0.39134
      H   26    0.10868      0.00000     0.38775    0.00358     0.39132
      H   27    0.20764      0.00000     0.28730    0.00506     0.29236
 =======================================================================
   * Total *   -0.00000     14.99391    38.81114    0.19495    54.00000

 Normal termination of Gaussian 16 at Thu Dec 10 17:12:07 2020.
