 Gaussian 16, Revision A.03,

 -----------------------------------------------------------
 # opt freq B3LYP/6-31G(d) empiricaldispersion=gd3bj scf=xqc
 -----------------------------------------------------------

 ------------------------------
 CID_54273690_JID_2891_neutraal
 ------------------------------
 Symbolic Z-matrix:
 Charge =  0 Multiplicity = 1

 SCF Done:  E(RB3LYP) =  -470.530216144     A.U. after   13 cycles
 SCF Done:  E(RB3LYP) =  -470.537325021     A.U. after   11 cycles
 SCF Done:  E(RB3LYP) =  -470.537722547     A.U. after   10 cycles
 SCF Done:  E(RB3LYP) =  -470.537796964     A.U. after   10 cycles
 SCF Done:  E(RB3LYP) =  -470.537823368     A.U. after    9 cycles
 SCF Done:  E(RB3LYP) =  -470.537841161     A.U. after    9 cycles
 SCF Done:  E(RB3LYP) =  -470.537849927     A.U. after    9 cycles
 SCF Done:  E(RB3LYP) =  -470.537856532     A.U. after    8 cycles
 SCF Done:  E(RB3LYP) =  -470.537863101     A.U. after    8 cycles
 SCF Done:  E(RB3LYP) =  -470.537865409     A.U. after    9 cycles
 Optimization completed.
    -- Stationary point found.
 Normal termination of Gaussian 16 at Wed Dec  9 17:59:54 2020.

 --------------------------------------------------------------------
 #N Geom=AllCheck Guess=TCheck SCRF=Check GenChk RB3LYP/6-31G(d) Freq
 --------------------------------------------------------------------

 Structure from the checkpoint file:  "JID_2891.chk"
 ------------------------------
 CID_54273690_JID_2891_neutraal
 ------------------------------
 Charge =  0 Multiplicity = 1

 SCF Done:  E(RB3LYP) =  -470.537865409     A.U. after    1 cycles

  Exact polarizability: 156.775   6.745 118.009  -1.320   1.954 106.326
 Approx polarizability: 193.973  15.070 175.848  -2.266   4.860 155.180

                      1                      2                      3
                      A                      A                      A
 Frequencies --     31.0251                44.9444                61.3889
 Red. masses --      2.7018                 2.8336                 3.3429
 Frc consts  --      0.0015                 0.0034                 0.0074
 IR Inten    --      0.0152                 0.0102                 0.0479

                      4                      5                      6
                      A                      A                      A
 Frequencies --    121.0495               165.1043               222.2547
 Red. masses --      2.9772                 3.0115                 1.1193
 Frc consts  --      0.0257                 0.0484                 0.0326
 IR Inten    --      0.1190                 0.0559                 0.1148

                      7                      8                      9
                      A                      A                      A
 Frequencies --    234.5121               247.3770               262.5168
 Red. masses --      1.0192                 2.3810                 1.4412
 Frc consts  --      0.0330                 0.0858                 0.0585
 IR Inten    --      0.0080                 0.1010                 0.1429

                     10                     11                     12
                      A                      A                      A
 Frequencies --    276.4967               281.1360               292.8250
 Red. masses --      1.0527                 1.1083                 1.1461
 Frc consts  --      0.0474                 0.0516                 0.0579
 IR Inten    --      0.0661                 0.0591                 0.0703

                     13                     14                     15
                      A                      A                      A
 Frequencies --    296.9097               302.8026               322.7935
 Red. masses --      1.3467                 2.2271                 2.7813
 Frc consts  --      0.0699                 0.1203                 0.1707
 IR Inten    --      0.0429                 0.2079                 1.2303

                     16                     17                     18
                      A                      A                      A
 Frequencies --    342.1565               363.5191               382.4786
 Red. masses --      2.3374                 2.2712                 2.2934
 Frc consts  --      0.1612                 0.1768                 0.1977
 IR Inten    --      0.0453                 0.1619                 0.4265

                     19                     20                     21
                      A                      A                      A
 Frequencies --    399.1511               401.4060               462.8205
 Red. masses --      2.3846                 2.3365                 2.4235
 Frc consts  --      0.2238                 0.2218                 0.3059
 IR Inten    --      0.5114                 0.2128                 0.1631

                     22                     23                     24
                      A                      A                      A
 Frequencies --    475.7251               515.6100               616.8552
 Red. masses --      2.3267                 2.3562                 3.3945
 Frc consts  --      0.3102                 0.3691                 0.7610
 IR Inten    --      0.3960                 0.0689                 0.4388

                     25                     26                     27
                      A                      A                      A
 Frequencies --    699.0920               767.1984               802.7455
 Red. masses --      2.6243                 3.5892                 2.8689
 Frc consts  --      0.7557                 1.2447                 1.0892
 IR Inten    --      0.5529                 0.8668                 5.5723

                     28                     29                     30
                      A                      A                      A
 Frequencies --    862.6499               872.4093               940.1038
 Red. masses --      1.5280                 2.1352                 1.7770
 Frc consts  --      0.6699                 0.9575                 0.9253
 IR Inten    --      9.0162                 1.2078                 0.2189

                     31                     32                     33
                      A                      A                      A
 Frequencies --    940.8934               945.8137               947.9483
 Red. masses --      2.0457                 1.7366                 1.7594
 Frc consts  --      1.0670                 0.9153                 0.9315
 IR Inten    --      2.7967                 0.8564                 0.5244

                     34                     35                     36
                      A                      A                      A
 Frequencies --    957.3322               971.0797               973.8217
 Red. masses --      1.7762                 1.3865                 1.2063
 Frc consts  --      0.9591                 0.7704                 0.6740
 IR Inten    --      5.4447                 1.5942                 0.0959

                     37                     38                     39
                      A                      A                      A
 Frequencies --    974.9440              1010.8665              1026.3424
 Red. masses --      1.2510                 2.4430                 1.2286
 Frc consts  --      0.7006                 1.4708                 0.7625
 IR Inten    --      0.3833                 4.7558                 4.2624

                     40                     41                     42
                      A                      A                      A
 Frequencies --   1057.9883              1063.1019              1070.1577
 Red. masses --      1.4027                 1.3949                 1.4173
 Frc consts  --      0.9251                 0.9288                 0.9563
 IR Inten    --      0.3740                 0.6270                 0.3898

                     43                     44                     45
                      A                      A                      A
 Frequencies --   1072.3896              1082.7522              1132.8687
 Red. masses --      1.5313                 1.4910                 1.5073
 Frc consts  --      1.0376                 1.0299                 1.1398
 IR Inten    --      2.9562                 2.0965                 2.6036

                     46                     47                     48
                      A                      A                      A
 Frequencies --   1160.1301              1236.9661              1241.2074
 Red. masses --      1.9848                 2.1276                 2.2674
 Frc consts  --      1.5739                 1.9180                 2.0581
 IR Inten    --      5.1033                12.3751                 8.6440

                     49                     50                     51
                      A                      A                      A
 Frequencies --   1243.5398              1260.4943              1299.1814
 Red. masses --      2.5809                 2.8220                 2.8566
 Frc consts  --      2.3515                 2.6417                 2.8408
 IR Inten    --     10.9870                 3.4187                25.2530

                     52                     53                     54
                      A                      A                      A
 Frequencies --   1310.7168              1361.2291              1398.3157
 Red. masses --      2.8585                 1.4627                 1.5779
 Frc consts  --      2.8933                 1.5969                 1.8178
 IR Inten    --      5.2908                 0.4469                 0.5519

                     55                     56                     57
                      A                      A                      A
 Frequencies --   1421.9224              1425.2445              1425.9872
 Red. masses --      1.2212                 1.2371                 1.2477
 Frc consts  --      1.4548                 1.4806                 1.4948
 IR Inten    --      3.8749                 3.5222                 5.8943

                     58                     59                     60
                      A                      A                      A
 Frequencies --   1427.1579              1455.9100              1457.5992
 Red. masses --      1.2680                 1.2271                 1.2390
 Frc consts  --      1.5217                 1.5325                 1.5509
 IR Inten    --      6.7470                 4.0077                 2.9885

                     61                     62                     63
                      A                      A                      A
 Frequencies --   1489.1114              1509.5252              1511.7656
 Red. masses --      1.1708                 1.0492                 1.0517
 Frc consts  --      1.5296                 1.4086                 1.4162
 IR Inten    --      1.8981                 0.0071                 0.4520

                     64                     65                     66
                      A                      A                      A
 Frequencies --   1516.3271              1517.0179              1517.1110
 Red. masses --      1.0460                 1.0455                 1.0451
 Frc consts  --      1.4170                 1.4177                 1.4173
 IR Inten    --      0.0750                 0.2827                 0.6259

                     67                     68                     69
                      A                      A                      A
 Frequencies --   1520.6137              1532.4361              1533.6614
 Red. masses --      1.0469                 1.0518                 1.0577
 Frc consts  --      1.4263                 1.4552                 1.4658
 IR Inten    --      0.2047                 6.2972                 3.9461

                     70                     71                     72
                      A                      A                      A
 Frequencies --   1534.1446              1537.6587              1548.2053
 Red. masses --      1.0585                 1.0552                 1.0663
 Frc consts  --      1.4678                 1.4699                 1.5058
 IR Inten    --      5.9756                 5.7655                 8.8976

                     73                     74                     75
                      A                      A                      A
 Frequencies --   1550.6322              1857.3849              3036.6421
 Red. masses --      1.0605                10.5242                 1.0344
 Frc consts  --      1.5023                21.3915                 5.6198
 IR Inten    --      9.1230                 3.0445                27.9837

                     76                     77                     78
                      A                      A                      A
 Frequencies --   3036.6873              3040.5313              3040.8219
 Red. masses --      1.0343                 1.0348                 1.0348
 Frc consts  --      5.6193                 5.6363                 5.6375
 IR Inten    --     27.7735                46.1461                25.7520

                     79                     80                     81
                      A                      A                      A
 Frequencies --   3052.3793              3052.6887              3097.9930
 Red. masses --      1.0358                 1.0361                 1.0871
 Frc consts  --      5.6857                 5.6889                 6.1470
 IR Inten    --     17.3973                22.7391                12.2509

                     82                     83                     84
                      A                      A                      A
 Frequencies --   3101.5292              3102.0933              3106.4935
 Red. masses --      1.1026                 1.1026                 1.1010
 Frc consts  --      6.2493                 6.2512                 6.2602
 IR Inten    --      0.2052                 0.1638                34.2896

                     85                     86                     87
                      A                      A                      A
 Frequencies --   3106.8692              3109.7070              3111.8046
 Red. masses --      1.1012                 1.1020                 1.0978
 Frc consts  --      6.2626                 6.2789                 6.2634
 IR Inten    --     46.2278                18.1366                20.7196

                     88                     89                     90
                      A                      A                      A
 Frequencies --   3112.9676              3113.7265              3115.4399
 Red. masses --      1.1017                 1.1013                 1.0982
 Frc consts  --      6.2899                 6.2911                 6.2800
 IR Inten    --     19.3081                 8.5865                51.8070

                     91                     92                     93
                      A                      A                      A
 Frequencies --   3116.3258              3118.9926              3121.6897
 Red. masses --      1.0926                 1.0978                 1.0648
 Frc consts  --      6.2518                 6.2921                 6.1136
 IR Inten    --     85.1001                72.7437                17.3277

                     94                     95                     96
                      A                      A                      A
 Frequencies --   3127.3226              3129.5797              3193.5118
 Red. masses --      1.0979                 1.1022                 1.1145
 Frc consts  --      6.3263                 6.3601                 6.6969
 IR Inten    --     43.2079                30.8995                12.4072

 - Thermochemistry -
 -------------------
 Temperature   298.150 Kelvin.  Pressure   1.00000 Atm.
 Atom     1 has atomic number  6 and mass  12.00000

 Molecular mass:   166.17215 amu.
 Principal axes and moments of inertia in atomic units:
                           1         2         3
     Eigenvalues --  1001.442334022.070584187.71231
           X            1.00000  -0.00140  -0.00003
           Y            0.00140   0.99963   0.02702
           Z           -0.00000  -0.02702   0.99963
 This molecule is an asymmetric top.
 Rotational symmetry number  1.
 Warning -- assumption of classical behavior for rotation
           may cause significant error
 Rotational temperatures (Kelvin)      0.08649     0.02153     0.02068
 Rotational constants (GHZ):           1.80214     0.44871     0.43096
 Zero-point vibrational energy     820891.6 (Joules/Mol)
                                  196.19779 (Kcal/Mol)
 Warning -- explicit consideration of  24 degrees of freedom as
           vibrations may cause significant error
 Vibrational temperatures:     44.64    64.66    88.32   174.16   237.55
          (Kelvin)            319.77   337.41   355.92   377.70   397.82
                              404.49   421.31   427.19   435.67   464.43
                              492.29   523.02   550.30   574.29   577.53
                              665.90   684.46   741.85   887.52  1005.84
                             1103.83  1154.97  1241.16  1255.20  1352.60
                             1353.74  1360.81  1363.89  1377.39  1397.17
                             1401.11  1402.73  1454.41  1476.68  1522.21
                             1529.57  1539.72  1542.93  1557.84  1629.95
                             1669.17  1779.72  1785.82  1789.18  1813.57
                             1869.23  1885.83  1958.51  2011.86  2045.83
                             2050.61  2051.68  2053.36  2094.73  2097.16
                             2142.50  2171.87  2175.09  2181.66  2182.65
                             2182.78  2187.82  2204.83  2206.60  2207.29
                             2212.35  2227.52  2231.01  2672.36  4369.05
                             4369.12  4374.65  4375.06  4391.69  4392.14
                             4457.32  4462.41  4463.22  4469.55  4470.09
                             4474.17  4477.19  4478.87  4479.96  4482.42
                             4483.70  4487.53  4491.42  4499.52  4502.77
                             4594.75

 Zero-point correction=                           0.312661 (Hartree/Particle)
 Thermal correction to Energy=                    0.327603
 Thermal correction to Enthalpy=                  0.328548
 Thermal correction to Gibbs Free Energy=         0.271581
 Sum of electronic and zero-point Energies=           -470.225204
 Sum of electronic and thermal Energies=              -470.210262
 Sum of electronic and thermal Enthalpies=            -470.209318
 Sum of electronic and thermal Free Energies=         -470.266284

                     E (Thermal)             CV                S
                      KCal/Mol        Cal/Mol-Kelvin    Cal/Mol-Kelvin
 Total                  205.574             57.483            119.896
 Electronic               0.000              0.000              0.000
 Translational            0.889              2.981             41.232
 Rotational               0.889              2.981             31.201
 Vibrational            203.797             51.521             47.463
 Vibration     1          0.594              1.983              5.763
 Vibration     2          0.595              1.979              5.028
 Vibration     3          0.597              1.973              4.412
 Vibration     4          0.609              1.932              3.084
 Vibration     5          0.624              1.885              2.490
 Vibration     6          0.648              1.807              1.941
 Vibration     7          0.654              1.788              1.844
 Vibration     8          0.661              1.767              1.749
 Vibration     9          0.670              1.741              1.645
 Vibration    10          0.678              1.717              1.555
 Vibration    11          0.681              1.709              1.527
 Vibration    12          0.688              1.687              1.458
 Vibration    13          0.691              1.679              1.434
 Vibration    14          0.694              1.668              1.401
 Vibration    15          0.708              1.630              1.296
 Vibration    16          0.721              1.591              1.202
 Vibration    17          0.737              1.547              1.107
 Vibration    18          0.752              1.508              1.029
 Vibration    19          0.765              1.472              0.966
 Vibration    20          0.767              1.467              0.957
 Vibration    21          0.820              1.333              0.758
 Vibration    22          0.832              1.304              0.722
 Vibration    23          0.871              1.215              0.620
 Vibration    24          0.977              0.996              0.422

                           ! Non-Optimized Parameters !
 Normal termination of Gaussian 16 at Wed Dec  9 18:08:43 2020.

 ----------------------------------------------------------------------
 # B3LYP/6-311++G(d,p) empiricaldispersion=gd3bj scf=xqc pop=npa geom=c
 heck
 ----------------------------------------------------------------------

 --------------------------------------
 CID_54273690_JID_2891_Energie_neutraal
 --------------------------------------
 Structure from the checkpoint file:  "JID_2891.chk"
 Charge =  0 Multiplicity = 1

 SCF Done:  E(RB3LYP) =  -470.666480888     A.U. after   13 cycles
 Normal termination of Gaussian 16 at Wed Dec  9 18:12:23 2020.

 ----------------------------------------------------------------------
 # B3LYP/6-311++G(d,p) empiricaldispersion=gd3bj scf=xqc pop=npa geom=c
 heck
 ----------------------------------------------------------------------

 ------------------------------------
 CID_54273690_JID_2891_Energie_kation
 ------------------------------------
 Structure from the checkpoint file:  "JID_2891.chk"
 Charge =  1 Multiplicity = 2

 SCF Done:  E(UB3LYP) =  -470.350070120     A.U. after   20 cycles
 Normal termination of Gaussian 16 at Wed Dec  9 18:19:07 2020.
 Gaussian 16:  ES64L-G16RevA.03 25-Dec-2016

 ----------------------------------------------------------------------
 # B3LYP/6-311++G(d,p) empiricaldispersion=gd3bj scf=xqc pop=npa geom=c
 heck
 ----------------------------------------------------------------------

 -----------------------------------
 CID_54273690_JID_2891_Energie_anion
 -----------------------------------
 Structure from the checkpoint file:  "JID_2891.chk"
 Charge = -1 Multiplicity = 2

                         Standard orientation:
 ---------------------------------------------------------------------
 Center     Atomic      Atomic             Coordinates (Angstroms)
 Number     Number       Type             X           Y           Z
 ---------------------------------------------------------------------
      1          6           0       -2.660843    1.251388    0.643424
      2          6           0       -2.521683   -0.139771    0.010772
      3          6           0       -2.857141   -1.218646    1.062049
      4          6           0       -3.502403   -0.267877   -1.173469
      5          6           0       -1.117540   -0.397672   -0.500513
      6          6           0       -0.073656    0.414903   -0.439278
      7          6           0        0.521690    1.689924   -0.003586
      8          6           0        1.357973    0.604724   -0.700880
      9          6           0        2.447930   -0.207071    0.012896
     10          6           0        2.606252   -1.539422   -0.741478
     11          6           0        3.764910    0.585030   -0.041797
     12          6           0        2.086654   -0.500408    1.477392
     13          1           0       -3.687125    1.405000    0.996808
     14          1           0       -2.427692    2.040353   -0.078677
     15          1           0       -1.986001    1.367780    1.497259
     16          1           0       -3.886797   -1.102619    1.422071
     17          1           0       -2.759476   -2.226058    0.640144
     18          1           0       -2.182643   -1.146596    1.922563
     19          1           0       -3.297419    0.493907   -1.933754
     20          1           0       -3.419684   -1.251586   -1.650919
     21          1           0       -4.538114   -0.144343   -0.834065
     22          1           0       -0.976240   -1.375577   -0.967011
     23          1           0        0.302461    2.598002   -0.563600
     24          1           0        0.670378    1.861140    1.060891
     25          1           0        1.629423    0.840049   -1.732924
     26          1           0        2.847854   -1.369337   -1.797600
     27          1           0        3.410225   -2.144606   -0.305377
     28          1           0        1.679221   -2.122214   -0.697416
     29          1           0        3.661977    1.548183    0.471052
     30          1           0        4.578582    0.028595    0.438930
     31          1           0        4.061802    0.785871   -1.078332
     32          1           0        2.045046    0.416750    2.075046
     33          1           0        1.116708   -1.002502    1.553572
     34          1           0        2.844657   -1.150804    1.928154
 ---------------------------------------------------------------------

 SCF Done:  E(UB3LYP) =  -470.650485605     A.U. after   31 cycles

 The electronic state is 2-A.
 Alpha  occ. eigenvalues --  -10.08608 -10.08562 -10.07647 -10.07298 -10.07214
 Alpha  occ. eigenvalues --  -10.06622 -10.05730 -10.05722 -10.05649 -10.05614
 Alpha  occ. eigenvalues --  -10.05412 -10.05325  -0.77225  -0.72362  -0.69897
 Alpha  occ. eigenvalues --   -0.60574  -0.58543  -0.58513  -0.58447  -0.58439
 Alpha  occ. eigenvalues --   -0.51658  -0.47054  -0.43978  -0.40893  -0.37931
 Alpha  occ. eigenvalues --   -0.37538  -0.35759  -0.33859  -0.33707  -0.33118
 Alpha  occ. eigenvalues --   -0.31971  -0.30030  -0.29349  -0.29074  -0.28252
 Alpha  occ. eigenvalues --   -0.27794  -0.26495  -0.26419  -0.25378  -0.24242
 Alpha  occ. eigenvalues --   -0.23581  -0.23427  -0.22877  -0.22646  -0.18921
 Alpha  occ. eigenvalues --   -0.17520  -0.14513   0.04497
 Alpha virt. eigenvalues --    0.06469   0.07248   0.07640   0.08538   0.09010
 Alpha virt. eigenvalues --    0.09065   0.09696   0.10010   0.10665   0.10999
 Alpha virt. eigenvalues --    0.11403   0.11524   0.12042   0.12323   0.13291

  Beta  occ. eigenvalues --  -10.08607 -10.08561 -10.07636 -10.07297 -10.07191
  Beta  occ. eigenvalues --  -10.06608 -10.05703 -10.05693 -10.05621 -10.05591
  Beta  occ. eigenvalues --  -10.05384 -10.05301  -0.77212  -0.72346  -0.69878
  Beta  occ. eigenvalues --   -0.60547  -0.58493  -0.58462  -0.58394  -0.58390
  Beta  occ. eigenvalues --   -0.51605  -0.47008  -0.43923  -0.40845  -0.37896
  Beta  occ. eigenvalues --   -0.37508  -0.35727  -0.33822  -0.33671  -0.33090
  Beta  occ. eigenvalues --   -0.31944  -0.29999  -0.29320  -0.29044  -0.28223
  Beta  occ. eigenvalues --   -0.27762  -0.26466  -0.26391  -0.25351  -0.24213
  Beta  occ. eigenvalues --   -0.23550  -0.23397  -0.22849  -0.22617  -0.18890
  Beta  occ. eigenvalues --   -0.17503  -0.14494
  Beta virt. eigenvalues --    0.06492   0.07244   0.07813   0.08205   0.09091
  Beta virt. eigenvalues --    0.09445   0.09455   0.10004   0.10473   0.10994
  Beta virt. eigenvalues --    0.11258   0.11727   0.11891   0.12293   0.12639

 Mulliken charges and spin densities:
               1          2
     1  C    0.101548  -0.666124
     2  C   -1.625939   2.386860
     3  C    0.349973  -0.996594
     4  C    0.601841  -1.253540
     5  C   -0.181108  -0.303367
     6  C    0.862695  -0.271200
     7  C    0.534923  -1.375835
     8  C    0.427883  -0.576756
     9  C   -1.399689   1.935754
    10  C    0.405193  -0.982437
    11  C    0.518593  -1.108777
    12  C    0.374219  -1.029097
    13  H   -0.221527   0.373448
    14  H    0.032762   0.107243
    15  H   -0.057423   0.184816
    16  H   -0.186925   0.329054
    17  H   -0.178687   0.320220
    18  H    0.014847   0.116843
    19  H   -0.079746   0.214725
    20  H   -0.234763   0.368586
    21  H   -0.147524   0.294369
    22  H    0.184232   0.008043
    23  H   -0.234724   0.415736
    24  H    0.206308  -0.057072
    25  H   -0.061493   0.290351
    26  H   -0.193027   0.327121
    27  H   -0.126237   0.261123
    28  H   -0.083071   0.225053
    29  H   -0.072404   0.217097
    30  H   -0.128350   0.272557
    31  H   -0.203596   0.334666
    32  H   -0.266201   0.399102
    33  H    0.013798   0.144765
    34  H    0.053619   0.093263
 Sum of Mulliken charges =  -1.00000   1.00000

 Dipole moment (field-independent basis, Debye):
    X=              0.5169    Y=              0.3012    Z=              0.4438  Tot=              0.7449
 Quadrupole moment (field-independent basis, Debye-Ang):
   XX=           -159.3774   YY=           -118.2948   ZZ=           -116.9698
   XY=             -1.6479   XZ=              0.9440   YZ=              0.4146

 Summary of Natural Population Analysis:

                                       Natural Population
                Natural  -----------------------------------------------
    Atom  No    Charge         Core      Valence    Rydberg      Total
 -----------------------------------------------------------------------
      C    1   -0.28218      0.99963     2.27647    0.00608     3.28218
      C    2   -0.06358      0.99958     2.05085    0.01316     3.06358
      C    3   -0.27775      0.99963     2.27225    0.00588     3.27775
      C    4   -0.27785      0.99963     2.27228    0.00594     3.27785
      C    5   -0.08395      0.99942     2.07404    0.01049     3.08395
      C    6   -0.01083      0.99949     1.99809    0.01325     3.01083
      C    7   -0.20410      0.99959     2.19695    0.00756     3.20410
      C    8   -0.11353      0.99953     2.10108    0.01293     3.11353
      C    9   -0.04781      0.99957     2.03616    0.01207     3.04781
      C   10   -0.28133      0.99962     2.27465    0.00706     3.28133
      C   11   -0.28207      0.99962     2.27539    0.00705     3.28207
      C   12   -0.28789      0.99963     2.28102    0.00724     3.28789
      H   13    0.09807      0.00000     0.40085    0.00108     0.40193
      H   14    0.10199      0.00000     0.39682    0.00119     0.39801
      H   15    0.10172      0.00000     0.39708    0.00120     0.39828
      H   16    0.09777      0.00000     0.40106    0.00117     0.40223
      H   17    0.09926      0.00000     0.39950    0.00124     0.40074
      H   18    0.10084      0.00000     0.39789    0.00126     0.39916
      H   19    0.10087      0.00000     0.39793    0.00120     0.39913
      H   20    0.09906      0.00000     0.39966    0.00128     0.40094
      H   21    0.09791      0.00000     0.40085    0.00124     0.40209
      H   22    0.09756      0.00000     0.40080    0.00164     0.40244
      H   23    0.10547      0.00000     0.39344    0.00109     0.39453
      H   24    0.10480      0.00000     0.39384    0.00136     0.39520
      H   25    0.10665      0.00000     0.39189    0.00145     0.39335
      H   26    0.09900      0.00000     0.39986    0.00114     0.40100
      H   27    0.09735      0.00000     0.40179    0.00086     0.40265
      H   28    0.10187      0.00000     0.39690    0.00123     0.39813
      H   29    0.10081      0.00000     0.39809    0.00110     0.39919
      H   30    0.09798      0.00000     0.40108    0.00094     0.40202
      H   31    0.09920      0.00000     0.39967    0.00113     0.40080
      H   32    0.09909      0.00000     0.39974    0.00117     0.40091
      H   33    0.10574      0.00000     0.39304    0.00122     0.39426
      H   34    0.09986      0.00000     0.39925    0.00089     0.40014
 =======================================================================
   * Total *    0.00000     11.99493    34.87026    0.13481    47.00000

 Normal termination of Gaussian 16 at Wed Dec  9 18:29:31 2020.
