 Gaussian 16, Revision A.03,

 -----------------------------------------------------------
 # opt freq B3LYP/6-31G(d) empiricaldispersion=gd3bj scf=xqc
 -----------------------------------------------------------

 ------------------------------
 CID_63218499_JID_6455_neutraal
 ------------------------------
 Symbolic Z-matrix:
 Charge =  0 Multiplicity = 1

 SCF Done:  E(RB3LYP) =  -659.922131453     A.U. after   13 cycles
 SCF Done:  E(RB3LYP) =  -659.924706191     A.U. after   11 cycles
 SCF Done:  E(RB3LYP) =  -659.922445085     A.U. after   11 cycles
 SCF Done:  E(RB3LYP) =  -659.924815927     A.U. after   11 cycles
 SCF Done:  E(RB3LYP) =  -659.926360287     A.U. after    9 cycles
 SCF Done:  E(RB3LYP) =  -659.927070126     A.U. after   10 cycles
 SCF Done:  E(RB3LYP) =  -659.927089568     A.U. after   10 cycles
 SCF Done:  E(RB3LYP) =  -659.927216032     A.U. after   10 cycles
 SCF Done:  E(RB3LYP) =  -659.927238539     A.U. after    9 cycles
 SCF Done:  E(RB3LYP) =  -659.927247883     A.U. after    9 cycles
 SCF Done:  E(RB3LYP) =  -659.927256860     A.U. after    8 cycles
 SCF Done:  E(RB3LYP) =  -659.927259025     A.U. after    8 cycles
 SCF Done:  E(RB3LYP) =  -659.927260422     A.U. after    7 cycles
 SCF Done:  E(RB3LYP) =  -659.927261073     A.U. after    7 cycles
 SCF Done:  E(RB3LYP) =  -659.927261378     A.U. after    7 cycles
 SCF Done:  E(RB3LYP) =  -659.927261447     A.U. after    6 cycles
 Optimization completed.
    -- Stationary point found.
 Normal termination of Gaussian 16 at Thu Dec 10 23:08:36 2020.

 --------------------------------------------------------------------
 #N Geom=AllCheck Guess=TCheck SCRF=Check GenChk RB3LYP/6-31G(d) Freq
 --------------------------------------------------------------------

 Structure from the checkpoint file:  "JID_6455.chk"
 ------------------------------
 CID_63218499_JID_6455_neutraal
 ------------------------------
 Charge =  0 Multiplicity = 1

 SCF Done:  E(RB3LYP) =  -659.927261447     A.U. after    1 cycles

  Exact polarizability: 172.403  -2.557 154.608   0.956  -1.013 139.399
 Approx polarizability: 221.946  -0.377 216.491  -0.626  -1.424 208.409

                      1                      2                      3
                      A                      A                      A
 Frequencies --     45.1389                67.8222                72.0772
 Red. masses --      3.0568                 2.7842                 2.5476
 Frc consts  --      0.0037                 0.0075                 0.0078
 IR Inten    --      0.5124                 0.1974                 0.3478

                      4                      5                      6
                      A                      A                      A
 Frequencies --    101.1759               115.0159               135.2533
 Red. masses --      2.1134                 2.4354                 2.5257
 Frc consts  --      0.0127                 0.0190                 0.0272
 IR Inten    --      0.7799                 0.5387                 0.2945

                      7                      8                      9
                      A                      A                      A
 Frequencies --    149.1840               164.2268               209.3156
 Red. masses --      2.7062                 2.8081                 2.0767
 Frc consts  --      0.0355                 0.0446                 0.0536
 IR Inten    --      0.8952                 0.2886                 0.1318

                     10                     11                     12
                      A                      A                      A
 Frequencies --    213.0756               231.3737               259.4580
 Red. masses --      1.4247                 1.1719                 2.3647
 Frc consts  --      0.0381                 0.0370                 0.0938
 IR Inten    --      1.0932                 0.0777                 1.0175

                     13                     14                     15
                      A                      A                      A
 Frequencies --    264.3872               277.9543               322.6989
 Red. masses --      1.2318                 1.8502                 1.9498
 Frc consts  --      0.0507                 0.0842                 0.1196
 IR Inten    --      0.0608                 1.3641                 1.3421

                     16                     17                     18
                      A                      A                      A
 Frequencies --    340.7670               355.0014               359.5978
 Red. masses --      2.1788                 2.3562                 2.3776
 Frc consts  --      0.1491                 0.1750                 0.1811
 IR Inten    --      0.1822                 0.5677                 0.0965

                     19                     20                     21
                      A                      A                      A
 Frequencies --    371.2374               425.9762               428.2410
 Red. masses --      2.6595                 2.7550                 2.3687
 Frc consts  --      0.2159                 0.2945                 0.2559
 IR Inten    --      0.5275                 3.4335                 0.5266

                     22                     23                     24
                      A                      A                      A
 Frequencies --    454.6922               484.7478               509.6200
 Red. masses --      2.1284                 2.7514                 2.5852
 Frc consts  --      0.2593                 0.3809                 0.3956
 IR Inten    --      1.2728                 1.0929                 6.1303

                     25                     26                     27
                      A                      A                      A
 Frequencies --    537.3858               567.0107               631.8574
 Red. masses --      2.3002                 3.1123                 3.4065
 Frc consts  --      0.3914                 0.5895                 0.8013
 IR Inten    --      1.3230                 2.2433                 2.2071

                     28                     29                     30
                      A                      A                      A
 Frequencies --    708.4788               735.1808               757.2024
 Red. masses --      3.0920                 2.1751                 1.8167
 Frc consts  --      0.9144                 0.6927                 0.6137
 IR Inten    --      6.0524                13.8823                 9.2437

                     31                     32                     33
                      A                      A                      A
 Frequencies --    784.6961               803.6740               817.0885
 Red. masses --      1.9854                 1.9293                 1.6032
 Frc consts  --      0.7203                 0.7342                 0.6306
 IR Inten    --     45.1530                 0.9897                 3.9478

                     34                     35                     36
                      A                      A                      A
 Frequencies --    861.6741               867.5120               892.4269
 Red. masses --      2.4382                 1.8530                 1.7594
 Frc consts  --      1.0666                 0.8216                 0.8256
 IR Inten    --      3.7302                 1.2201                22.1739

                     37                     38                     39
                      A                      A                      A
 Frequencies --    911.6518               922.0951               935.4017
 Red. masses --      1.9168                 2.0594                 1.7504
 Frc consts  --      0.9386                 1.0317                 0.9024
 IR Inten    --     10.5230                 1.1090                 1.0965

                     40                     41                     42
                      A                      A                      A
 Frequencies --    945.2763               954.8033               965.2397
 Red. masses --      1.4318                 2.1807                 1.6799
 Frc consts  --      0.7538                 1.1713                 0.9222
 IR Inten    --      1.5253                 0.5640                 5.5967

                     43                     44                     45
                      A                      A                      A
 Frequencies --    982.1352               999.6405              1018.4902
 Red. masses --      1.8341                 2.3390                 1.3762
 Frc consts  --      1.0424                 1.3771                 0.8411
 IR Inten    --      3.5458                 1.4639                 1.4683

                     46                     47                     48
                      A                      A                      A
 Frequencies --   1049.9708              1051.7096              1061.4323
 Red. masses --      2.2255                 2.0369                 1.8658
 Frc consts  --      1.4456                 1.3274                 1.2385
 IR Inten    --      5.9509                 1.8508                 1.7543

                     49                     50                     51
                      A                      A                      A
 Frequencies --   1079.8652              1092.1366              1106.7640
 Red. masses --      1.7606                 1.9181                 1.8723
 Frc consts  --      1.2096                 1.3479                 1.3512
 IR Inten    --     11.4797                 0.5520                 4.4333

                     52                     53                     54
                      A                      A                      A
 Frequencies --   1112.3991              1122.4499              1145.9311
 Red. masses --      1.8506                 1.3404                 2.1108
 Frc consts  --      1.3493                 0.9950                 1.6331
 IR Inten    --      6.4625                 0.1107                24.8190

                     55                     56                     57
                      A                      A                      A
 Frequencies --   1170.3634              1173.7685              1183.3749
 Red. masses --      1.7804                 1.8918                 1.8924
 Frc consts  --      1.4368                 1.5356                 1.5614
 IR Inten    --     11.4198                15.0504                31.6844

                     58                     59                     60
                      A                      A                      A
 Frequencies --   1189.4771              1217.7546              1224.3732
 Red. masses --      2.0855                 2.1873                 1.9397
 Frc consts  --      1.7385                 1.9111                 1.7132
 IR Inten    --     16.6009                37.2474                 3.2286

                     61                     62                     63
                      A                      A                      A
 Frequencies --   1248.4047              1254.2895              1269.8869
 Red. masses --      1.5929                 1.6274                 1.7349
 Frc consts  --      1.4627                 1.5085                 1.6484
 IR Inten    --     13.9160                 2.1583                16.6862

                     64                     65                     66
                      A                      A                      A
 Frequencies --   1281.1059              1289.3398              1291.8384
 Red. masses --      1.3063                 1.7169                 1.3075
 Frc consts  --      1.2631                 1.6816                 1.2856
 IR Inten    --      3.5278                 9.6740                 4.6985

                     67                     68                     69
                      A                      A                      A
 Frequencies --   1305.2253              1320.4969              1344.2804
 Red. masses --      1.3069                 1.2858                 1.3637
 Frc consts  --      1.3118                 1.3210                 1.4519
 IR Inten    --      0.9148                11.7325                 0.7090

                     70                     71                     72
                      A                      A                      A
 Frequencies --   1356.5878              1361.5991              1366.8791
 Red. masses --      1.3778                 1.3471                 1.4973
 Frc consts  --      1.4939                 1.4715                 1.6483
 IR Inten    --      3.2548                 0.7081                 9.6368

                     73                     74                     75
                      A                      A                      A
 Frequencies --   1379.2234              1387.2633              1397.0991
 Red. masses --      1.4431                 1.4222                 1.4512
 Frc consts  --      1.6174                 1.6126                 1.6689
 IR Inten    --      5.2531                 3.5293                 4.5778

                     76                     77                     78
                      A                      A                      A
 Frequencies --   1400.9597              1404.3047              1416.0773
 Red. masses --      1.3654                 1.4173                 1.3825
 Frc consts  --      1.5789                 1.6468                 1.6334
 IR Inten    --      3.2630                 3.7566                 1.7473

                     79                     80                     81
                      A                      A                      A
 Frequencies --   1420.1058              1426.4866              1440.2655
 Red. masses --      1.3894                 1.2748                 1.2922
 Frc consts  --      1.6509                 1.5283                 1.5793
 IR Inten    --      6.4111                 7.8966                 7.7807

                     82                     83                     84
                      A                      A                      A
 Frequencies --   1449.1796              1482.3512              1506.1987
 Red. masses --      1.2442                 1.1622                 1.0936
 Frc consts  --      1.5395                 1.5047                 1.4618
 IR Inten    --     16.3750                 2.3486                12.5916

                     85                     86                     87
                      A                      A                      A
 Frequencies --   1509.0596              1511.8853              1513.7884
 Red. masses --      1.0904                 1.0875                 1.1125
 Frc consts  --      1.4630                 1.4646                 1.5020
 IR Inten    --      1.1540                 5.6556                 7.3130

                     88                     89                     90
                      A                      A                      A
 Frequencies --   1516.2179              1518.8754              1520.1288
 Red. masses --      1.0836                 1.0865                 1.1019
 Frc consts  --      1.4677                 1.4768                 1.5002
 IR Inten    --      2.9202                 4.1433                 4.1221

                     91                     92                     93
                      A                      A                      A
 Frequencies --   1521.5976              1529.3580              1532.8458
 Red. masses --      1.0715                 1.0720                 1.0985
 Frc consts  --      1.4616                 1.4773                 1.5208
 IR Inten    --      6.1679                 5.3419                 5.5074

                     94                     95                     96
                      A                      A                      A
 Frequencies --   1534.8901              1539.4390              1542.0093
 Red. masses --      1.0736                 1.0653                 1.0777
 Frc consts  --      1.4902                 1.4875                 1.5098
 IR Inten    --      6.6193                 7.9754                 2.3207

                     97                     98                     99
                      A                      A                      A
 Frequencies --   1550.9101              1570.3800              2937.0359
 Red. masses --      1.0503                 1.0890                 1.0761
 Frc consts  --      1.4885                 1.5823                 5.4694
 IR Inten    --     12.2585                 1.4000                63.4034

                    100                    101                    102
                      A                      A                      A
 Frequencies --   2969.2295              2993.9933              2998.5016
 Red. masses --      1.0587                 1.0715                 1.0809
 Frc consts  --      5.4991                 5.6592                 5.7258
 IR Inten    --     75.4009                19.6469                27.8276

                    103                    104                    105
                      A                      A                      A
 Frequencies --   3012.1356              3016.1778              3028.8126
 Red. masses --      1.0721                 1.0666                 1.0784
 Frc consts  --      5.7311                 5.7170                 5.8287
 IR Inten    --     13.3545                41.6667                81.6826

                    106                    107                    108
                      A                      A                      A
 Frequencies --   3044.6523              3050.5657              3053.4466
 Red. masses --      1.0689                 1.0358                 1.0674
 Frc consts  --      5.8381                 5.6792                 5.8636
 IR Inten    --     44.0669                23.8596                36.4251

                    109                    110                    111
                      A                      A                      A
 Frequencies --   3055.3357              3064.9854              3067.0267
 Red. masses --      1.0391                 1.0949                 1.0600
 Frc consts  --      5.7153                 6.0603                 5.8746
 IR Inten    --     10.9948                47.2022                18.4501

                    112                    113                    114
                      A                      A                      A
 Frequencies --   3067.6999              3070.1033              3075.0361
 Red. masses --      1.0903                 1.0758                 1.0778
 Frc consts  --      6.0455                 5.9741                 6.0044
 IR Inten    --     32.4358                79.4331                50.5070

                    115                    116                    117
                      A                      A                      A
 Frequencies --   3077.4179              3080.4602              3104.6927
 Red. masses --      1.0896                 1.0716                 1.1024
 Frc consts  --      6.0797                 5.9912                 6.2607
 IR Inten    --     82.9670                23.5511                 7.1452

                    118                    119                    120
                      A                      A                      A
 Frequencies --   3106.0460              3111.6265              3112.3676
 Red. masses --      1.0975                 1.0974                 1.1009
 Frc consts  --      6.2386                 6.2603                 6.2831
 IR Inten    --      5.7286                59.2797                 0.6808

                    121                    122                    123
                      A                      A                      A
 Frequencies --   3113.4423              3119.2252              3121.3085
 Red. masses --      1.1022                 1.1014                 1.1035
 Frc consts  --      6.2950                 6.3139                 6.3343
 IR Inten    --     55.2692                53.0148                37.5858

                    124                    125                    126
                      A                      A                      A
 Frequencies --   3124.7940              3141.2267              3513.1638
 Red. masses --      1.1043                 1.1010                 1.0730
 Frc consts  --      6.3528                 6.4008                 7.8026
 IR Inten    --     52.4818                28.7438                 0.3576

 - Thermochemistry -
 -------------------
 Temperature   298.150 Kelvin.  Pressure   1.00000 Atm.
 Atom     1 has atomic number  6 and mass  12.00000

 Molecular mass:   224.22525 amu.
 Principal axes and moments of inertia in atomic units:
                           1         2         3
     Eigenvalues --  2388.581924744.416755469.29433
           X            0.99994  -0.00702   0.00852
           Y            0.00709   0.99995  -0.00762
           Z           -0.00846   0.00768   0.99993
 This molecule is an asymmetric top.
 Rotational symmetry number  1.
 Warning -- assumption of classical behavior for rotation
           may cause significant error
 Rotational temperatures (Kelvin)      0.03626     0.01826     0.01584
 Rotational constants (GHZ):           0.75557     0.38039     0.32998
 Zero-point vibrational energy    1084893.8 (Joules/Mol)
                                  259.29583 (Kcal/Mol)
 Warning -- explicit consideration of  26 degrees of freedom as
           vibrations may cause significant error
 Vibrational temperatures:     64.94    97.58   103.70   145.57   165.48
          (Kelvin)            194.60   214.64   236.29   301.16   306.57
                              332.90   373.30   380.39   399.91   464.29
                              490.29   510.77   517.38   534.13   612.88
                              616.14   654.20   697.44   733.23   773.18
                              815.80   909.10  1019.34  1057.76  1089.45
                             1129.00  1156.31  1175.61  1239.76  1248.16
                             1284.00  1311.66  1326.69  1345.83  1360.04
                             1373.75  1388.76  1413.07  1438.26  1465.38
                             1510.67  1513.18  1527.16  1553.69  1571.34
                             1592.39  1600.49  1614.96  1648.74  1683.89
                             1688.79  1702.61  1711.39  1752.08  1761.60
                             1796.18  1804.64  1827.08  1843.23  1855.07
                             1858.67  1877.93  1899.90  1934.12  1951.83
                             1959.04  1966.63  1984.39  1995.96  2010.11
                             2015.67  2020.48  2037.42  2043.22  2052.40
                             2072.22  2085.05  2132.77  2167.08  2171.20
                             2175.27  2178.00  2181.50  2185.32  2187.13
                             2189.24  2200.41  2205.42  2208.36  2214.91
                             2218.61  2231.41  2259.43  4225.74  4272.06
                             4307.69  4314.18  4333.79  4339.61  4357.79
                             4380.58  4389.08  4393.23  4395.95  4409.83
                             4412.77  4413.74  4417.19  4424.29  4427.72
                             4432.10  4466.96  4468.91  4476.94  4478.00
                             4479.55  4487.87  4490.87  4495.88  4519.52
                             5054.66

 Zero-point correction=                           0.413214 (Hartree/Particle)
 Thermal correction to Energy=                    0.430165
 Thermal correction to Enthalpy=                  0.431109
 Thermal correction to Gibbs Free Energy=         0.369831
 Sum of electronic and zero-point Energies=           -659.514047
 Sum of electronic and thermal Energies=              -659.497097
 Sum of electronic and thermal Enthalpies=            -659.496153
 Sum of electronic and thermal Free Energies=         -659.557430

                     E (Thermal)             CV                S
                      KCal/Mol        Cal/Mol-Kelvin    Cal/Mol-Kelvin
 Total                  269.932             67.315            128.970
 Electronic               0.000              0.000              0.000
 Translational            0.889              2.981             42.125
 Rotational               0.889              2.981             32.494
 Vibrational            268.155             61.353             54.351
 Vibration     1          0.595              1.979              5.020
 Vibration     2          0.598              1.970              4.216
 Vibration     3          0.598              1.967              4.096
 Vibration     4          0.604              1.948              3.432
 Vibration     5          0.608              1.937              3.182
 Vibration     6          0.613              1.918              2.870
 Vibration     7          0.618              1.904              2.683
 Vibration     8          0.623              1.886              2.501
 Vibration     9          0.642              1.827              2.050
 Vibration    10          0.644              1.821              2.017
 Vibration    11          0.653              1.793              1.868
 Vibration    12          0.668              1.747              1.665
 Vibration    13          0.671              1.738              1.633
 Vibration    14          0.679              1.714              1.546
 Vibration    15          0.708              1.630              1.296
 Vibration    16          0.720              1.594              1.209
 Vibration    17          0.731              1.565              1.144
 Vibration    18          0.734              1.556              1.124
 Vibration    19          0.743              1.531              1.075
 Vibration    20          0.788              1.414              0.872
 Vibration    21          0.790              1.409              0.864
 Vibration    22          0.813              1.351              0.782
 Vibration    23          0.841              1.284              0.697
 Vibration    24          0.865              1.229              0.635
 Vibration    25          0.892              1.167              0.571
 Vibration    26          0.923              1.103              0.510

 Optimization completed.
    -- Stationary point found.
 Normal termination of Gaussian 16 at Thu Dec 10 23:28:26 2020.

 ----------------------------------------------------------------------
 # B3LYP/6-311++G(d,p) empiricaldispersion=gd3bj scf=xqc pop=npa geom=c
 heck
 ----------------------------------------------------------------------

 --------------------------------------
 CID_63218499_JID_6455_Energie_neutraal
 --------------------------------------
 Structure from the checkpoint file:  "JID_6455.chk"
 Charge =  0 Multiplicity = 1

 SCF Done:  E(RB3LYP) =  -660.107704306     A.U. after   14 cycles
 Normal termination of Gaussian 16 at Thu Dec 10 23:37:34 2020.

 ----------------------------------------------------------------------
 # B3LYP/6-311++G(d,p) empiricaldispersion=gd3bj scf=xqc pop=npa geom=c
 heck
 ----------------------------------------------------------------------

 ------------------------------------
 CID_63218499_JID_6455_Energie_kation
 ------------------------------------
 Structure from the checkpoint file:  "JID_6455.chk"
 Charge =  1 Multiplicity = 2

 SCF Done:  E(UB3LYP) =  -659.839814061     A.U. after   22 cycles
 Normal termination of Gaussian 16 at Thu Dec 10 23:56:43 2020.
 Gaussian 16:  ES64L-G16RevA.03 25-Dec-2016

 ----------------------------------------------------------------------
 # B3LYP/6-311++G(d,p) empiricaldispersion=gd3bj scf=xqc pop=npa geom=c
 heck
 ----------------------------------------------------------------------

 -----------------------------------
 CID_63218499_JID_6455_Energie_anion
 -----------------------------------
 Structure from the checkpoint file:  "JID_6455.chk"
 Charge = -1 Multiplicity = 2

                         Standard orientation:
 ---------------------------------------------------------------------
 Center     Atomic      Atomic             Coordinates (Angstroms)
 Number     Number       Type             X           Y           Z
 ---------------------------------------------------------------------
      1          6           0       -3.195603   -0.745171   -1.266458
      2          6           0       -2.452028    0.087415   -0.198404
      3          6           0       -2.950564   -0.281729    1.211409
      4          6           0       -2.166931   -1.558998    1.580727
      5          6           0       -0.966502   -1.565487    0.607397
      6          7           0       -1.013662   -0.270505   -0.074912
      7          6           0       -0.194749   -0.181279   -1.286116
      8          6           0        1.155315    0.566031   -1.198865
      9          6           0        1.012553    2.062384   -0.848238
     10          6           0        0.884151    2.345327    0.654153
     11          6           0        2.060259    1.736040    1.421954
     12          6           0        2.134218    0.226388    1.166994
     13          6           0        2.262452   -0.089875   -0.337423
     14          7           0        2.384852   -1.513413   -0.669971
     15          6           0        3.637137   -2.133376   -0.254983
     16          6           0       -2.635082    1.577744   -0.488114
     17          1           0       -2.787538   -0.565825   -2.266856
     18          1           0       -4.258014   -0.478178   -1.289005
     19          1           0       -3.126004   -1.819391   -1.064451
     20          1           0       -2.697089    0.530516    1.900587
     21          1           0       -4.035956   -0.419950    1.241621
     22          1           0       -2.775512   -2.458420    1.446995
     23          1           0       -1.844232   -1.541840    2.625491
     24          1           0       -1.045826   -2.406487   -0.106633
     25          1           0       -0.014354   -1.691043    1.132645
     26          1           0       -0.003008   -1.186341   -1.694357
     27          1           0       -0.771933    0.344959   -2.054211
     28          1           0        1.529827    0.506780   -2.230816
     29          1           0        1.903719    2.588203   -1.221689
     30          1           0        0.157729    2.486069   -1.390388
     31          1           0       -0.044893    1.904055    1.028457
     32          1           0        0.832250    3.428547    0.824684
     33          1           0        1.965039    1.935125    2.496845
     34          1           0        2.999215    2.209198    1.096697
     35          1           0        1.227990   -0.239890    1.567829
     36          1           0        2.985211   -0.208071    1.705706
     37          1           0        3.205392    0.371190   -0.670523
     38          1           0        1.606443   -2.024251   -0.260301
     39          1           0        3.852348   -2.089539    0.827271
     40          1           0        3.632516   -3.187196   -0.553663
     41          1           0        4.468655   -1.644498   -0.776298
     42          1           0       -2.264953    1.848381   -1.482951
     43          1           0       -3.698937    1.838715   -0.453452
     44          1           0       -2.104166    2.184122    0.250762
 ---------------------------------------------------------------------

 SCF Done:  E(UB3LYP) =  -660.092302936     A.U. after   29 cycles

 The electronic state is 2-A.
 Alpha  occ. eigenvalues --  -14.19959 -14.19787 -10.10889 -10.09558 -10.09283
 Alpha  occ. eigenvalues --  -10.08983 -10.08926 -10.07015 -10.06944 -10.06652
 Alpha  occ. eigenvalues --  -10.06467 -10.06389 -10.06088 -10.05949 -10.05868
 Alpha  occ. eigenvalues --  -10.05851  -0.83521  -0.80822  -0.72550  -0.69454
 Alpha  occ. eigenvalues --   -0.67282  -0.64846  -0.63370  -0.59231  -0.57979
 Alpha  occ. eigenvalues --   -0.56657  -0.55797  -0.50646  -0.49636  -0.48483
 Alpha  occ. eigenvalues --   -0.44984  -0.43352  -0.40064  -0.38774  -0.37532
 Alpha  occ. eigenvalues --   -0.37034  -0.35837  -0.35467  -0.34719  -0.33940
 Alpha  occ. eigenvalues --   -0.32716  -0.32098  -0.31617  -0.30450  -0.30133
 Alpha  occ. eigenvalues --   -0.29367  -0.28802  -0.28212  -0.27825  -0.26605
 Alpha  occ. eigenvalues --   -0.26116  -0.25969  -0.25076  -0.24387  -0.23846
 Alpha  occ. eigenvalues --   -0.23186  -0.22939  -0.22237  -0.21420  -0.20708
 Alpha  occ. eigenvalues --   -0.20065  -0.12817  -0.11226   0.04295
 Alpha virt. eigenvalues --    0.06010   0.06561   0.06977   0.07885   0.08211
 Alpha virt. eigenvalues --    0.08619   0.08680   0.09449   0.10119   0.10327
 Alpha virt. eigenvalues --    0.10612   0.10918   0.11099   0.11721   0.12485

  Beta  occ. eigenvalues --  -14.19953 -14.19780 -10.10888 -10.09552 -10.09271
  Beta  occ. eigenvalues --  -10.08955 -10.08917 -10.06997 -10.06943 -10.06635
  Beta  occ. eigenvalues --  -10.06455 -10.06379 -10.06070 -10.05936 -10.05843
  Beta  occ. eigenvalues --  -10.05835  -0.83511  -0.80806  -0.72531  -0.69434
  Beta  occ. eigenvalues --   -0.67256  -0.64822  -0.63345  -0.59180  -0.57944
  Beta  occ. eigenvalues --   -0.56614  -0.55756  -0.50612  -0.49604  -0.48442
  Beta  occ. eigenvalues --   -0.44949  -0.43315  -0.40030  -0.38747  -0.37507
  Beta  occ. eigenvalues --   -0.37003  -0.35803  -0.35438  -0.34698  -0.33912
  Beta  occ. eigenvalues --   -0.32690  -0.32076  -0.31595  -0.30425  -0.30101
  Beta  occ. eigenvalues --   -0.29341  -0.28774  -0.28185  -0.27797  -0.26579
  Beta  occ. eigenvalues --   -0.26092  -0.25939  -0.25047  -0.24362  -0.23822
  Beta  occ. eigenvalues --   -0.23161  -0.22910  -0.22215  -0.21400  -0.20685
  Beta  occ. eigenvalues --   -0.20045  -0.12797  -0.11201
  Beta virt. eigenvalues --    0.06166   0.06839   0.07085   0.07430   0.08337
  Beta virt. eigenvalues --    0.08655   0.08964   0.09043   0.09715   0.10440
  Beta virt. eigenvalues --    0.10695   0.11016   0.11184   0.11380   0.11953

 Mulliken charges and spin densities:
               1          2
     1  C    1.146099  -1.778989
     2  C   -1.276515   1.181140
     3  C   -0.466271   0.267805
     4  C    0.728156  -1.366605
     5  C   -0.141702  -0.006730
     6  N    0.448355   0.004917
     7  C   -0.538289  -0.377753
     8  C    0.537841   0.584281
     9  C   -0.101280  -0.440697
    10  C   -0.039245  -0.003834
    11  C   -0.175851  -0.583864
    12  C    0.426476  -0.233000
    13  C   -1.227930  -0.087013
    14  N   -0.032516   0.087347
    15  C    0.632016  -0.931793
    16  C    0.009051  -0.387272
    17  H   -0.057970   0.198719
    18  H   -0.313979   0.475925
    19  H   -0.077057   0.245605
    20  H    0.023662   0.128872
    21  H   -0.229355   0.387671
    22  H   -0.073913   0.230095
    23  H   -0.138218   0.306264
    24  H   -0.124704   0.266497
    25  H    0.103035  -0.032245
    26  H    0.209759  -0.056118
    27  H    0.028232   0.109902
    28  H    0.000217   0.216924
    29  H   -0.136461   0.289731
    30  H    0.104413   0.015686
    31  H    0.562753  -0.481157
    32  H   -0.103991   0.283272
    33  H   -0.271216   0.447104
    34  H    0.038956   0.070112
    35  H    0.090617   0.024156
    36  H    0.009241   0.146164
    37  H    0.107582   0.051842
    38  H    0.190983   0.024828
    39  H   -0.193380   0.330123
    40  H   -0.174505   0.307351
    41  H   -0.169099   0.297201
    42  H   -0.038982   0.188748
    43  H   -0.107671   0.271113
    44  H   -0.187342   0.327677
 Sum of Mulliken charges =  -1.00000   1.00000

 Dipole moment (field-independent basis, Debye):
    X=              0.9586    Y=              1.3937    Z=             -0.2930  Tot=              1.7167
 Quadrupole moment (field-independent basis, Debye-Ang):
   XX=           -186.8812   YY=           -153.8385   ZZ=           -146.1056
   XY=              1.4198   XZ=             -3.3737   YZ=             -1.3934

 Summary of Natural Population Analysis:

                                       Natural Population
                Natural  -----------------------------------------------
    Atom  No    Charge         Core      Valence    Rydberg      Total
 -----------------------------------------------------------------------
      C    1   -0.29859      0.99961     2.29217    0.00681     3.29859
      C    2    0.07140      0.99957     1.91406    0.01497     2.92860
      C    3   -0.18741      0.99957     2.17801    0.00983     3.18741
      C    4   -0.19445      0.99963     2.18712    0.00770     3.19445
      C    5   -0.08185      0.99962     2.07163    0.01060     3.08185
      N    6   -0.30153      0.99968     2.78803    0.01382     3.80153
      C    7   -0.08506      0.99958     2.07318    0.01231     3.08506
      C    8   -0.10933      0.99956     2.09763    0.01214     3.10933
      C    9   -0.18790      0.99961     2.17922    0.00907     3.18790
      C   10   -0.19441      0.99962     2.18695    0.00784     3.19441
      C   11   -0.18612      0.99963     2.17857    0.00792     3.18612
      C   12   -0.20042      0.99960     2.19208    0.00874     3.20042
      C   13   -0.00279      0.99955     1.99081    0.01243     3.00279
      N   14   -0.34190      0.99974     2.83072    0.01144     3.84190
      C   15   -0.17704      0.99966     2.16927    0.00812     3.17704
      C   16   -0.28758      0.99960     2.28107    0.00691     3.28758
      H   17    0.10030      0.00000     0.39874    0.00096     0.39970
      H   18    0.10248      0.00000     0.39632    0.00119     0.39752
      H   19    0.10148      0.00000     0.39743    0.00109     0.39852
      H   20    0.09953      0.00000     0.39906    0.00141     0.40047
      H   21    0.10117      0.00000     0.39769    0.00114     0.39883
      H   22    0.09843      0.00000     0.40040    0.00117     0.40157
      H   23    0.09975      0.00000     0.39925    0.00101     0.40025
      H   24    0.08131      0.00000     0.41723    0.00146     0.41869
      H   25    0.09037      0.00000     0.40746    0.00217     0.40963
      H   26    0.09346      0.00000     0.40462    0.00192     0.40654
      H   27    0.09619      0.00000     0.40228    0.00153     0.40381
      H   28    0.09974      0.00000     0.39883    0.00142     0.40026
      H   29    0.09367      0.00000     0.40523    0.00110     0.40633
      H   30    0.09863      0.00000     0.40036    0.00101     0.40137
      H   31    0.10286      0.00000     0.39482    0.00232     0.39714
      H   32    0.09377      0.00000     0.40532    0.00091     0.40623
      H   33    0.09749      0.00000     0.40159    0.00092     0.40251
      H   34    0.08982      0.00000     0.40892    0.00126     0.41018
      H   35    0.09717      0.00000     0.40076    0.00207     0.40283
      H   36    0.09754      0.00000     0.40122    0.00124     0.40246
      H   37    0.08998      0.00000     0.40811    0.00191     0.41002
      H   38    0.17193      0.00000     0.32457    0.00351     0.32807
      H   39    0.07958      0.00000     0.41892    0.00150     0.42042
      H   40    0.09382      0.00000     0.40535    0.00083     0.40618
      H   41    0.09036      0.00000     0.40854    0.00110     0.40964
      H   42    0.09902      0.00000     0.39990    0.00108     0.40098
      H   43    0.10137      0.00000     0.39778    0.00085     0.39863
      H   44    0.10375      0.00000     0.39508    0.00117     0.39625
 =======================================================================
   * Total *    0.00000     15.99380    46.80631    0.19989    63.00000

 Normal termination of Gaussian 16 at Fri Dec 11 00:22:12 2020.
