 Gaussian 16, Revision A.03,

 -----------------------------------------------------------
 # opt freq B3LYP/6-31G(d) empiricaldispersion=gd3bj scf=xqc
 -----------------------------------------------------------

 -------------------------------
 CID_130672229_JID_4626_neutraal
 -------------------------------
 Symbolic Z-matrix:
 Charge =  0 Multiplicity = 1

 SCF Done:  E(RB3LYP) =  -561.613568696     A.U. after   13 cycles
 SCF Done:  E(RB3LYP) =  -561.617264948     A.U. after   12 cycles
 SCF Done:  E(RB3LYP) =  -561.617758512     A.U. after   11 cycles
 SCF Done:  E(RB3LYP) =  -561.617960684     A.U. after   11 cycles
 SCF Done:  E(RB3LYP) =  -561.617999891     A.U. after   10 cycles
 SCF Done:  E(RB3LYP) =  -561.618022030     A.U. after   10 cycles
 SCF Done:  E(RB3LYP) =  -561.618030485     A.U. after    9 cycles
 SCF Done:  E(RB3LYP) =  -561.618037292     A.U. after    9 cycles
 SCF Done:  E(RB3LYP) =  -561.618045067     A.U. after   10 cycles
 SCF Done:  E(RB3LYP) =  -561.618049632     A.U. after    9 cycles
 SCF Done:  E(RB3LYP) =  -561.618053685     A.U. after    9 cycles
 SCF Done:  E(RB3LYP) =  -561.618054677     A.U. after    9 cycles
 SCF Done:  E(RB3LYP) =  -561.618054997     A.U. after    7 cycles
 SCF Done:  E(RB3LYP) =  -561.618055040     A.U. after    7 cycles
 SCF Done:  E(RB3LYP) =  -561.618055068     A.U. after    6 cycles
 Optimization completed on the basis of negligible forces.
    -- Stationary point found.
 Normal termination of Gaussian 16 at Thu Dec 10 10:23:25 2020.

 --------------------------------------------------------------------
 #N Geom=AllCheck Guess=TCheck SCRF=Check GenChk RB3LYP/6-31G(d) Freq
 --------------------------------------------------------------------

 Structure from the checkpoint file:  "JID_4626.chk"
 -------------------------------
 CID_130672229_JID_4626_neutraal
 -------------------------------
 Charge =  0 Multiplicity = 1

 SCF Done:  E(RB3LYP) =  -561.618055068     A.U. after    1 cycles

  Exact polarizability: 181.542  -0.476 146.956 -18.456  -0.148  96.937
 Approx polarizability: 243.221  -2.839 229.828 -37.813   0.927 146.702

                      1                      2                      3
                      A                      A                      A
 Frequencies --     21.0948                26.7593                39.9766
 Red. masses --      1.5614                 1.5570                 3.3045
 Frc consts  --      0.0004                 0.0007                 0.0031
 IR Inten    --      0.1941                 0.2144                 0.1764

                      4                      5                      6
                      A                      A                      A
 Frequencies --     42.8317                54.0053               170.7060
 Red. masses --      1.0445                 3.3088                 3.1123
 Frc consts  --      0.0011                 0.0057                 0.0534
 IR Inten    --      0.1164                 0.1658                 3.5156

                      7                      8                      9
                      A                      A                      A
 Frequencies --    177.8174               204.7776               225.3582
 Red. masses --      3.1683                 3.2585                 3.0257
 Frc consts  --      0.0590                 0.0805                 0.0905
 IR Inten    --      0.4732                 0.6647                 0.5306

                     10                     11                     12
                      A                      A                      A
 Frequencies --    237.1341               253.3624               272.0754
 Red. masses --      1.2617                 2.1871                 2.8236
 Frc consts  --      0.0418                 0.0827                 0.1231
 IR Inten    --      0.2434                 1.1374                 1.4145

                     13                     14                     15
                      A                      A                      A
 Frequencies --    294.6980               339.2775               362.5997
 Red. masses --      2.9161                 1.9317                 2.2636
 Frc consts  --      0.1492                 0.1310                 0.1753
 IR Inten    --      1.5410                 0.2779                 0.0435

                     16                     17                     18
                      A                      A                      A
 Frequencies --    412.1911               459.6164               511.7510
 Red. masses --      1.9129                 2.8303                 3.8400
 Frc consts  --      0.1915                 0.3523                 0.5925
 IR Inten    --      1.1825                 1.0930                 7.2364

                     19                     20                     21
                      A                      A                      A
 Frequencies --    524.5705               531.8054               546.5694
 Red. masses --      3.4806                 3.4766                 3.6303
 Frc consts  --      0.5643                 0.5793                 0.6390
 IR Inten    --     16.0343                 1.6442                10.7345

                     22                     23                     24
                      A                      A                      A
 Frequencies --    570.1485               610.2517               662.5141
 Red. masses --      3.0058                 3.8271                 1.8860
 Frc consts  --      0.5757                 0.8397                 0.4877
 IR Inten    --     28.2854                11.0986                35.9308

                     25                     26                     27
                      A                      A                      A
 Frequencies --    705.5197               739.4692               798.5749
 Red. masses --      2.2546                 2.7657                 1.0265
 Frc consts  --      0.6612                 0.8911                 0.3857
 IR Inten    --      5.3179                40.5040                 0.0815

                     28                     29                     30
                      A                      A                      A
 Frequencies --    836.5827               841.7324               857.4982
 Red. masses --      1.4107                 1.3085                 1.4620
 Frc consts  --      0.5817                 0.5462                 0.6334
 IR Inten    --     37.0911                 1.4071                 5.2097

                     31                     32                     33
                      A                      A                      A
 Frequencies --    876.9803               923.3970               924.8387
 Red. masses --      2.6329                 1.3484                 2.3771
 Frc consts  --      1.1930                 0.6774                 1.1979
 IR Inten    --      2.5353                 1.3192                13.0239

                     34                     35                     36
                      A                      A                      A
 Frequencies --    959.2258               964.5481               976.9345
 Red. masses --      2.3801                 1.5983                 3.2539
 Frc consts  --      1.2903                 0.8761                 1.8297
 IR Inten    --      3.3595                 3.5977                 3.0068

                     37                     38                     39
                      A                      A                      A
 Frequencies --   1004.1407              1015.9248              1046.4503
 Red. masses --      1.7165                 4.1258                 1.5112
 Frc consts  --      1.0197                 2.5089                 0.9750
 IR Inten    --      5.1615                 2.4140                 0.0652

                     40                     41                     42
                      A                      A                      A
 Frequencies --   1049.5357              1059.3561              1071.7707
 Red. masses --      1.3399                 1.5894                 1.5171
 Frc consts  --      0.8696                 1.0509                 1.0267
 IR Inten    --      2.1400                 2.1745                13.6128

                     43                     44                     45
                      A                      A                      A
 Frequencies --   1073.2173              1083.1919              1092.7606
 Red. masses --      1.5003                 1.4145                 2.0581
 Frc consts  --      1.0181                 0.9778                 1.4480
 IR Inten    --      6.0960                 1.1678                 0.9407

                     46                     47                     48
                      A                      A                      A
 Frequencies --   1133.5944              1140.6680              1199.8523
 Red. masses --      2.1203                 2.2267                 1.3283
 Frc consts  --      1.6053                 1.7070                 1.1267
 IR Inten    --     33.5594                16.4342                 0.1700

                     49                     50                     51
                      A                      A                      A
 Frequencies --   1202.6716              1223.7827              1259.7403
 Red. masses --      1.4284                 1.7758                 1.3652
 Frc consts  --      1.2173                 1.5669                 1.2764
 IR Inten    --      0.0889                85.0093                 4.6692

                     52                     53                     54
                      A                      A                      A
 Frequencies --   1318.6513              1335.5334              1350.5450
 Red. masses --      1.8986                 2.3362                 1.9582
 Frc consts  --      1.9451                 2.4551                 2.1044
 IR Inten    --      9.8997                12.9995                14.1323

                     55                     56                     57
                      A                      A                      A
 Frequencies --   1367.3338              1383.3685              1415.4574
 Red. masses --      1.9817                 3.7499                 1.4870
 Frc consts  --      2.1829                 4.2281                 1.7553
 IR Inten    --      7.4620                51.3397                 1.8499

                     58                     59                     60
                      A                      A                      A
 Frequencies --   1439.3803              1441.9895              1452.6916
 Red. masses --      1.2355                 1.2928                 1.3388
 Frc consts  --      1.5082                 1.5838                 1.6646
 IR Inten    --      0.0232                 0.5397                 9.0755

                     61                     62                     63
                      A                      A                      A
 Frequencies --   1472.2979              1493.3407              1494.5411
 Red. masses --      2.1095                 1.8266                 1.0935
 Frc consts  --      2.6941                 2.4000                 1.4391
 IR Inten    --      4.6814                13.9299                 2.4040

                     64                     65                     66
                      A                      A                      A
 Frequencies --   1515.0276              1517.8755              1518.3966
 Red. masses --      1.0744                 1.0535                 1.0531
 Frc consts  --      1.4530                 1.4301                 1.4305
 IR Inten    --      3.5477                 3.9473                 5.0608

                     67                     68                     69
                      A                      A                      A
 Frequencies --   1524.2195              1526.4620              1529.7748
 Red. masses --      1.0630                 1.1031                 1.0768
 Frc consts  --      1.4551                 1.5144                 1.4848
 IR Inten    --      0.2646                 8.4678                10.1762

                     70                     71                     72
                      A                      A                      A
 Frequencies --   1539.3367              1541.6419              1576.0623
 Red. masses --      1.3029                 1.4927                 1.7289
 Frc consts  --      1.8189                 2.0902                 2.5302
 IR Inten    --      6.8441                68.9947                74.6152

                     73                     74                     75
                      A                      A                      A
 Frequencies --   1662.1133              1664.6075              3040.6411
 Red. masses --      5.0656                 5.5669                 1.0395
 Frc consts  --      8.2452                 9.0885                 5.6622
 IR Inten    --     38.8829               205.6010                47.3573

                     76                     77                     78
                      A                      A                      A
 Frequencies --   3041.2804              3045.5632              3049.2212
 Red. masses --      1.0395                 1.0411                 1.0649
 Frc consts  --      5.6648                 5.6895                 5.8337
 IR Inten    --     27.3382                47.2588                27.7387

                     79                     80                     81
                      A                      A                      A
 Frequencies --   3095.7949              3096.9375              3107.6944
 Red. masses --      1.0973                 1.0969                 1.1018
 Frc consts  --      6.1960                 6.1982                 6.2696
 IR Inten    --     20.0191                25.3406                25.9146

                     82                     83                     84
                      A                      A                      A
 Frequencies --   3116.0091              3122.8580              3124.1036
 Red. masses --      1.0945                 1.1024                 1.1019
 Frc consts  --      6.2614                 6.3344                 6.3365
 IR Inten    --     24.4163                16.6170                20.9041

                     85                     86                     87
                      A                      A                      A
 Frequencies --   3125.3441              3135.6323              3141.9479
 Red. masses --      1.1008                 1.0526                 1.0573
 Frc consts  --      6.3350                 6.0974                 6.1497
 IR Inten    --     21.1684                18.4755                23.8350

                     88                     89                     90
                      A                      A                      A
 Frequencies --   3158.2074              3175.8255              3198.5949
 Red. masses --      1.0893                 1.0899                 1.0886
 Frc consts  --      6.4015                 6.4768                 6.5621
 IR Inten    --     24.6548                18.9184                17.4284

                     91                     92                     93
                      A                      A                      A
 Frequencies --   3210.3639              3224.2330              3555.9411
 Red. masses --      1.1185                 1.1159                 1.0744
 Frc consts  --      6.7922                 6.8349                 8.0046
 IR Inten    --      0.6454                24.8793                 3.7616

 - Thermochemistry -
 -------------------
 Temperature   298.150 Kelvin.  Pressure   1.00000 Atm.
 Atom     1 has atomic number  6 and mass  12.00000

 Molecular mass:   189.15175 amu.
 Principal axes and moments of inertia in atomic units:
                           1         2         3
     Eigenvalues --  1508.789944836.208885574.93258
           X            1.00000   0.00110  -0.00243
           Y           -0.00111   0.99999  -0.00411
           Z            0.00242   0.00411   0.99999
 This molecule is an asymmetric top.
 Rotational symmetry number  1.
 Warning -- assumption of classical behavior for rotation
           may cause significant error
 Rotational temperatures (Kelvin)      0.05741     0.01791     0.01554
 Rotational constants (GHZ):           1.19615     0.37317     0.32372
 Zero-point vibrational energy     768365.6 (Joules/Mol)
                                  183.64378 (Kcal/Mol)
 Warning -- explicit consideration of  23 degrees of freedom as
           vibrations may cause significant error
 Vibrational temperatures:     30.35    38.50    57.52    61.63    77.70
          (Kelvin)            245.61   255.84   294.63   324.24   341.18
                              364.53   391.46   424.00   488.14   521.70
                              593.05   661.29   736.30   754.74   765.15
                              786.39   820.32   878.02   953.21  1015.09
                             1063.93  1148.97  1203.66  1211.07  1233.75
                             1261.78  1328.56  1330.64  1380.11  1387.77
                             1405.59  1444.73  1461.69  1505.61  1510.05
                             1524.18  1542.04  1544.12  1558.47  1572.24
                             1630.99  1641.17  1726.32  1730.38  1760.75
                             1812.49  1897.25  1921.53  1943.13  1967.29
                             1990.36  2036.53  2070.95  2074.70  2090.10
                             2118.31  2148.58  2150.31  2179.79  2183.88
                             2184.63  2193.01  2196.24  2201.00  2214.76
                             2218.08  2267.60  2391.41  2395.00  4374.80
                             4375.72  4381.89  4387.15  4454.16  4455.80
                             4471.28  4483.24  4493.10  4494.89  4496.67
                             4511.48  4520.56  4543.96  4569.30  4602.06
                             4619.00  4638.95  5116.21

 Zero-point correction=                           0.292655 (Hartree/Particle)
 Thermal correction to Energy=                    0.307775
 Thermal correction to Enthalpy=                  0.308719
 Thermal correction to Gibbs Free Energy=         0.248088
 Sum of electronic and zero-point Energies=           -561.325400
 Sum of electronic and thermal Energies=              -561.310280
 Sum of electronic and thermal Enthalpies=            -561.309336
 Sum of electronic and thermal Free Energies=         -561.369967

                     E (Thermal)             CV                S
                      KCal/Mol        Cal/Mol-Kelvin    Cal/Mol-Kelvin
 Total                  193.132             56.648            127.608
 Electronic               0.000              0.000              0.000
 Translational            0.889              2.981             41.618
 Rotational               0.889              2.981             32.076
 Vibrational            191.354             50.687             53.915
 Vibration     1          0.593              1.985              6.528
 Vibration     2          0.593              1.984              6.056
 Vibration     3          0.594              1.981              5.260
 Vibration     4          0.595              1.980              5.124
 Vibration     5          0.596              1.976              4.665
 Vibration     6          0.626              1.879              2.428
 Vibration     7          0.628              1.870              2.351
 Vibration     8          0.640              1.833              2.090
 Vibration     9          0.650              1.802              1.916
 Vibration    10          0.656              1.784              1.824
 Vibration    11          0.665              1.757              1.707
 Vibration    12          0.675              1.725              1.583
 Vibration    13          0.689              1.684              1.447
 Vibration    14          0.719              1.597              1.216
 Vibration    15          0.736              1.549              1.111
 Vibration    16          0.776              1.444              0.919
 Vibration    17          0.818              1.340              0.767
 Vibration    18          0.867              1.224              0.629
 Vibration    19          0.880              1.196              0.599
 Vibration    20          0.887              1.180              0.583
 Vibration    21          0.902              1.147              0.551
 Vibration    22          0.926              1.096              0.504
 Vibration    23          0.969              1.010              0.432

 Optimization completed on the basis of negligible forces.
    -- Stationary point found.
 Normal termination of Gaussian 16 at Thu Dec 10 10:32:40 2020.

 ----------------------------------------------------------------------
 # B3LYP/6-311++G(d,p) empiricaldispersion=gd3bj scf=xqc pop=npa geom=c
 heck
 ----------------------------------------------------------------------

 ---------------------------------------
 CID_130672229_JID_4626_Energie_neutraal
 ---------------------------------------
 Structure from the checkpoint file:  "JID_4626.chk"
 Charge =  0 Multiplicity = 1

 SCF Done:  E(RB3LYP) =  -561.768805788     A.U. after   15 cycles
 Normal termination of Gaussian 16 at Thu Dec 10 10:37:51 2020.

 ----------------------------------------------------------------------
 # B3LYP/6-311++G(d,p) empiricaldispersion=gd3bj scf=xqc pop=npa geom=c
 heck
 ----------------------------------------------------------------------

 -------------------------------------
 CID_130672229_JID_4626_Energie_kation
 -------------------------------------
 Structure from the checkpoint file:  "JID_4626.chk"
 Charge =  1 Multiplicity = 2

 SCF Done:  E(UB3LYP) =  -561.508998751     A.U. after   22 cycles
 Normal termination of Gaussian 16 at Thu Dec 10 10:47:26 2020.
 Gaussian 16:  ES64L-G16RevA.03 25-Dec-2016

 ----------------------------------------------------------------------
 # B3LYP/6-311++G(d,p) empiricaldispersion=gd3bj scf=xqc pop=npa geom=c
 heck
 ----------------------------------------------------------------------

 ------------------------------------
 CID_130672229_JID_4626_Energie_anion
 ------------------------------------
 Structure from the checkpoint file:  "JID_4626.chk"
 Charge = -1 Multiplicity = 2

                         Standard orientation:
 ---------------------------------------------------------------------
 Center     Atomic      Atomic             Coordinates (Angstroms)
 Number     Number       Type             X           Y           Z
 ---------------------------------------------------------------------
      1          6           0       -3.421136   -2.276325    0.487652
      2          6           0       -2.522795   -1.111987    0.145069
      3          6           0       -2.968862    0.203957    0.320782
      4          6           0       -2.151412    1.283635   -0.019955
      5          6           0       -0.872850    1.047043   -0.533118
      6          6           0       -0.398284   -0.261602   -0.709106
      7          6           0       -1.243500   -1.331465   -0.359872
      8          7           0        0.855896   -0.540966   -1.258887
      9          6           0        2.016474    0.319363   -1.059536
     10          6           0        2.744795    0.105186    0.261879
     11          6           0        3.721590   -1.048672    0.317382
     12          6           0        4.230020    0.374116    0.266903
     13          6           0        1.951321    0.427979    1.513996
     14          6           0       -2.645764    2.702208    0.137994
     15          1           0       -3.999536   -2.079624    1.397083
     16          1           0       -4.141517   -2.470380   -0.317909
     17          1           0       -2.846987   -3.195621    0.642379
     18          1           0       -3.960445    0.386437    0.728346
     19          1           0       -0.249994    1.895336   -0.797775
     20          1           0       -0.883224   -2.351488   -0.483856
     21          1           0        1.099841   -1.521436   -1.173757
     22          1           0        2.712895    0.136245   -1.887474
     23          1           0        1.700501    1.362135   -1.151058
     24          1           0        3.815988   -1.595458    1.251689
     25          1           0        3.850187   -1.664425   -0.570301
     26          1           0        4.697583    0.715686   -0.653447
     27          1           0        4.667981    0.794802    1.168064
     28          1           0        1.623620    1.474550    1.514633
     29          1           0        1.055768   -0.196548    1.591519
     30          1           0        2.558427    0.264051    2.411381
     31          1           0       -2.992444    3.110087   -0.820663
     32          1           0       -3.484092    2.756610    0.839688
     33          1           0       -1.853410    3.365188    0.503249
 ---------------------------------------------------------------------

 SCF Done:  E(UB3LYP) =  -561.752848954     A.U. after   33 cycles
 SCF Done:  E(UB3LYP) =  -561.752848954     a.u. after    1 cycles

 The electronic state is 2-A.
 Alpha  occ. eigenvalues --  -14.22017 -10.11287 -10.10515 -10.08902 -10.08256
 Alpha  occ. eigenvalues --  -10.08248 -10.07468 -10.07259 -10.07176 -10.07147
 Alpha  occ. eigenvalues --  -10.06227 -10.06178 -10.06099 -10.05809  -0.83674
 Alpha  occ. eigenvalues --   -0.77140  -0.74896  -0.68392  -0.65651  -0.61854
 Alpha  occ. eigenvalues --   -0.59830  -0.58896  -0.57496  -0.50877  -0.49264
 Alpha  occ. eigenvalues --   -0.47879  -0.44904  -0.41711  -0.40331  -0.38403
 Alpha  occ. eigenvalues --   -0.37568  -0.37134  -0.34147  -0.32892  -0.32580
 Alpha  occ. eigenvalues --   -0.31938  -0.31190  -0.30671  -0.30183  -0.29811
 Alpha  occ. eigenvalues --   -0.28276  -0.27870  -0.27353  -0.26732  -0.25517
 Alpha  occ. eigenvalues --   -0.24839  -0.23932  -0.20118  -0.18769  -0.18381
 Alpha  occ. eigenvalues --   -0.14092  -0.10093   0.04378
 Alpha virt. eigenvalues --    0.06216   0.06588   0.07518   0.07844   0.08318
 Alpha virt. eigenvalues --    0.08421   0.08961   0.09708   0.09792   0.10144
 Alpha virt. eigenvalues --    0.10686   0.10773   0.11303   0.11555   0.12562

  Beta  occ. eigenvalues --  -14.22005 -10.11289 -10.10498 -10.08902 -10.08257
  Beta  occ. eigenvalues --  -10.08249 -10.07449 -10.07226 -10.07153 -10.07122
  Beta  occ. eigenvalues --  -10.06213 -10.06156 -10.06087 -10.05797  -0.83654
  Beta  occ. eigenvalues --   -0.77125  -0.74884  -0.68374  -0.65631  -0.61822
  Beta  occ. eigenvalues --   -0.59791  -0.58861  -0.57458  -0.50801  -0.49230
  Beta  occ. eigenvalues --   -0.47849  -0.44853  -0.41679  -0.40300  -0.38372
  Beta  occ. eigenvalues --   -0.37540  -0.37091  -0.34114  -0.32867  -0.32549
  Beta  occ. eigenvalues --   -0.31914  -0.31164  -0.30644  -0.30154  -0.29782
  Beta  occ. eigenvalues --   -0.28254  -0.27847  -0.27330  -0.26699  -0.25496
  Beta  occ. eigenvalues --   -0.24818  -0.23910  -0.20087  -0.18752  -0.18359
  Beta  occ. eigenvalues --   -0.14079  -0.10079
  Beta virt. eigenvalues --    0.06313   0.07036   0.07268   0.08157   0.08296
  Beta virt. eigenvalues --    0.08506   0.08883   0.09141   0.09929   0.10006
  Beta virt. eigenvalues --    0.10501   0.11064   0.11234   0.11528   0.11776

 Mulliken charges and spin densities:
               1          2
     1  C    1.910649  -2.468408
     2  C    0.156258   0.451237
     3  C   -2.117727   1.049010
     4  C    0.486785   0.341115
     5  C   -0.014183  -0.017400
     6  C   -0.153316   0.042072
     7  C   -0.485397  -0.026603
     8  N   -0.051879   0.143326
     9  C    1.751501  -2.583921
    10  C   -2.248025   3.038389
    11  C    1.131811  -1.532853
    12  C   -0.067334  -0.298977
    13  C    0.069744  -0.801081
    14  C    1.011564  -1.615549
    15  H   -0.116023   0.255515
    16  H    0.063456   0.099241
    17  H   -0.256947   0.405344
    18  H   -0.152944   0.275089
    19  H    0.194545  -0.065602
    20  H   -0.431523   0.563329
    21  H   -0.079739   0.316237
    22  H   -0.260024   0.447993
    23  H   -0.122731   0.252543
    24  H   -0.290922   0.454006
    25  H   -0.306702   0.464000
    26  H   -0.251588   0.389824
    27  H   -0.041960   0.179616
    28  H   -0.135916   0.293029
    29  H    0.237724  -0.064832
    30  H   -0.044371   0.182357
    31  H   -0.033067   0.195569
    32  H   -0.225548   0.371395
    33  H   -0.126169   0.264988
 Sum of Mulliken charges =  -1.00000   1.00000

 Dipole moment (field-independent basis, Debye):
    X=             -1.9103    Y=              1.8257    Z=             -0.1392  Tot=              2.6461
 Quadrupole moment (field-independent basis, Debye-Ang):
   XX=           -167.0437   YY=           -136.0983   ZZ=           -124.2387
   XY=              6.6907   XZ=              4.6830   YZ=             -1.6117

 Summary of Natural Population Analysis:

                                       Natural Population
                Natural  -----------------------------------------------
    Atom  No    Charge         Core      Valence    Rydberg      Total
 -----------------------------------------------------------------------
      C    1   -0.29011      0.99964     2.28534    0.00513     3.29011
      C    2   -0.00433      0.99952     1.99591    0.00890     3.00433
      C    3   -0.12740      0.99947     2.11858    0.00935     3.12740
      C    4   -0.00298      0.99953     1.99460    0.00885     3.00298
      C    5   -0.13391      0.99947     2.12705    0.00739     3.13391
      C    6    0.09823      0.99948     1.89033    0.01196     2.90177
      C    7   -0.12862      0.99947     2.11995    0.00920     3.12862
      N    8   -0.31290      0.99968     2.80154    0.01168     3.81290
      C    9   -0.07877      0.99955     2.06685    0.01237     3.07877
      C   10   -0.05611      0.99956     2.04378    0.01278     3.05611
      C   11   -0.19711      0.99959     2.18729    0.01023     3.19711
      C   12   -0.19349      0.99958     2.18569    0.00822     3.19349
      C   13   -0.28059      0.99962     2.27582    0.00515     3.28059
      C   14   -0.29011      0.99964     2.28536    0.00512     3.29011
      H   15    0.10166      0.00000     0.39708    0.00125     0.39834
      H   16    0.10215      0.00000     0.39650    0.00134     0.39785
      H   17    0.10284      0.00000     0.39592    0.00125     0.39716
      H   18    0.09599      0.00000     0.40276    0.00125     0.40401
      H   19    0.09859      0.00000     0.39981    0.00159     0.40141
      H   20    0.09780      0.00000     0.40057    0.00163     0.40220
      H   21    0.18234      0.00000     0.31398    0.00368     0.31766
      H   22    0.09819      0.00000     0.40019    0.00162     0.40181
      H   23    0.09681      0.00000     0.40169    0.00150     0.40319
      H   24    0.10326      0.00000     0.39546    0.00128     0.39674
      H   25    0.10350      0.00000     0.39460    0.00190     0.39650
      H   26    0.10220      0.00000     0.39652    0.00129     0.39780
      H   27    0.10163      0.00000     0.39728    0.00109     0.39837
      H   28    0.09982      0.00000     0.39895    0.00123     0.40018
      H   29    0.10625      0.00000     0.39227    0.00148     0.39375
      H   30    0.09918      0.00000     0.39974    0.00109     0.40082
      H   31    0.10225      0.00000     0.39635    0.00140     0.39775
      H   32    0.10123      0.00000     0.39759    0.00117     0.39877
      H   33    0.10249      0.00000     0.39613    0.00138     0.39751
 =======================================================================
   * Total *   -0.00000     13.99379    37.85147    0.15474    52.00000

 Normal termination of Gaussian 16 at Thu Dec 10 11:04:31 2020.
