 Gaussian 16, Revision A.03,

 -----------------------------------------------------------
 # opt freq B3LYP/6-31G(d) empiricaldispersion=gd3bj scf=xqc
 -----------------------------------------------------------

 ------------------------------
 CID_82325486_JID_8336_neutraal
 ------------------------------
 Symbolic Z-matrix:
 Charge =  0 Multiplicity = 1

 SCF Done:  E(RB3LYP) =  -912.098993752     A.U. after   15 cycles
 SCF Done:  E(RB3LYP) =  -912.104324361     A.U. after   13 cycles
 SCF Done:  E(RB3LYP) =  -912.104637063     A.U. after   13 cycles
 SCF Done:  E(RB3LYP) =  -912.105453324     A.U. after   12 cycles
 SCF Done:  E(RB3LYP) =  -912.105402702     A.U. after   12 cycles
 SCF Done:  E(RB3LYP) =  -912.105794813     A.U. after   12 cycles
 SCF Done:  E(RB3LYP) =  -912.105804250     A.U. after   12 cycles
 SCF Done:  E(RB3LYP) =  -912.105866227     A.U. after   10 cycles
 SCF Done:  E(RB3LYP) =  -912.105897444     A.U. after   10 cycles
 SCF Done:  E(RB3LYP) =  -912.105931114     A.U. after   12 cycles
 SCF Done:  E(RB3LYP) =  -912.106758545     A.U. after   11 cycles
 SCF Done:  E(RB3LYP) =  -912.106771304     A.U. after   11 cycles
 SCF Done:  E(RB3LYP) =  -912.106775879     A.U. after   10 cycles
 SCF Done:  E(RB3LYP) =  -912.106777704     A.U. after    9 cycles
 SCF Done:  E(RB3LYP) =  -912.106778168     A.U. after    8 cycles
 Optimization completed.
    -- Stationary point found.
 Normal termination of Gaussian 16 at Fri Dec 11 20:32:00 2020.

 --------------------------------------------------------------------
 #N Geom=AllCheck Guess=TCheck SCRF=Check GenChk RB3LYP/6-31G(d) Freq
 --------------------------------------------------------------------

 Structure from the checkpoint file:  "JID_8336.chk"
 ------------------------------
 CID_82325486_JID_8336_neutraal
 ------------------------------
 Charge =  0 Multiplicity = 1

 SCF Done:  E(RB3LYP) =  -912.106778168     A.U. after    1 cycles

  Exact polarizability: 161.274 -20.214 107.626   1.643  -1.749 128.180
 Approx polarizability: 223.474 -42.880 171.933   9.360  -0.269 223.700

                      1                      2                      3
                      A                      A                      A
 Frequencies --     22.9526                42.6695                47.1640
 Red. masses --      5.8381                 4.7843                 8.9911
 Frc consts  --      0.0018                 0.0051                 0.0118
 IR Inten    --      0.3482                 0.3977                 0.7562

                      4                      5                      6
                      A                      A                      A
 Frequencies --     57.8370                66.6393                79.8967
 Red. masses --      6.8598                 7.4967                 7.4033
 Frc consts  --      0.0135                 0.0196                 0.0278
 IR Inten    --      1.1939                 0.5967                 1.6790

                      7                      8                      9
                      A                      A                      A
 Frequencies --    121.6474               125.3813               141.6086
 Red. masses --      7.7379                 6.7773                 4.5740
 Frc consts  --      0.0675                 0.0628                 0.0540
 IR Inten    --      0.8989                 1.4628                 2.2241

                     10                     11                     12
                      A                      A                      A
 Frequencies --    177.8824               195.1438               265.1005
 Red. masses --      5.6341                 6.2042                 3.8395
 Frc consts  --      0.1050                 0.1392                 0.1590
 IR Inten    --      3.9736                 3.9835                 3.7172

                     13                     14                     15
                      A                      A                      A
 Frequencies --    299.6017               317.9466               374.6550
 Red. masses --      5.7115                 3.5260                 4.1874
 Frc consts  --      0.3021                 0.2100                 0.3463
 IR Inten    --      1.8401                 1.5031                 8.7516

                     16                     17                     18
                      A                      A                      A
 Frequencies --    384.3268               387.8434               418.4515
 Red. masses --      3.6223                 2.9840                 3.4987
 Frc consts  --      0.3152                 0.2645                 0.3609
 IR Inten    --      0.7901                 4.1493                 3.0843

                     19                     20                     21
                      A                      A                      A
 Frequencies --    478.8942               502.1023               524.8273
 Red. masses --      2.0888                 2.0935                 3.0745
 Frc consts  --      0.2822                 0.3110                 0.4989
 IR Inten    --     19.8212                15.5171                23.0405

                     22                     23                     24
                      A                      A                      A
 Frequencies --    528.0136               589.6270               613.7318
 Red. masses --      2.7278                 3.5574                 2.6074
 Frc consts  --      0.4481                 0.7287                 0.5787
 IR Inten    --     22.8532                32.2859                90.2571

                     25                     26                     27
                      A                      A                      A
 Frequencies --    618.3332               641.7354               674.1249
 Red. masses --      3.1171                 3.6690                 2.3332
 Frc consts  --      0.7022                 0.8902                 0.6247
 IR Inten    --     26.9329                23.3170                69.8612

                     28                     29                     30
                      A                      A                      A
 Frequencies --    683.0153               698.4320               741.6614
 Red. masses --      6.6811                 1.4927                 4.9998
 Frc consts  --      1.8364                 0.4290                 1.6204
 IR Inten    --      3.5670                49.1896                22.6496

                     31                     32                     33
                      A                      A                      A
 Frequencies --    749.9214               775.4729               818.3272
 Red. masses --      6.7095                 3.1636                 3.0512
 Frc consts  --      2.2232                 1.1209                 1.2039
 IR Inten    --     12.8285                 9.5179                18.0114

                     34                     35                     36
                      A                      A                      A
 Frequencies --    850.5173               857.8368               897.4898
 Red. masses --      1.7683                 4.1881                 1.2448
 Frc consts  --      0.7537                 1.8158                 0.5908
 IR Inten    --     28.7063                10.1087                 0.5364

                     37                     38                     39
                      A                      A                      A
 Frequencies --    913.5339               980.8978               983.8736
 Red. masses --      2.7138                 1.6503                 1.7127
 Frc consts  --      1.3344                 0.9356                 0.9768
 IR Inten    --      1.0456                 4.9545                 8.1006

                     40                     41                     42
                      A                      A                      A
 Frequencies --    994.8485               998.8639              1013.7503
 Red. masses --      1.4701                 2.2744                 6.8692
 Frc consts  --      0.8573                 1.3370                 4.1593
 IR Inten    --      0.6280                25.0805                 3.1931

                     43                     44                     45
                      A                      A                      A
 Frequencies --   1035.9010              1072.3975              1102.4832
 Red. masses --      3.2668                 3.0755                 1.9450
 Frc consts  --      2.0654                 2.0839                 1.3929
 IR Inten    --     17.4331                16.0767                 2.9208

                     46                     47                     48
                      A                      A                      A
 Frequencies --   1118.4185              1168.7052              1183.6421
 Red. masses --      1.5336                 2.1703                 2.3390
 Frc consts  --      1.1302                 1.7465                 1.9307
 IR Inten    --      1.2275               199.7327                51.4748

                     49                     50                     51
                      A                      A                      A
 Frequencies --   1208.5315              1222.3529              1247.1855
 Red. masses --      2.4983                 2.4490                 1.2702
 Frc consts  --      2.1499                 2.1559                 1.1641
 IR Inten    --    211.9012                27.3535                 2.3081

                     52                     53                     54
                      A                      A                      A
 Frequencies --   1254.9581              1297.0673              1310.1734
 Red. masses --      1.2811                 7.5274                 1.7867
 Frc consts  --      1.1887                 7.4614                 1.8070
 IR Inten    --      1.2893                 9.7100                68.6810

                     55                     56                     57
                      A                      A                      A
 Frequencies --   1342.0620              1354.0058              1366.2133
 Red. masses --      1.7123                 1.6094                 1.4061
 Frc consts  --      1.8170                 1.7384                 1.5464
 IR Inten    --     26.4878                 6.6483                 7.3349

                     58                     59                     60
                      A                      A                      A
 Frequencies --   1374.3501              1390.9708              1423.3662
 Red. masses --      1.5262                 1.9258                 1.3394
 Frc consts  --      1.6985                 2.1953                 1.5988
 IR Inten    --     19.5730                62.7186                39.5081

                     61                     62                     63
                      A                      A                      A
 Frequencies --   1438.6316              1454.6185              1458.4132
 Red. masses --      2.2176                 1.8183                 1.6399
 Frc consts  --      2.7041                 2.2668                 2.0551
 IR Inten    --    166.9848                12.6264                57.3590

                     64                     65                     66
                      A                      A                      A
 Frequencies --   1480.0453              1480.6509              1524.2042
 Red. masses --      1.1150                 1.2510                 1.1815
 Frc consts  --      1.4391                 1.6160                 1.6172
 IR Inten    --     30.9228                30.2656                45.5069

                     67                     68                     69
                      A                      A                      A
 Frequencies --   1542.5705              1611.8411              1654.6291
 Red. masses --      2.1868                 7.4496                 5.3922
 Frc consts  --      3.0658                11.4032                 8.6979
 IR Inten    --     13.7140                19.9452                17.3128

                     70                     71                     72
                      A                      A                      A
 Frequencies --   1747.1184              1836.5193              1865.7408
 Red. masses --     11.8540                 9.3551                10.1010
 Frc consts  --     21.3187                18.5904                20.7166
 IR Inten    --    234.4640               221.6627               340.2051

                     73                     74                     75
                      A                      A                      A
 Frequencies --   3055.9503              3107.9842              3112.1758
 Red. masses --      1.0697                 1.0663                 1.0608
 Frc consts  --      5.8858                 6.0683                 6.0534
 IR Inten    --      7.8805                12.7620                 7.3117

                     76                     77                     78
                      A                      A                      A
 Frequencies --   3135.3329              3165.5710              3172.5662
 Red. masses --      1.0910                 1.1054                 1.0999
 Frc consts  --      6.3191                 6.5261                 6.5225
 IR Inten    --      7.0531                 0.9619                 9.9583

                     79                     80                     81
                      A                      A                      A
 Frequencies --   3175.8589              3179.6011              3205.4158
 Red. masses --      1.0879                 1.0907                 1.0941
 Frc consts  --      6.4651                 6.4969                 6.6233
 IR Inten    --     25.0650                20.0389                10.1933

                     82                     83                     84
                      A                      A                      A
 Frequencies --   3220.6070              3681.5147              3694.6486
 Red. masses --      1.0936                 1.0639                 1.0642
 Frc consts  --      6.6835                 8.4961                 8.5586
 IR Inten    --      4.6466                49.3980                62.4560

 - Thermochemistry -
 -------------------
 Temperature   298.150 Kelvin.  Pressure   1.00000 Atm.
 Atom     1 has atomic number  6 and mass  12.00000

 Molecular mass:   252.07462 amu.
 Principal axes and moments of inertia in atomic units:
                           1         2         3
     Eigenvalues --  2583.555376438.470887506.17734
           X            1.00000  -0.00037  -0.00140
           Y            0.00037   0.99999  -0.00423
           Z            0.00140   0.00423   0.99999
 This molecule is an asymmetric top.
 Rotational symmetry number  1.
 Warning -- assumption of classical behavior for rotation
           may cause significant error
 Rotational temperatures (Kelvin)      0.03353     0.01345     0.01154
 Rotational constants (GHZ):           0.69855     0.28031     0.24043
 Zero-point vibrational energy     610882.5 (Joules/Mol)
                                  146.00441 (Kcal/Mol)
 Warning -- explicit consideration of  25 degrees of freedom as
           vibrations may cause significant error
 Vibrational temperatures:     33.02    61.39    67.86    83.21    95.88
          (Kelvin)            114.95   175.02   180.40   203.74   255.93
                              280.77   381.42   431.06   457.45   539.04
                              552.96   558.02   602.06   689.02   722.41
                              755.11   759.69   848.34   883.02   889.64
                              923.31   969.92   982.71  1004.89  1067.09
                             1078.97  1115.73  1177.39  1223.70  1234.24
                             1291.29  1314.37  1411.29  1415.57  1431.37
                             1437.14  1458.56  1490.43  1542.94  1586.23
                             1609.15  1681.51  1703.00  1738.81  1758.69
                             1794.42  1805.60  1866.19  1885.05  1930.93
                             1948.11  1965.68  1977.38  2001.30  2047.91
                             2069.87  2092.87  2098.33  2129.46  2130.33
                             2192.99  2219.41  2319.08  2380.64  2513.71
                             2642.34  2684.38  4396.83  4471.70  4477.73
                             4511.04  4554.55  4564.62  4569.35  4574.74
                             4611.88  4633.74  5296.88  5315.78

 Zero-point correction=                           0.232673 (Hartree/Particle)
 Thermal correction to Energy=                    0.249175
 Thermal correction to Enthalpy=                  0.250119
 Thermal correction to Gibbs Free Energy=         0.186186
 Sum of electronic and zero-point Energies=           -911.874105
 Sum of electronic and thermal Energies=              -911.857603
 Sum of electronic and thermal Enthalpies=            -911.856659
 Sum of electronic and thermal Free Energies=         -911.920592

                     E (Thermal)             CV                S
                      KCal/Mol        Cal/Mol-Kelvin    Cal/Mol-Kelvin
 Total                  156.360             60.714            134.558
 Electronic               0.000              0.000              0.000
 Translational            0.889              2.981             42.474
 Rotational               0.889              2.981             33.190
 Vibrational            154.582             54.752             58.895
 Vibration     1          0.593              1.985              6.361
 Vibration     2          0.595              1.980              5.131
 Vibration     3          0.595              1.979              4.933
 Vibration     4          0.596              1.974              4.530
 Vibration     5          0.598              1.970              4.250
 Vibration     6          0.600              1.963              3.893
 Vibration     7          0.609              1.931              3.074
 Vibration     8          0.610              1.928              3.016
 Vibration     9          0.615              1.912              2.782
 Vibration    10          0.628              1.870              2.351
 Vibration    11          0.636              1.847              2.178
 Vibration    12          0.671              1.737              1.628
 Vibration    13          0.692              1.674              1.419
 Vibration    14          0.704              1.639              1.321
 Vibration    15          0.746              1.524              1.061
 Vibration    16          0.753              1.504              1.022
 Vibration    17          0.756              1.496              1.008
 Vibration    18          0.781              1.430              0.897
 Vibration    19          0.835              1.297              0.713
 Vibration    20          0.857              1.245              0.653
 Vibration    21          0.880              1.195              0.599
 Vibration    22          0.883              1.188              0.592
 Vibration    23          0.947              1.054              0.468
 Vibration    24          0.973              1.003              0.427
 Vibration    25          0.978              0.993              0.419

                           ! Non-Optimized Parameters !
 Normal termination of Gaussian 16 at Fri Dec 11 20:44:09 2020.

 ----------------------------------------------------------------------
 # B3LYP/6-311++G(d,p) empiricaldispersion=gd3bj scf=xqc pop=npa geom=c
 heck
 ----------------------------------------------------------------------

 --------------------------------------
 CID_82325486_JID_8336_Energie_neutraal
 --------------------------------------
 Structure from the checkpoint file:  "JID_8336.chk"
 Charge =  0 Multiplicity = 1

 SCF Done:  E(RB3LYP) =  -912.383893212     A.U. after   16 cycles
 Normal termination of Gaussian 16 at Fri Dec 11 20:49:38 2020.

 ----------------------------------------------------------------------
 # B3LYP/6-311++G(d,p) empiricaldispersion=gd3bj scf=xqc pop=npa geom=c
 heck
 ----------------------------------------------------------------------

 ------------------------------------
 CID_82325486_JID_8336_Energie_kation
 ------------------------------------
 Structure from the checkpoint file:  "JID_8336.chk"
 Charge =  1 Multiplicity = 2

 SCF Done:  E(UB3LYP) =  -912.053264907     A.U. after   31 cycles
 Normal termination of Gaussian 16 at Fri Dec 11 21:05:07 2020.
 Gaussian 16:  ES64L-G16RevA.03 25-Dec-2016

 ----------------------------------------------------------------------
 # B3LYP/6-311++G(d,p) empiricaldispersion=gd3bj scf=xqc pop=npa geom=c
 heck
 ----------------------------------------------------------------------

 -----------------------------------
 CID_82325486_JID_8336_Energie_anion
 -----------------------------------
 Structure from the checkpoint file:  "JID_8336.chk"
 Charge = -1 Multiplicity = 2

                         Standard orientation:
 ---------------------------------------------------------------------
 Center     Atomic      Atomic             Coordinates (Angstroms)
 Number     Number       Type             X           Y           Z
 ---------------------------------------------------------------------
      1          6           0        2.444286    0.217187    1.248048
      2          6           0        3.692422   -0.380884    1.416323
      3          7           0        4.495847   -0.726530    0.402302
      4          6           0        4.056802   -0.470543   -0.836007
      5          6           0        2.818344    0.106066   -1.116439
      6          6           0        1.984990    0.452400   -0.049268
      7          6           0        0.667599    1.153067   -0.235917
      8          8           0        0.492660    2.268411    0.244253
      9          7           0       -0.316568    0.517647   -0.952343
     10          6           0       -0.293026   -0.911009   -1.273861
     11          6           0       -0.779041   -1.829872   -0.147041
     12          6           0       -2.283923   -1.859561   -0.006843
     13          8           0       -3.078847   -1.463003   -0.833637
     14          8           0       -2.667589   -2.440600    1.149898
     15          6           0       -1.562532    1.262306   -1.069622
     16          6           0       -2.284804    1.538513    0.241705
     17          8           0       -3.133790    2.385626    0.374762
     18          8           0       -1.922856    0.693825    1.241009
     19          1           0        1.839695    0.503003    2.102466
     20          1           0        4.068631   -0.589155    2.416058
     21          1           0        4.729565   -0.741434   -1.647575
     22          1           0        2.517909    0.293627   -2.143042
     23          1           0       -0.911890   -1.064470   -2.161138
     24          1           0        0.727264   -1.189020   -1.532614
     25          1           0       -0.458946   -2.859444   -0.357784
     26          1           0       -0.331355   -1.552369    0.810557
     27          1           0       -3.643477   -2.450850    1.137907
     28          1           0       -1.376916    2.236871   -1.525381
     29          1           0       -2.248240    0.696507   -1.702997
     30          1           0       -2.450536    0.958828    2.017076
 ---------------------------------------------------------------------

 SCF Done:  E(UB3LYP) =  -912.392122409     A.U. after   33 cycles
 SCF Done:  E(UB3LYP) =  -912.392122409     a.u. after    1 cycles

 The electronic state is 2-A.
 Alpha  occ. eigenvalues --  -19.08040 -19.07817 -19.02614 -19.02135 -18.97377
 Alpha  occ. eigenvalues --  -14.24066 -14.16950 -10.21738 -10.21345 -10.15183
 Alpha  occ. eigenvalues --  -10.12018 -10.11579 -10.09245 -10.08170 -10.07727
 Alpha  occ. eigenvalues --  -10.05767 -10.05715 -10.05507  -1.02269  -1.01781
 Alpha  occ. eigenvalues --   -0.93309  -0.93101  -0.92845  -0.83665  -0.81412
 Alpha  occ. eigenvalues --   -0.69828  -0.69007  -0.64544  -0.63720  -0.58935
 Alpha  occ. eigenvalues --   -0.54159  -0.51628  -0.50851  -0.50703  -0.45856
 Alpha  occ. eigenvalues --   -0.42814  -0.41645  -0.40924  -0.39757  -0.39497
 Alpha  occ. eigenvalues --   -0.37628  -0.36876  -0.36855  -0.35531  -0.35226
 Alpha  occ. eigenvalues --   -0.33281  -0.33017  -0.32057  -0.30983  -0.30821
 Alpha  occ. eigenvalues --   -0.30214  -0.29377  -0.28200  -0.27856  -0.27426
 Alpha  occ. eigenvalues --   -0.26645  -0.24008  -0.23827  -0.23279  -0.19950
 Alpha  occ. eigenvalues --   -0.19638  -0.17548  -0.14858  -0.14785  -0.14376
 Alpha  occ. eigenvalues --   -0.13065   0.03660
 Alpha virt. eigenvalues --    0.05447   0.07305   0.07979   0.08780   0.08955
 Alpha virt. eigenvalues --    0.09326   0.09513   0.09988   0.10064   0.11302
 Alpha virt. eigenvalues --    0.11723   0.12543   0.12754   0.13431   0.13594

  Beta  occ. eigenvalues --  -19.07997 -19.07805 -19.02595 -19.02126 -18.97239
  Beta  occ. eigenvalues --  -14.24050 -14.16564 -10.21718 -10.21336 -10.15092
  Beta  occ. eigenvalues --  -10.12013 -10.11575 -10.09229 -10.08180 -10.07680
  Beta  occ. eigenvalues --  -10.05694 -10.05503 -10.05409  -1.02209  -1.01757
  Beta  occ. eigenvalues --   -0.93242  -0.93017  -0.92677  -0.83556  -0.80907
  Beta  occ. eigenvalues --   -0.69743  -0.68513  -0.64450  -0.63500  -0.58830
  Beta  occ. eigenvalues --   -0.53927  -0.51338  -0.50746  -0.50540  -0.45732
  Beta  occ. eigenvalues --   -0.42708  -0.41553  -0.40865  -0.39716  -0.39465
  Beta  occ. eigenvalues --   -0.37535  -0.36783  -0.36718  -0.35425  -0.35051
  Beta  occ. eigenvalues --   -0.33168  -0.32877  -0.31966  -0.30928  -0.30766
  Beta  occ. eigenvalues --   -0.30091  -0.29227  -0.28084  -0.27602  -0.26947
  Beta  occ. eigenvalues --   -0.25957  -0.23914  -0.23676  -0.23242  -0.19881
  Beta  occ. eigenvalues --   -0.19585  -0.16395  -0.14490  -0.14092  -0.13763
  Beta  occ. eigenvalues --   -0.12636
  Beta virt. eigenvalues --    0.06296   0.07413   0.08137   0.08637   0.08838
  Beta virt. eigenvalues --    0.09173   0.09361   0.09647   0.10088   0.10193
  Beta virt. eigenvalues --    0.11355   0.11611   0.12671   0.12909   0.13554

 Mulliken charges and spin densities:
               1          2
     1  C    0.256254   0.354640
     2  C   -0.448080  -0.041576
     3  N   -0.132066   0.167341
     4  C   -0.557717  -0.007143
     5  C    0.138099   0.053839
     6  C    0.736546   0.159831
     7  C   -1.183427  -0.145591
     8  O   -0.277114   0.043894
     9  N    0.206770   0.004401
    10  C   -0.290037   0.168584
    11  C    0.116845  -0.446853
    12  C    0.144222  -0.437505
    13  O   -0.271675   0.026084
    14  O   -0.138472   0.044592
    15  C   -0.356212  -0.178762
    16  C    0.148772   0.057433
    17  O   -0.262879   0.002552
    18  O   -0.170524   0.016157
    19  H    0.157870   0.028104
    20  H    0.124243   0.004433
    21  H    0.122162   0.008496
    22  H    0.154440   0.014568
    23  H    0.104415   0.088664
    24  H    0.153760   0.016497
    25  H   -0.199145   0.383072
    26  H    0.357548  -0.056561
    27  H   -0.260435   0.548355
    28  H    0.220557   0.010839
    29  H    0.195643   0.012351
    30  H    0.209637   0.099265
 Sum of Mulliken charges =  -1.00000   1.00000

 Dipole moment (field-independent basis, Debye):
    X=             -1.8256    Y=             -0.2843    Z=             -1.9480  Tot=              2.6848
 Quadrupole moment (field-independent basis, Debye-Ang):
   XX=           -181.5272   YY=           -144.9433   ZZ=           -112.1952
   XY=              0.8272   XZ=             -2.7867   YZ=              0.5783

 Summary of Natural Population Analysis:

                                       Natural Population
                Natural  -----------------------------------------------
    Atom  No    Charge         Core      Valence    Rydberg      Total
 -----------------------------------------------------------------------
      C    1   -0.10613      0.99946     2.09838    0.00829     3.10613
      C    2    0.02524      0.99961     1.95912    0.01603     2.97476
      N    3   -0.19264      0.99971     2.68088    0.01204     3.69264
      C    4    0.01670      0.99960     1.96751    0.01620     2.98330
      C    5   -0.11864      0.99952     2.10999    0.00912     3.11864
      C    6    0.00024      0.99947     1.98864    0.01165     2.99976
      C    7    0.35743      0.99959     1.61870    0.02428     2.64257
      O    8   -0.30603      0.99988     3.30138    0.00477     4.30603
      N    9   -0.25581      0.99964     2.74597    0.01020     3.75581
      C   10   -0.08512      0.99960     2.07429    0.01124     3.08512
      C   11   -0.24819      0.99956     2.24021    0.00842     3.24819
      C   12    0.41489      0.99972     1.55982    0.02557     2.58511
      O   13   -0.31874      0.99987     3.31288    0.00600     4.31874
      O   14   -0.34173      0.99987     3.33516    0.00669     4.34173
      C   15   -0.13718      0.99956     2.12686    0.01076     3.13718
      C   16    0.41001      0.99973     1.56291    0.02735     2.58999
      O   17   -0.30739      0.99986     3.30171    0.00582     4.30739
      O   18   -0.34619      0.99987     3.33913    0.00719     4.34619
      H   19    0.10308      0.00000     0.39596    0.00096     0.39692
      H   20    0.08254      0.00000     0.41641    0.00105     0.41746
      H   21    0.08260      0.00000     0.41632    0.00108     0.41740
      H   22    0.09843      0.00000     0.40062    0.00095     0.40157
      H   23    0.10068      0.00000     0.39838    0.00093     0.39932
      H   24    0.11395      0.00000     0.38481    0.00124     0.38605
      H   25    0.11700      0.00000     0.38168    0.00132     0.38300
      H   26    0.12249      0.00000     0.37600    0.00151     0.37751
      H   27    0.24140      0.00000     0.24893    0.00968     0.25860
      H   28    0.11557      0.00000     0.38347    0.00096     0.38443
      H   29    0.12064      0.00000     0.37831    0.00105     0.37936
      H   30    0.24094      0.00000     0.25571    0.00334     0.25906
 =======================================================================
   * Total *    0.00003     17.99413    47.76015    0.24570    65.99997

 Normal termination of Gaussian 16 at Fri Dec 11 21:21:39 2020.
