 Gaussian 16, Revision A.03,

 -----------------------------------------------------------
 # opt freq B3LYP/6-31G(d) empiricaldispersion=gd3bj scf=xqc
 -----------------------------------------------------------

 ------------------------------
 CID_62161074_JID_9668_neutraal
 ------------------------------
 Symbolic Z-matrix:
 Charge =  0 Multiplicity = 1

 SCF Done:  E(RB3LYP) =  -821.405469129     A.U. after   15 cycles
 SCF Done:  E(RB3LYP) =  -821.407486579     A.U. after   14 cycles
 SCF Done:  E(RB3LYP) =  -821.407349854     A.U. after   14 cycles
 SCF Done:  E(RB3LYP) =  -821.411744411     A.U. after   13 cycles
 SCF Done:  E(RB3LYP) =  -821.412637010     A.U. after   13 cycles
 SCF Done:  E(RB3LYP) =  -821.414357041     A.U. after   13 cycles
 SCF Done:  E(RB3LYP) =  -821.414959558     A.U. after   12 cycles
 SCF Done:  E(RB3LYP) =  -821.415323809     A.U. after   12 cycles
 SCF Done:  E(RB3LYP) =  -821.415397215     A.U. after   11 cycles
 SCF Done:  E(RB3LYP) =  -821.415443171     A.U. after   11 cycles
 SCF Done:  E(RB3LYP) =  -821.415454820     A.U. after   10 cycles
 SCF Done:  E(RB3LYP) =  -821.415460714     A.U. after   10 cycles
 SCF Done:  E(RB3LYP) =  -821.415461895     A.U. after    9 cycles
 SCF Done:  E(RB3LYP) =  -821.415462172     A.U. after    8 cycles
 Optimization completed.
    -- Stationary point found.
 Normal termination of Gaussian 16 at Sat Dec 12 09:58:41 2020.

 --------------------------------------------------------------------
 #N Geom=AllCheck Guess=TCheck SCRF=Check GenChk RB3LYP/6-31G(d) Freq
 --------------------------------------------------------------------

 Structure from the checkpoint file:  "JID_9668.chk"
 ------------------------------
 CID_62161074_JID_9668_neutraal
 ------------------------------
 Charge =  0 Multiplicity = 1

 SCF Done:  E(RB3LYP) =  -821.415462172     A.U. after    1 cycles

  Exact polarizability: 188.648  -7.271 186.152  29.178   9.450 148.324
 Approx polarizability: 271.619 -24.001 291.494  67.945  17.999 269.778

                      1                      2                      3
                      A                      A                      A
 Frequencies --     18.8408                36.9928                39.1788
 Red. masses --      1.0145                 4.4329                 4.8032
 Frc consts  --      0.0002                 0.0036                 0.0043
 IR Inten    --      0.2620                 0.0289                 0.2165

                      4                      5                      6
                      A                      A                      A
 Frequencies --     63.9482                74.1266                80.3180
 Red. masses --      3.7469                 3.1978                 4.2488
 Frc consts  --      0.0090                 0.0104                 0.0161
 IR Inten    --      1.6518                 0.5131                 0.5073

                      7                      8                      9
                      A                      A                      A
 Frequencies --    108.7535               118.0225               170.7216
 Red. masses --      4.0929                 4.6871                 4.1012
 Frc consts  --      0.0285                 0.0385                 0.0704
 IR Inten    --      5.6829                 0.4689                 2.7592

                     10                     11                     12
                      A                      A                      A
 Frequencies --    197.6051               218.6910               235.2397
 Red. masses --      4.7790                 1.8030                 1.8911
 Frc consts  --      0.1099                 0.0508                 0.0617
 IR Inten    --      0.5435                 1.7402                 1.3374

                     13                     14                     15
                      A                      A                      A
 Frequencies --    283.1102               302.8214               329.1713
 Red. masses --      4.0319                 2.7161                 3.8803
 Frc consts  --      0.1904                 0.1467                 0.2477
 IR Inten    --      2.4706                 0.7581                 1.0922

                     16                     17                     18
                      A                      A                      A
 Frequencies --    353.1098               367.0845               404.4310
 Red. masses --      2.5667                 2.8602                 2.4973
 Frc consts  --      0.1886                 0.2271                 0.2407
 IR Inten    --     10.9672                12.9146                11.3015

                     19                     20                     21
                      A                      A                      A
 Frequencies --    415.6138               426.0302               448.8221
 Red. masses --      2.7667                 3.1084                 3.4472
 Frc consts  --      0.2816                 0.3324                 0.4091
 IR Inten    --      7.6092                 0.6947                20.7517

                     22                     23                     24
                      A                      A                      A
 Frequencies --    471.9244               486.5301               503.8354
 Red. masses --      2.3002                 1.6292                 3.6029
 Frc consts  --      0.3018                 0.2272                 0.5389
 IR Inten    --      9.2806               177.3964                32.2297

                     25                     26                     27
                      A                      A                      A
 Frequencies --    542.5992               562.3242               586.2720
 Red. masses --      2.6146                 2.8242                 4.4513
 Frc consts  --      0.4535                 0.5262                 0.9014
 IR Inten    --     96.5672                26.4536                10.5857

                     28                     29                     30
                      A                      A                      A
 Frequencies --    599.6285               629.8150               659.9371
 Red. masses --      3.9883                 5.5254                 6.7697
 Frc consts  --      0.8449                 1.2913                 1.7371
 IR Inten    --     13.8684                 7.5195                 0.4032

                     31                     32                     33
                      A                      A                      A
 Frequencies --    682.7810               734.5295               749.7345
 Red. masses --      5.9620                 3.2469                 7.8065
 Frc consts  --      1.6376                 1.0321                 2.5854
 IR Inten    --      3.1319                 3.3964                15.5788

                     34                     35                     36
                      A                      A                      A
 Frequencies --    777.4266               782.1543               817.3837
 Red. masses --      1.6750                 1.6255                 2.5907
 Frc consts  --      0.5965                 0.5859                 1.0198
 IR Inten    --      9.6453                44.2112                 8.0110

                     37                     38                     39
                      A                      A                      A
 Frequencies --    823.2552               838.3015               846.4657
 Red. masses --      2.9779                 1.6409                 1.2531
 Frc consts  --      1.1891                 0.6794                 0.5290
 IR Inten    --      5.9382                19.4076                 0.9084

                     40                     41                     42
                      A                      A                      A
 Frequencies --    873.9599               913.9559               954.3668
 Red. masses --      3.3713                 4.1163                 2.1135
 Frc consts  --      1.5171                 2.0259                 1.1342
 IR Inten    --      3.0323                16.3265                 0.0824

                     43                     44                     45
                      A                      A                      A
 Frequencies --    960.6649               962.8473               973.6274
 Red. masses --      1.3336                 1.4683                 1.3773
 Frc consts  --      0.7252                 0.8020                 0.7692
 IR Inten    --      0.3443                 0.1538                 0.2056

                     46                     47                     48
                      A                      A                      A
 Frequencies --    976.3630              1021.2099              1034.0404
 Red. masses --      1.3554                 1.4149                 3.3783
 Frc consts  --      0.7613                 0.8694                 2.1283
 IR Inten    --      2.4081                 0.6173                 3.5196

                     49                     50                     51
                      A                      A                      A
 Frequencies --   1043.8457              1060.8927              1076.4733
 Red. masses --      2.5731                 2.4091                 1.5273
 Frc consts  --      1.6519                 1.5975                 1.0428
 IR Inten    --      3.8227                17.3074                10.5594

                     52                     53                     54
                      A                      A                      A
 Frequencies --   1113.0743              1120.6791              1145.9524
 Red. masses --      2.0024                 1.9235                 2.0511
 Frc consts  --      1.4616                 1.4234                 1.5869
 IR Inten    --      8.3707                15.5037                45.0924

                     55                     56                     57
                      A                      A                      A
 Frequencies --   1153.9630              1167.7396              1202.8165
 Red. masses --      1.3753                 1.2482                 2.4840
 Frc consts  --      1.0790                 1.0028                 2.1174
 IR Inten    --     15.6517                17.0119                22.1016

                     58                     59                     60
                      A                      A                      A
 Frequencies --   1220.2802              1247.3899              1296.4142
 Red. masses --      1.1634                 3.0767                 2.2197
 Frc consts  --      1.0207                 2.8205                 2.1981
 IR Inten    --      0.3973                 3.9009                35.6795

                     61                     62                     63
                      A                      A                      A
 Frequencies --   1298.8393              1311.2394              1346.3906
 Red. masses --      2.2891                 3.3974                 2.4191
 Frc consts  --      2.2752                 3.4416                 2.5837
 IR Inten    --     15.3951               230.6484                 5.4423

                     64                     65                     66
                      A                      A                      A
 Frequencies --   1348.7178              1353.3378              1374.2592
 Red. masses --      5.2053                 1.7476                 1.9872
 Frc consts  --      5.5788                 1.8858                 2.2112
 IR Inten    --     17.4921                 9.1758                18.1604

                     67                     68                     69
                      A                      A                      A
 Frequencies --   1405.2453              1408.4188              1435.0727
 Red. masses --      1.6419                 1.4310                 1.2792
 Frc consts  --      1.9103                 1.6724                 1.5522
 IR Inten    --     71.7125                34.3451                19.2124

                     70                     71                     72
                      A                      A                      A
 Frequencies --   1443.8077              1462.6310              1497.3955
 Red. masses --      1.2445                 2.6516                 2.9860
 Frc consts  --      1.5285                 3.3422                 3.9446
 IR Inten    --      0.0221                 8.8843               115.2085

                     73                     74                     75
                      A                      A                      A
 Frequencies --   1506.3280              1512.0156              1518.1798
 Red. masses --      1.1447                 2.2964                 1.0500
 Frc consts  --      1.5303                 3.0932                 1.4258
 IR Inten    --      9.9829                58.0106                 4.9338

                     76                     77                     78
                      A                      A                      A
 Frequencies --   1521.4897              1522.5378              1537.6154
 Red. masses --      1.0455                 1.1180                 1.0525
 Frc consts  --      1.4260                 1.5269                 1.4661
 IR Inten    --      7.0139                 3.9036                 3.4821

                     79                     80                     81
                      A                      A                      A
 Frequencies --   1565.0524              1620.1144              1632.3438
 Red. masses --      2.5608                 4.7213                 5.8818
 Frc consts  --      3.6956                 7.3014                 9.2338
 IR Inten    --     73.1905                49.6819                11.5067

                     82                     83                     84
                      A                      A                      A
 Frequencies --   1645.7710              1669.4417              1674.8705
 Red. masses --      2.5524                 2.1640                 4.4285
 Frc consts  --      4.0732                 3.5535                 7.3193
 IR Inten    --     45.6253               193.2811                42.4134

                     85                     86                     87
                      A                      A                      A
 Frequencies --   1739.6441              3043.3882              3058.6156
 Red. masses --     10.8998                 1.0409                 1.0359
 Frc consts  --     19.4352                 5.6803                 5.7099
 IR Inten    --    316.0939                33.0210                21.6223

                     88                     89                     90
                      A                      A                      A
 Frequencies --   3090.3295              3101.6003              3122.0444
 Red. masses --      1.0655                 1.0952                 1.1026
 Frc consts  --      5.9954                 6.2077                 6.3322
 IR Inten    --     20.2540                18.1943                26.6522

                     91                     92                     93
                      A                      A                      A
 Frequencies --   3128.8233              3145.7538              3161.4683
 Red. masses --      1.1029                 1.0985                 1.1032
 Frc consts  --      6.3612                 6.4049                 6.4966
 IR Inten    --     14.4493                13.4461                18.5649

                     94                     95                     96
                      A                      A                      A
 Frequencies --   3167.6591              3179.1944              3186.6473
 Red. masses --      1.0895                 1.0871                 1.0894
 Frc consts  --      6.4410                 6.4737                 6.5180
 IR Inten    --     31.4208                13.7951                15.2363

                     97                     98                     99
                      A                      A                      A
 Frequencies --   3196.3323              3207.9373              3225.0710
 Red. masses --      1.0945                 1.0888                 1.0963
 Frc consts  --      6.5881                 6.6015                 6.7183
 IR Inten    --     13.3334                 4.3671                18.8726

                    100                    101                    102
                      A                      A                      A
 Frequencies --   3226.2306              3592.2786              3713.0649
 Red. masses --      1.0929                 1.0468                 1.1002
 Frc consts  --      6.7022                 7.9591                 8.9367
 IR Inten    --      2.4717                31.3338                43.7446

 - Thermochemistry -
 -------------------
 Temperature   298.150 Kelvin.  Pressure   1.00000 Atm.
 Atom     1 has atomic number  6 and mass  12.00000

 Molecular mass:   255.13716 amu.
 Principal axes and moments of inertia in atomic units:
                           1         2         3
     Eigenvalues --  3809.261605203.358927333.00601
           X            0.99986  -0.01572   0.00604
           Y            0.01569   0.99986   0.00509
           Z           -0.00612  -0.00500   0.99997
 This molecule is an asymmetric top.
 Rotational symmetry number  1.
 Warning -- assumption of classical behavior for rotation
           may cause significant error
 Rotational temperatures (Kelvin)      0.02274     0.01665     0.01181
 Rotational constants (GHZ):           0.47378     0.34684     0.24611
 Zero-point vibrational energy     784781.9 (Joules/Mol)
                                  187.56737 (Kcal/Mol)
 Warning -- explicit consideration of  28 degrees of freedom as
           vibrations may cause significant error
 Vibrational temperatures:     27.11    53.22    56.37    92.01   106.65
          (Kelvin)            115.56   156.47   169.81   245.63   284.31
                              314.65   338.46   407.33   435.69   473.60
                              508.05   528.15   581.89   597.98   612.96
                              645.75   678.99   700.01   724.91   780.68
                              809.06   843.51   862.73   906.16   949.50
                              982.37  1056.82  1078.70  1118.54  1125.35
                             1176.03  1184.48  1206.13  1217.88  1257.43
                             1314.98  1373.12  1382.18  1385.32  1400.83
                             1404.77  1469.29  1487.75  1501.86  1526.39
                             1548.80  1601.47  1612.41  1648.77  1660.30
                             1680.12  1730.58  1755.71  1794.72  1865.25
                             1868.74  1886.58  1937.16  1940.50  1947.15
                             1977.25  2021.83  2026.40  2064.75  2077.32
                             2104.40  2154.42  2167.27  2175.45  2184.32
                             2189.08  2190.59  2212.29  2251.76  2330.98
                             2348.58  2367.90  2401.95  2409.77  2502.96
                             4378.76  4400.67  4446.29  4462.51  4491.93
                             4501.68  4526.04  4548.65  4557.55  4574.15
                             4584.87  4598.81  4615.51  4640.16  4641.83
                             5168.49  5342.27

 Zero-point correction=                           0.298908 (Hartree/Particle)
 Thermal correction to Energy=                    0.316672
 Thermal correction to Enthalpy=                  0.317617
 Thermal correction to Gibbs Free Energy=         0.251497
 Sum of electronic and zero-point Energies=           -821.116555
 Sum of electronic and thermal Energies=              -821.098790
 Sum of electronic and thermal Enthalpies=            -821.097846
 Sum of electronic and thermal Free Energies=         -821.163965

                     E (Thermal)             CV                S
                      KCal/Mol        Cal/Mol-Kelvin    Cal/Mol-Kelvin
 Total                  198.715             67.765            139.160
 Electronic               0.000              0.000              0.000
 Translational            0.889              2.981             42.510
 Rotational               0.889              2.981             33.341
 Vibrational            196.937             61.803             63.309
 Vibration     1          0.593              1.986              6.753
 Vibration     2          0.594              1.982              5.414
 Vibration     3          0.594              1.981              5.300
 Vibration     4          0.597              1.972              4.331
 Vibration     5          0.599              1.966              4.041
 Vibration     6          0.600              1.963              3.883
 Vibration     7          0.606              1.942              3.291
 Vibration     8          0.608              1.934              3.132
 Vibration     9          0.626              1.879              2.428
 Vibration    10          0.637              1.843              2.155
 Vibration    11          0.646              1.813              1.970
 Vibration    12          0.655              1.787              1.839
 Vibration    13          0.682              1.705              1.515
 Vibration    14          0.694              1.668              1.401
 Vibration    15          0.712              1.617              1.264
 Vibration    16          0.729              1.569              1.152
 Vibration    17          0.740              1.540              1.092
 Vibration    18          0.770              1.461              0.947
 Vibration    19          0.779              1.436              0.907
 Vibration    20          0.788              1.414              0.872
 Vibration    21          0.808              1.363              0.799
 Vibration    22          0.829              1.312              0.732
 Vibration    23          0.843              1.280              0.693
 Vibration    24          0.859              1.242              0.649
 Vibration    25          0.898              1.156              0.560
 Vibration    26          0.918              1.113              0.519
 Vibration    27          0.943              1.061              0.474
 Vibration    28          0.958              1.033              0.450

                           ! Non-Optimized Parameters !
 Normal termination of Gaussian 16 at Sat Dec 12 10:16:12 2020.

 ----------------------------------------------------------------------
 # B3LYP/6-311++G(d,p) empiricaldispersion=gd3bj scf=xqc pop=npa geom=c
 heck
 ----------------------------------------------------------------------

 --------------------------------------
 CID_62161074_JID_9668_Energie_neutraal
 --------------------------------------
 Structure from the checkpoint file:  "JID_9668.chk"
 Charge =  0 Multiplicity = 1

 SCF Done:  E(RB3LYP) =  -821.638863032     A.U. after   17 cycles
 Normal termination of Gaussian 16 at Sat Dec 12 10:23:15 2020.

 ----------------------------------------------------------------------
 # B3LYP/6-311++G(d,p) empiricaldispersion=gd3bj scf=xqc pop=npa geom=c
 heck
 ----------------------------------------------------------------------

 ------------------------------------
 CID_62161074_JID_9668_Energie_kation
 ------------------------------------
 Structure from the checkpoint file:  "JID_9668.chk"
 Charge =  1 Multiplicity = 2

 SCF Done:  E(UB3LYP) =  -821.354728974     A.U. after   27 cycles
 Normal termination of Gaussian 16 at Sat Dec 12 10:38:13 2020.
 Gaussian 16:  ES64L-G16RevA.03 25-Dec-2016

 ----------------------------------------------------------------------
 # B3LYP/6-311++G(d,p) empiricaldispersion=gd3bj scf=xqc pop=npa geom=c
 heck
 ----------------------------------------------------------------------

 -----------------------------------
 CID_62161074_JID_9668_Energie_anion
 -----------------------------------
 Structure from the checkpoint file:  "JID_9668.chk"
 Charge = -1 Multiplicity = 2

                         Standard orientation:
 ---------------------------------------------------------------------
 Center     Atomic      Atomic             Coordinates (Angstroms)
 Number     Number       Type             X           Y           Z
 ---------------------------------------------------------------------
      1          6           0        0.840909    3.590094   -0.876077
      2          6           0        0.463033    2.997248    0.479760
      3          7           0        0.009131    1.596499    0.375851
      4          6           0        1.014503    0.612551    0.120468
      5          6           0        2.026057    0.396007    1.063473
      6          6           0        3.015236   -0.555543    0.831108
      7          6           0        3.020594   -1.324346   -0.339012
      8          6           0        2.006855   -1.095869   -1.276648
      9          6           0        1.024875   -0.131742   -1.063652
     10          6           0        4.102470   -2.343982   -0.595914
     11          6           0       -1.326783    1.405375    0.030085
     12          8           0       -2.058024    2.359290   -0.217559
     13          6           0       -1.849252    0.005063   -0.014431
     14          6           0       -1.609467   -0.990912    0.969817
     15          7           0       -2.091521   -2.241074    0.854995
     16          6           0       -2.861942   -2.530683   -0.194238
     17          6           0       -3.225893   -1.608513   -1.174818
     18          6           0       -2.708387   -0.321658   -1.063483
     19          7           0       -0.940359   -0.727396    2.139164
     20          1           0        1.634667    3.003819   -1.351560
     21          1           0        1.199916    4.618155   -0.755356
     22          1           0       -0.032557    3.602841   -1.533193
     23          1           0        1.317050    3.017519    1.162506
     24          1           0       -0.352769    3.563368    0.930686
     25          1           0        2.031484    0.969946    1.986325
     26          1           0        3.789255   -0.712654    1.578115
     27          1           0        1.990320   -1.673664   -2.197247
     28          1           0        0.257774    0.038336   -1.810320
     29          1           0        3.725197   -3.187121   -1.183636
     30          1           0        4.937724   -1.903728   -1.156385
     31          1           0        4.510495   -2.738374    0.340312
     32          1           0       -3.211648   -3.560641   -0.248824
     33          1           0       -3.878562   -1.891169   -1.993416
     34          1           0       -2.946422    0.448706   -1.790564
     35          1           0       -0.625071   -1.551572    2.632047
     36          1           0       -0.320265    0.067165    2.162276
 ---------------------------------------------------------------------

 SCF Done:  E(UB3LYP) =  -821.638717025     A.U. after   33 cycles
 SCF Done:  E(UB3LYP) =  -821.638717032     a.u. after    2 cycles

 The electronic state is 2-A.
 Alpha  occ. eigenvalues --  -18.94935 -14.21886 -14.19229 -14.15932 -10.12848
 Alpha  occ. eigenvalues --  -10.11209 -10.09150 -10.08998 -10.07013 -10.06234
 Alpha  occ. eigenvalues --  -10.06166 -10.05833 -10.05790 -10.05540 -10.05522
 Alpha  occ. eigenvalues --  -10.05415 -10.03824 -10.03733 -10.03486  -0.90612
 Alpha  occ. eigenvalues --   -0.83118  -0.81736  -0.75796  -0.73929  -0.67114
 Alpha  occ. eigenvalues --   -0.66290  -0.64128  -0.63371  -0.61086  -0.57838
 Alpha  occ. eigenvalues --   -0.53972  -0.50566  -0.49757  -0.48885  -0.48268
 Alpha  occ. eigenvalues --   -0.43895  -0.41835  -0.39462  -0.39253  -0.36868
 Alpha  occ. eigenvalues --   -0.35821  -0.35216  -0.33772  -0.32891  -0.32449
 Alpha  occ. eigenvalues --   -0.32210  -0.31536  -0.31103  -0.31007  -0.28876
 Alpha  occ. eigenvalues --   -0.28517  -0.27962  -0.27035  -0.26132  -0.25792
 Alpha  occ. eigenvalues --   -0.25067  -0.24800  -0.23920  -0.23290  -0.22906
 Alpha  occ. eigenvalues --   -0.19411  -0.16210  -0.15550  -0.14483  -0.13600
 Alpha  occ. eigenvalues --   -0.11646  -0.10986  -0.08753   0.04788
 Alpha virt. eigenvalues --    0.06799   0.07660   0.08127   0.08912   0.09183
 Alpha virt. eigenvalues --    0.09285   0.09818   0.10220   0.10678   0.10966
 Alpha virt. eigenvalues --    0.11093   0.11913   0.12097   0.12441   0.12775

  Beta  occ. eigenvalues --  -18.94720 -14.21920 -14.19223 -14.15828 -10.12669
  Beta  occ. eigenvalues --  -10.11210 -10.09129 -10.08909 -10.07023 -10.06229
  Beta  occ. eigenvalues --  -10.06051 -10.05851 -10.05523 -10.05516 -10.05398
  Beta  occ. eigenvalues --  -10.05345 -10.03762 -10.03588 -10.03472  -0.90251
  Beta  occ. eigenvalues --   -0.82956  -0.81576  -0.75632  -0.73748  -0.66846
  Beta  occ. eigenvalues --   -0.66050  -0.63983  -0.63238  -0.60867  -0.57728
  Beta  occ. eigenvalues --   -0.53725  -0.50287  -0.49696  -0.48714  -0.47957
  Beta  occ. eigenvalues --   -0.43771  -0.41700  -0.39342  -0.39093  -0.36737
  Beta  occ. eigenvalues --   -0.35695  -0.35107  -0.33716  -0.32757  -0.32316
  Beta  occ. eigenvalues --   -0.32016  -0.31440  -0.30982  -0.30885  -0.28699
  Beta  occ. eigenvalues --   -0.28400  -0.27612  -0.26849  -0.25856  -0.25516
  Beta  occ. eigenvalues --   -0.24975  -0.24413  -0.23798  -0.23211  -0.22416
  Beta  occ. eigenvalues --   -0.18900  -0.15699  -0.14762  -0.13964  -0.13178
  Beta  occ. eigenvalues --   -0.11325  -0.10425  -0.08354
  Beta virt. eigenvalues --    0.06747   0.07625   0.08224   0.08646   0.09125
  Beta virt. eigenvalues --    0.09452   0.09765   0.10087   0.10379   0.10712
  Beta virt. eigenvalues --    0.10997   0.11583   0.11862   0.12383   0.12427

 Mulliken charges and spin densities:
               1          2
     1  C   -0.403446  -0.128757
     2  C    0.034755   0.040496
     3  N    0.252555   0.019773
     4  C   -0.153064  -0.132577
     5  C   -0.005100   0.003461
     6  C   -0.491963  -0.055700
     7  C    0.190178   0.285425
     8  C   -0.492875   0.194486
     9  C   -0.101470  -0.029605
    10  C   -0.263689  -0.405978
    11  C   -1.022725   0.099697
    12  O   -0.297471   0.064896
    13  C    1.649599  -0.092968
    14  C   -1.113807  -0.003309
    15  N   -0.123487   0.046378
    16  C   -0.294865   0.165387
    17  C   -0.130902  -0.109797
    18  C    0.012868   0.281990
    19  N   -0.159032  -0.029428
    20  H    0.136756  -0.010852
    21  H    0.045022   0.077306
    22  H    0.155033   0.038232
    23  H    0.071475   0.032690
    24  H    0.128910   0.051292
    25  H    0.008134   0.127621
    26  H   -0.015909   0.157931
    27  H    0.133961   0.015777
    28  H    0.148077   0.042373
    29  H    0.075522   0.064228
    30  H    0.166514  -0.018052
    31  H    0.041682   0.090863
    32  H    0.125558  -0.009925
    33  H    0.105750   0.021451
    34  H    0.156791   0.006875
    35  H    0.194108   0.047624
    36  H    0.236556   0.050695
 Sum of Mulliken charges =  -1.00000   1.00000

 Dipole moment (field-independent basis, Debye):
    X=              5.0076    Y=              0.4825    Z=             -0.9236  Tot=              5.1149
 Quadrupole moment (field-independent basis, Debye-Ang):
   XX=           -156.7692   YY=           -147.9607   ZZ=           -125.9101
   XY=              3.3248   XZ=              3.2661   YZ=              4.7522

 Summary of Natural Population Analysis:

                                       Natural Population
                Natural  -----------------------------------------------
    Atom  No    Charge         Core      Valence    Rydberg      Total
 -----------------------------------------------------------------------
      C    1   -0.29493      0.99966     2.29112    0.00415     3.29493
      C    2   -0.07905      0.99962     2.06985    0.00958     3.07905
      N    3   -0.27456      0.99962     2.76378    0.01116     3.77456
      C    4    0.08554      0.99946     1.90291    0.01210     2.91446
      C    5   -0.08903      0.99951     2.07966    0.00986     3.08903
      C    6   -0.11351      0.99952     2.10432    0.00966     3.11351
      C    7    0.00026      0.99952     1.99071    0.00950     2.99974
      C    8   -0.08887      0.99952     2.08071    0.00864     3.08887
      C    9   -0.10080      0.99951     2.09338    0.00791     3.10080
      C   10   -0.29077      0.99964     2.28652    0.00461     3.29077
      C   11    0.36863      0.99960     1.60875    0.02302     2.63137
      O   12   -0.30660      0.99988     3.30160    0.00513     4.30660
      C   13   -0.10196      0.99943     2.09110    0.01143     3.10196
      C   14    0.20967      0.99952     1.77455    0.01627     2.79033
      N   15   -0.26046      0.99967     2.74853    0.01226     3.76046
      C   16    0.08156      0.99961     1.90467    0.01416     2.91844
      C   17   -0.17319      0.99956     2.16413    0.00951     3.17319
      C   18   -0.01571      0.99954     2.00682    0.00935     3.01571
      N   19   -0.39491      0.99970     2.88648    0.00873     3.89491
      H   20    0.09851      0.00000     0.40057    0.00092     0.40149
      H   21    0.09266      0.00000     0.40624    0.00110     0.40734
      H   22    0.10743      0.00000     0.39130    0.00128     0.39257
      H   23    0.08950      0.00000     0.40935    0.00116     0.41050
      H   24    0.10634      0.00000     0.39226    0.00139     0.39366
      H   25    0.09649      0.00000     0.40240    0.00111     0.40351
      H   26    0.09423      0.00000     0.40480    0.00097     0.40577
      H   27    0.09467      0.00000     0.40443    0.00089     0.40533
      H   28    0.10721      0.00000     0.39124    0.00154     0.39279
      H   29    0.10072      0.00000     0.39835    0.00093     0.39928
      H   30    0.09898      0.00000     0.39992    0.00109     0.40102
      H   31    0.09901      0.00000     0.40000    0.00099     0.40099
      H   32    0.07700      0.00000     0.42190    0.00110     0.42300
      H   33    0.09479      0.00000     0.40389    0.00133     0.40521
      H   34    0.09968      0.00000     0.39909    0.00123     0.40032
      H   35    0.18839      0.00000     0.30894    0.00266     0.31161
      H   36    0.19306      0.00000     0.30461    0.00233     0.30694
 =======================================================================
   * Total *    0.00000     18.99210    48.78887    0.21904    68.00000

 Normal termination of Gaussian 16 at Sat Dec 12 11:21:37 2020.
