 Gaussian 16, Revision A.03,

 -----------------------------------------------------------
 # opt freq B3LYP/6-31G(d) empiricaldispersion=gd3bj scf=xqc
 -----------------------------------------------------------

 -------------------------------
 CID_129737613_JID_4454_neutraal
 -------------------------------
 Symbolic Z-matrix:
 Charge =  0 Multiplicity = 1

 SCF Done:  E(RB3LYP) =  -592.564022952     A.U. after   16 cycles
 SCF Done:  E(RB3LYP) =  -592.583604762     A.U. after   15 cycles
 SCF Done:  E(RB3LYP) =  -592.584593735     A.U. after   15 cycles
 SCF Done:  E(RB3LYP) =  -592.577984472     A.U. after   17 cycles
 SCF Done:  E(RB3LYP) =  -592.584901586     A.U. after   14 cycles
 SCF Done:  E(RB3LYP) =  -592.584972170     A.U. after   14 cycles
 SCF Done:  E(RB3LYP) =  -592.586011321     A.U. after   14 cycles
 SCF Done:  E(RB3LYP) =  -592.586158858     A.U. after   15 cycles
 SCF Done:  E(RB3LYP) =  -592.586837743     A.U. after   14 cycles
 SCF Done:  E(RB3LYP) =  -592.586992286     A.U. after   13 cycles
 SCF Done:  E(RB3LYP) =  -592.587043657     A.U. after   12 cycles
 SCF Done:  E(RB3LYP) =  -592.587044646     A.U. after   10 cycles
 SCF Done:  E(RB3LYP) =  -592.587046712     A.U. after   11 cycles
 SCF Done:  E(RB3LYP) =  -592.587047985     A.U. after   11 cycles
 SCF Done:  E(RB3LYP) =  -592.587048418     A.U. after   10 cycles
 Optimization completed.
    -- Stationary point found.
 Normal termination of Gaussian 16 at Thu Dec 10 09:53:08 2020.

 --------------------------------------------------------------------
 #N Geom=AllCheck Guess=TCheck SCRF=Check GenChk RB3LYP/6-31G(d) Freq
 --------------------------------------------------------------------

 Structure from the checkpoint file:  "JID_4454.chk"
 -------------------------------
 CID_129737613_JID_4454_neutraal
 -------------------------------
 Charge =  0 Multiplicity = 1

 SCF Done:  E(RB3LYP) =  -592.587048418     A.U. after    1 cycles

  Exact polarizability: 172.014   6.050 118.421   3.477  -7.240  81.803
 Approx polarizability: 266.729  14.058 184.434   7.724 -16.327 142.680

                      1                      2                      3
                      A                      A                      A
 Frequencies --     26.7676                43.0082                58.3688
 Red. masses --      5.5849                 4.3634                 5.7740
 Frc consts  --      0.0024                 0.0048                 0.0116
 IR Inten    --      0.5703                 0.1626                 0.4330

                      4                      5                      6
                      A                      A                      A
 Frequencies --    123.5425               156.3301               217.2389
 Red. masses --      6.8398                 4.0811                 3.2383
 Frc consts  --      0.0615                 0.0588                 0.0900
 IR Inten    --      2.2800                 0.1253                 3.7364

                      7                      8                      9
                      A                      A                      A
 Frequencies --    238.6339               268.6668               339.2748
 Red. masses --      4.2497                 5.0364                 2.6926
 Frc consts  --      0.1426                 0.2142                 0.1826
 IR Inten    --      1.5412                 0.0922                 4.4333

                     10                     11                     12
                      A                      A                      A
 Frequencies --    352.3069               387.1033               421.3958
 Red. masses --      5.2220                 8.2704                 3.6135
 Frc consts  --      0.3819                 0.7302                 0.3781
 IR Inten    --      1.3513                 6.9001                 2.8163

                     13                     14                     15
                      A                      A                      A
 Frequencies --    435.5851               443.8614               492.2673
 Red. masses --      4.2187                 5.2338                 5.7979
 Frc consts  --      0.4716                 0.6075                 0.8278
 IR Inten    --      0.9666                 3.3070                 6.9157

                     16                     17                     18
                      A                      A                      A
 Frequencies --    559.2280               605.4230               609.0799
 Red. masses --      4.2860                 1.2095                 6.1755
 Frc consts  --      0.7897                 0.2612                 1.3498
 IR Inten    --      2.3252                37.8612                 2.1674

                     19                     20                     21
                      A                      A                      A
 Frequencies --    629.4135               647.9611               675.7379
 Red. masses --      2.4611                 1.8420                 6.5969
 Frc consts  --      0.5745                 0.4557                 1.7748
 IR Inten    --      6.2731                51.5063                 2.5402

                     22                     23                     24
                      A                      A                      A
 Frequencies --    721.7078               748.0797               759.7734
 Red. masses --      2.7335                 2.9421                 1.8088
 Frc consts  --      0.8389                 0.9701                 0.6152
 IR Inten    --      3.9406                19.9070                39.3377

                     25                     26                     27
                      A                      A                      A
 Frequencies --    811.9137               851.7062               870.1460
 Red. masses --      3.6621                 1.3678                 4.0945
 Frc consts  --      1.4223                 0.5846                 1.8266
 IR Inten    --      0.1407                 1.1656                11.4710

                     28                     29                     30
                      A                      A                      A
 Frequencies --    920.1110               934.1327               964.7138
 Red. masses --      1.3545                 4.7441                 1.2378
 Frc consts  --      0.6756                 2.4391                 0.6787
 IR Inten    --      1.2053                18.6830                 0.0491

                     31                     32                     33
                      A                      A                      A
 Frequencies --    989.8976              1040.7932              1064.2891
 Red. masses --      1.7472                 2.4480                 2.0640
 Frc consts  --      1.0087                 1.5624                 1.3774
 IR Inten    --      1.9132                 8.2363                 1.0765

                     34                     35                     36
                      A                      A                      A
 Frequencies --   1086.3455              1123.5751              1170.3389
 Red. masses --      6.1393                 2.3879                 1.1097
 Frc consts  --      4.2688                 1.7761                 0.8955
 IR Inten    --     26.8384                16.4865                 0.1091

                     37                     38                     39
                      A                      A                      A
 Frequencies --   1191.5135              1193.9666              1228.8581
 Red. masses --      1.7315                 1.1915                 2.6887
 Frc consts  --      1.4484                 1.0007                 2.3922
 IR Inten    --      9.3874                 3.5923                37.8338

                     40                     41                     42
                      A                      A                      A
 Frequencies --   1265.5570              1294.2548              1322.7107
 Red. masses --      1.6781                 1.6041                 3.0481
 Frc consts  --      1.5835                 1.5832                 3.1421
 IR Inten    --      8.5313                33.0922                24.0158

                     43                     44                     45
                      A                      A                      A
 Frequencies --   1352.2887              1384.4206              1406.6235
 Red. masses --      1.6081                 1.6783                 2.4481
 Frc consts  --      1.7326                 1.8952                 2.8539
 IR Inten    --     28.3577                32.4494                15.3201

                     46                     47                     48
                      A                      A                      A
 Frequencies --   1452.8582              1505.4267              1512.0709
 Red. masses --      5.4392                 1.1122                 1.5782
 Frc consts  --      6.7645                 1.4851                 2.1260
 IR Inten    --     94.1880                10.8914                57.9388

                     49                     50                     51
                      A                      A                      A
 Frequencies --   1516.8896              1534.9939              1654.9762
 Red. masses --      1.5627                 2.4594                 6.5205
 Frc consts  --      2.1185                 3.4142                10.5223
 IR Inten    --      2.7231               120.4042                 7.3402

                     52                     53                     54
                      A                      A                      A
 Frequencies --   1667.6005              2223.5561              2240.5111
 Red. masses --      6.6658                12.5123                 5.9144
 Frc consts  --     10.9216                36.4489                17.4926
 IR Inten    --     66.5487               604.2362                 1.5961

                     55                     56                     57
                      A                      A                      A
 Frequencies --   3022.3019              3051.5866              3078.9072
 Red. masses --      1.0695                 1.0649                 1.0944
 Frc consts  --      5.7558                 5.8426                 6.1125
 IR Inten    --     36.2184                22.3879                14.5181

                     58                     59                     60
                      A                      A                      A
 Frequencies --   3097.5768              3184.3431              3191.8287
 Red. masses --      1.0979                 1.0865                 1.0889
 Frc consts  --      6.2069                 6.4910                 6.5361
 IR Inten    --      5.8604                 5.4810                11.3633

                     61                     62                     63
                      A                      A                      A
 Frequencies --   3207.4051              3215.5954              3495.2876
 Red. masses --      1.0921                 1.0966                 1.1613
 Frc consts  --      6.6193                 6.6807                 8.3590
 IR Inten    --     29.7391                17.8590                52.0806

 - Thermochemistry -
 -------------------
 Temperature   298.150 Kelvin.  Pressure   1.00000 Atm.
 Atom     1 has atomic number  6 and mass  12.00000

 Molecular mass:   183.06841 amu.
 Principal axes and moments of inertia in atomic units:
                           1         2         3
     Eigenvalues --  1538.558683237.873994218.65807
           X            0.99987  -0.01599   0.00360
           Y            0.01605   0.99971  -0.01793
           Z           -0.00331   0.01799   0.99983
 This molecule is an asymmetric top.
 Rotational symmetry number  1.
 Warning -- assumption of classical behavior for rotation
           may cause significant error
 Rotational temperatures (Kelvin)      0.05630     0.02675     0.02053
 Rotational constants (GHZ):           1.17301     0.55738     0.42780
 Zero-point vibrational energy     462252.8 (Joules/Mol)
                                  110.48106 (Kcal/Mol)
 Warning -- explicit consideration of  18 degrees of freedom as
           vibrations may cause significant error
 Vibrational temperatures:     38.51    61.88    83.98   177.75   224.92
          (Kelvin)            312.56   343.34   386.55   488.14   506.89
                              556.96   606.29   626.71   638.62   708.26
                              804.60   871.07   876.33   905.59   932.27
                              972.24  1038.38  1076.32  1093.14  1168.16
                             1225.42  1251.95  1323.83  1344.01  1388.01
                             1424.24  1497.47  1531.27  1563.01  1616.57
                             1683.86  1714.32  1717.85  1768.05  1820.85
                             1862.14  1903.09  1945.64  1991.87  2023.82
                             2090.34  2165.97  2175.53  2182.47  2208.51
                             2381.14  2399.31  3199.20  3223.60  4348.42
                             4390.55  4429.86  4456.72  4581.56  4592.33
                             4614.74  4626.52  5028.94

 Zero-point correction=                           0.176063 (Hartree/Particle)
 Thermal correction to Energy=                    0.188219
 Thermal correction to Enthalpy=                  0.189163
 Thermal correction to Gibbs Free Energy=         0.136333
 Sum of electronic and zero-point Energies=           -592.410986
 Sum of electronic and thermal Energies=              -592.398830
 Sum of electronic and thermal Enthalpies=            -592.397886
 Sum of electronic and thermal Free Energies=         -592.450716

                     E (Thermal)             CV                S
                      KCal/Mol        Cal/Mol-Kelvin    Cal/Mol-Kelvin
 Total                  118.109             46.120            111.190
 Electronic               0.000              0.000              0.000
 Translational            0.889              2.981             41.520
 Rotational               0.889              2.981             31.419
 Vibrational            116.331             40.158             38.250
 Vibration     1          0.593              1.984              6.056
 Vibration     2          0.595              1.980              5.115
 Vibration     3          0.596              1.974              4.512
 Vibration     4          0.610              1.929              3.044
 Vibration     5          0.620              1.896              2.594
 Vibration     6          0.646              1.815              1.982
 Vibration     7          0.657              1.781              1.813
 Vibration     8          0.673              1.731              1.605
 Vibration     9          0.719              1.597              1.216
 Vibration    10          0.729              1.571              1.156
 Vibration    11          0.756              1.498              1.011
 Vibration    12          0.784              1.424              0.887
 Vibration    13          0.796              1.393              0.841
 Vibration    14          0.803              1.374              0.815
 Vibration    15          0.848              1.267              0.678
 Vibration    16          0.915              1.120              0.525
 Vibration    17          0.964              1.020              0.440
 Vibration    18          0.968              1.013              0.434

 Optimization completed.
    -- Stationary point found.
 Normal termination of Gaussian 16 at Thu Dec 10 09:59:23 2020.

 ----------------------------------------------------------------------
 # B3LYP/6-311++G(d,p) empiricaldispersion=gd3bj scf=xqc pop=npa geom=c
 heck
 ----------------------------------------------------------------------

 ---------------------------------------
 CID_129737613_JID_4454_Energie_neutraal
 ---------------------------------------
 Structure from the checkpoint file:  "JID_4454.chk"
 Charge =  0 Multiplicity = 1

 SCF Done:  E(RB3LYP) =  -592.748661863     A.U. after   19 cycles
 Normal termination of Gaussian 16 at Thu Dec 10 10:02:01 2020.

 ----------------------------------------------------------------------
 # B3LYP/6-311++G(d,p) empiricaldispersion=gd3bj scf=xqc pop=npa geom=c
 heck
 ----------------------------------------------------------------------

 -------------------------------------
 CID_129737613_JID_4454_Energie_kation
 -------------------------------------
 Structure from the checkpoint file:  "JID_4454.chk"
 Charge =  1 Multiplicity = 2

 SCF Done:  E(UB3LYP) =  -592.493264591     A.U. after   25 cycles
 Normal termination of Gaussian 16 at Thu Dec 10 10:06:54 2020.
 Gaussian 16:  ES64L-G16RevA.03 25-Dec-2016

 ----------------------------------------------------------------------
 # B3LYP/6-311++G(d,p) empiricaldispersion=gd3bj scf=xqc pop=npa geom=c
 heck
 ----------------------------------------------------------------------

 ------------------------------------
 CID_129737613_JID_4454_Energie_anion
 ------------------------------------
 Structure from the checkpoint file:  "JID_4454.chk"
 Charge = -1 Multiplicity = 2

                         Standard orientation:
 ---------------------------------------------------------------------
 Center     Atomic      Atomic             Coordinates (Angstroms)
 Number     Number       Type             X           Y           Z
 ---------------------------------------------------------------------
      1          6           0       -1.837786    2.446480    1.486722
      2          6           0       -1.618183    1.982556    0.394652
      3          6           0       -1.323461    1.376841   -0.911922
      4          7           0       -0.547220    0.146993   -0.837656
      5          6           0       -1.144082   -1.021529   -0.240888
      6          6           0       -2.436494   -1.210854   -0.085325
      7          8           0       -3.589528   -1.420667    0.058748
      8          6           0       -0.043561   -1.967261    0.233928
      9          6           0        1.163030   -1.048676    0.164886
     10          6           0        2.468846   -1.265455    0.574971
     11          6           0        3.418552   -0.249799    0.399369
     12          6           0        3.044420    0.961736   -0.183767
     13          6           0        1.731454    1.188415   -0.609735
     14          6           0        0.801060    0.165612   -0.437420
     15          1           0       -2.033235    2.857579    2.451018
     16          1           0       -2.257169    1.152985   -1.443359
     17          1           0       -0.775668    2.082832   -1.544594
     18          1           0       -0.228024   -2.352602    1.242719
     19          1           0        0.070923   -2.833259   -0.433539
     20          1           0        2.750385   -2.206670    1.040196
     21          1           0        4.442505   -0.403366    0.725539
     22          1           0        3.781223    1.750530   -0.306496
     23          1           0        1.453060    2.139963   -1.050702
 ---------------------------------------------------------------------

 SCF Done:  E(UB3LYP) =  -592.745985737     A.U. after   33 cycles
 SCF Done:  E(UB3LYP) =  -592.745985737     a.u. after    1 cycles

 The electronic state is 2-A.
 Alpha  occ. eigenvalues --  -18.98106 -14.20911 -10.11274 -10.08660 -10.06871
 Alpha  occ. eigenvalues --  -10.06463 -10.05967 -10.05931 -10.05669 -10.05473
 Alpha  occ. eigenvalues --  -10.05465 -10.05342 -10.05210 -10.04724  -0.91465
 Alpha  occ. eigenvalues --   -0.84113  -0.73394  -0.68276  -0.65005  -0.62552
 Alpha  occ. eigenvalues --   -0.61280  -0.57661  -0.53550  -0.48111  -0.47195
 Alpha  occ. eigenvalues --   -0.43224  -0.40264  -0.39837  -0.36729  -0.35961
 Alpha  occ. eigenvalues --   -0.33658  -0.33027  -0.32455  -0.30953  -0.30127
 Alpha  occ. eigenvalues --   -0.28330  -0.27825  -0.26187  -0.25719  -0.24577
 Alpha  occ. eigenvalues --   -0.23292  -0.22227  -0.19956  -0.17099  -0.16511
 Alpha  occ. eigenvalues --   -0.13571  -0.11191  -0.03063   0.05410
 Alpha virt. eigenvalues --    0.06991   0.07953   0.08624   0.09120   0.09728
 Alpha virt. eigenvalues --    0.10270   0.10899   0.11555   0.12391   0.12571
 Alpha virt. eigenvalues --    0.13343   0.13574   0.14214   0.14496   0.15496

  Beta  occ. eigenvalues --  -18.97518 -14.20766 -10.11244 -10.08648 -10.06460
  Beta  occ. eigenvalues --  -10.06266 -10.05966 -10.05910 -10.05573 -10.05449
  Beta  occ. eigenvalues --  -10.05448 -10.05321 -10.05195 -10.04815  -0.90363
  Beta  occ. eigenvalues --   -0.83927  -0.73329  -0.68156  -0.64911  -0.62415
  Beta  occ. eigenvalues --   -0.60921  -0.57536  -0.52905  -0.48017  -0.46998
  Beta  occ. eigenvalues --   -0.43144  -0.40058  -0.39476  -0.36665  -0.35762
  Beta  occ. eigenvalues --   -0.33574  -0.32400  -0.32229  -0.30804  -0.30035
  Beta  occ. eigenvalues --   -0.27794  -0.27190  -0.25337  -0.25186  -0.24253
  Beta  occ. eigenvalues --   -0.22674  -0.21076  -0.19814  -0.17006  -0.16467
  Beta  occ. eigenvalues --   -0.13522  -0.11117  -0.02805
  Beta virt. eigenvalues --    0.07421   0.08199   0.08789   0.09261   0.09804
  Beta virt. eigenvalues --    0.10349   0.11011   0.11353   0.12296   0.12635
  Beta virt. eigenvalues --    0.13168   0.13679   0.13840   0.14401   0.14833

 Mulliken charges and spin densities:
               1          2
     1  C   -1.991263   0.242988
     2  C    2.032315  -0.673851
     3  C   -0.204945  -0.044692
     4  N    0.516491  -0.060650
     5  C    0.489583   0.376927
     6  C   -0.104337  -0.135130
     7  O   -0.350892   0.179988
     8  C   -1.140856   0.045072
     9  C    0.951409   0.590378
    10  C   -1.029693   0.427572
    11  C    0.223775  -0.542183
    12  C    0.896497  -1.200556
    13  C   -0.340913  -0.215297
    14  C   -0.472901   0.188822
    15  H   -0.008747   0.142443
    16  H    0.062002   0.153178
    17  H   -0.292954   0.445115
    18  H    0.161804   0.003360
    19  H    0.146114  -0.002464
    20  H    0.122658   0.009822
    21  H   -0.275242   0.404267
    22  H   -0.297621   0.450820
    23  H   -0.092284   0.214069
 Sum of Mulliken charges =  -1.00000   1.00000

 Dipole moment (field-independent basis, Debye):
    X=              1.6517    Y=             -0.3424    Z=              0.4722  Tot=              1.7516
 Quadrupole moment (field-independent basis, Debye-Ang):
   XX=           -142.2059   YY=           -104.0561   ZZ=            -93.6436
   XY=            -11.5714   XZ=              0.6144   YZ=             -0.6146

 Summary of Natural Population Analysis:

                                       Natural Population
                Natural  -----------------------------------------------
    Atom  No    Charge         Core      Valence    Rydberg      Total
 -----------------------------------------------------------------------
      C    1   -0.12568      0.99927     2.12271    0.00371     3.12568
      C    2    0.00201      0.99936     1.99054    0.00809     2.99799
      C    3   -0.12312      0.99955     2.11180    0.01176     3.12312
      N    4   -0.21762      0.99964     2.70653    0.01145     3.71762
      C    5   -0.09325      0.99942     2.08240    0.01144     3.09325
      C    6    0.40727      0.99947     1.57444    0.01881     2.59273
      O    7   -0.20340      0.99988     3.19515    0.00838     4.20340
      C    8   -0.17804      0.99960     2.16985    0.00859     3.17804
      C    9   -0.02478      0.99947     2.01580    0.00951     3.02478
      C   10   -0.09872      0.99951     2.09009    0.00912     3.09872
      C   11   -0.12780      0.99957     2.11712    0.01110     3.12780
      C   12   -0.09718      0.99958     2.08769    0.00991     3.09718
      C   13   -0.12701      0.99952     2.11847    0.00903     3.12701
      C   14    0.09716      0.99943     1.89141    0.01199     2.90284
      H   15    0.10693      0.00000     0.39189    0.00118     0.39307
      H   16    0.11469      0.00000     0.38394    0.00137     0.38531
      H   17    0.10894      0.00000     0.38950    0.00155     0.39106
      H   18    0.09971      0.00000     0.39923    0.00106     0.40029
      H   19    0.09142      0.00000     0.40732    0.00125     0.40858
      H   20    0.09478      0.00000     0.40397    0.00125     0.40522
      H   21    0.09676      0.00000     0.40217    0.00107     0.40324
      H   22    0.09677      0.00000     0.40231    0.00092     0.40323
      H   23    0.10014      0.00000     0.39790    0.00195     0.39986
 =======================================================================
   * Total *   -0.00000     13.99326    33.85223    0.15451    48.00000

 Normal termination of Gaussian 16 at Thu Dec 10 10:13:38 2020.
