 Gaussian 16, Revision A.03,

 -----------------------------------------------------------
 # opt freq B3LYP/6-31G(d) empiricaldispersion=gd3bj scf=xqc
 -----------------------------------------------------------

 -------------------------------
 CID_130149977_JID_7174_neutraal
 -------------------------------
 Symbolic Z-matrix:
 Charge =  0 Multiplicity = 1

 SCF Done:  E(RB3LYP) =  -748.977612104     A.U. after   14 cycles
 SCF Done:  E(RB3LYP) =  -748.981880759     A.U. after   12 cycles
 SCF Done:  E(RB3LYP) =  -748.982721713     A.U. after   12 cycles
 SCF Done:  E(RB3LYP) =  -748.983204208     A.U. after   12 cycles
 SCF Done:  E(RB3LYP) =  -748.983430207     A.U. after   12 cycles
 SCF Done:  E(RB3LYP) =  -748.983621992     A.U. after   12 cycles
 SCF Done:  E(RB3LYP) =  -748.983910003     A.U. after   11 cycles
 SCF Done:  E(RB3LYP) =  -748.984194056     A.U. after   12 cycles
 SCF Done:  E(RB3LYP) =  -748.984683376     A.U. after   14 cycles
 SCF Done:  E(RB3LYP) =  -748.984204963     A.U. after   14 cycles
 SCF Done:  E(RB3LYP) =  -748.985821930     A.U. after    9 cycles
 SCF Done:  E(RB3LYP) =  -748.985822158     A.U. after    7 cycles
 SCF Done:  E(RB3LYP) =  -748.985822605     A.U. after    8 cycles
 SCF Done:  E(RB3LYP) =  -748.985822657     A.U. after    8 cycles
 Optimization completed.
    -- Stationary point found.
 Normal termination of Gaussian 16 at Sun Dec 13 16:24:22 2020.

 --------------------------------------------------------------------
 #N Geom=AllCheck Guess=TCheck SCRF=Check GenChk RB3LYP/6-31G(d) Freq
 --------------------------------------------------------------------

 Structure from the checkpoint file:  "JID_7174.chk"
 -------------------------------
 CID_130149977_JID_7174_neutraal
 -------------------------------
 Charge =  0 Multiplicity = 1

 SCF Done:  E(RB3LYP) =  -748.985822657     A.U. after    1 cycles

  Exact polarizability: 140.710  13.640 140.912  -3.826   0.597 143.299
 Approx polarizability: 189.087  26.508 218.067  -3.398  -1.819 249.843

                      1                      2                      3
                      A                      A                      A
 Frequencies --     34.1240                38.1245                47.2731
 Red. masses --      5.2152                 3.8112                 3.7604
 Frc consts  --      0.0036                 0.0033                 0.0050
 IR Inten    --      0.5618                 0.1775                 0.2233

                      4                      5                      6
                      A                      A                      A
 Frequencies --     74.3316               111.4823               115.7298
 Red. masses --      4.3292                 4.3697                 3.9372
 Frc consts  --      0.0141                 0.0320                 0.0311
 IR Inten    --      0.6475                 2.6449                 1.7642

                      7                      8                      9
                      A                      A                      A
 Frequencies --    155.1238               209.7265               264.9722
 Red. masses --      5.4435                 4.0356                 3.4497
 Frc consts  --      0.0772                 0.1046                 0.1427
 IR Inten    --      0.5165                 2.2679                 1.1922

                     10                     11                     12
                      A                      A                      A
 Frequencies --    305.5613               345.1164               375.0374
 Red. masses --      4.0792                 2.8853                 2.4275
 Frc consts  --      0.2244                 0.2025                 0.2012
 IR Inten    --      3.9530                 1.7089                 0.2931

                     13                     14                     15
                      A                      A                      A
 Frequencies --    396.6209               398.8952               416.1545
 Red. masses --      2.4003                 2.3676                 2.9537
 Frc consts  --      0.2225                 0.2220                 0.3014
 IR Inten    --      3.6604                 9.3160                 0.2658

                     16                     17                     18
                      A                      A                      A
 Frequencies --    430.2064               481.7698               502.1817
 Red. masses --      3.5488                 3.3397                 3.5352
 Frc consts  --      0.3870                 0.4567                 0.5253
 IR Inten    --     12.6397                 1.3235                 4.5274

                     19                     20                     21
                      A                      A                      A
 Frequencies --    550.3124               604.3029               616.6395
 Red. masses --      4.1586                 4.2703                 4.1121
 Frc consts  --      0.7420                 0.9188                 0.9213
 IR Inten    --      6.7646                 7.0931                10.9555

                     22                     23                     24
                      A                      A                      A
 Frequencies --    637.6668               697.6611               713.9000
 Red. masses --      6.2520                 2.5248                 1.7398
 Frc consts  --      1.4978                 0.7241                 0.5224
 IR Inten    --      0.3977                 2.2109                38.4157

                     25                     26                     27
                      A                      A                      A
 Frequencies --    762.6013               765.9706               779.1528
 Red. masses --      2.6911                 3.8605                 2.5396
 Frc consts  --      0.9221                 1.3345                 0.9084
 IR Inten    --      7.4114                24.2837                19.9179

                     28                     29                     30
                      A                      A                      A
 Frequencies --    791.7779               817.6031               836.9869
 Red. masses --      4.1781                 2.5653                 3.5729
 Frc consts  --      1.5432                 1.0103                 1.4747
 IR Inten    --      3.1098                 9.3770                12.4434

                     31                     32                     33
                      A                      A                      A
 Frequencies --    851.6731               861.7611               866.4212
 Red. masses --      1.3300                 1.2496                 1.6561
 Frc consts  --      0.5684                 0.5468                 0.7325
 IR Inten    --      7.7183                 0.8743                 8.0024

                     34                     35                     36
                      A                      A                      A
 Frequencies --    918.2235               935.4605               965.1260
 Red. masses --      2.2748                 1.5275                 2.7493
 Frc consts  --      1.1300                 0.7876                 1.5088
 IR Inten    --      5.9774                 7.9803                17.7346

                     37                     38                     39
                      A                      A                      A
 Frequencies --    970.1981               988.7926               998.0254
 Red. masses --      1.3635                 2.9106                 1.2861
 Frc consts  --      0.7562                 1.6767                 0.7548
 IR Inten    --      0.4557                28.1447                 0.1633

                     40                     41                     42
                      A                      A                      A
 Frequencies --   1010.7514              1023.8787              1033.9881
 Red. masses --      2.0298                 5.9345                 2.2197
 Frc consts  --      1.2218                 3.6655                 1.3982
 IR Inten    --      4.7878                 1.4822                 3.3419

                     43                     44                     45
                      A                      A                      A
 Frequencies --   1060.6994              1066.7434              1076.5179
 Red. masses --      2.2190                 1.8032                 1.5059
 Frc consts  --      1.4709                 1.2090                 1.0282
 IR Inten    --      2.8390                14.8059                16.8410

                     46                     47                     48
                      A                      A                      A
 Frequencies --   1083.7500              1092.1248              1124.3114
 Red. masses --      2.3752                 2.0345                 1.5063
 Frc consts  --      1.6436                 1.4297                 1.1218
 IR Inten    --     65.3605                28.0552                 3.1530

                     49                     50                     51
                      A                      A                      A
 Frequencies --   1129.4656              1145.0034              1166.2816
 Red. masses --      1.2275                 1.5362                 1.8753
 Frc consts  --      0.9226                 1.1866                 1.5029
 IR Inten    --     13.3207                36.6291                29.7330

                     52                     53                     54
                      A                      A                      A
 Frequencies --   1194.6504              1214.9269              1216.5353
 Red. masses --      1.0984                 1.7331                 1.3213
 Frc consts  --      0.9236                 1.5072                 1.1521
 IR Inten    --      0.0059                13.5920                 1.5228

                     55                     56                     57
                      A                      A                      A
 Frequencies --   1240.7202              1242.7239              1269.6177
 Red. masses --      1.9197                 2.3072                 1.3297
 Frc consts  --      1.7412                 2.0993                 1.2628
 IR Inten    --     14.2764                15.4371                12.2938

                     58                     59                     60
                      A                      A                      A
 Frequencies --   1280.5859              1288.6899              1318.6406
 Red. masses --      1.5032                 1.2828                 1.8034
 Frc consts  --      1.4524                 1.2552                 1.8476
 IR Inten    --    212.7483                 7.7647                69.1869

                     61                     62                     63
                      A                      A                      A
 Frequencies --   1366.7397              1370.5302              1374.1443
 Red. masses --      4.6591                 1.3270                 1.2700
 Frc consts  --      5.1277                 1.4685                 1.4130
 IR Inten    --      1.0984                 6.4020                 1.2646

                     64                     65                     66
                      A                      A                      A
 Frequencies --   1377.9749              1396.2891              1407.3045
 Red. masses --      1.4690                 1.6435                 1.2945
 Frc consts  --      1.6434                 1.8879                 1.5105
 IR Inten    --     28.1562                 5.0218                14.6707

                     67                     68                     69
                      A                      A                      A
 Frequencies --   1423.1038              1436.7194              1475.1464
 Red. masses --      1.4812                 1.5075                 2.2751
 Frc consts  --      1.7674                 1.8334                 2.9169
 IR Inten    --      1.9219                14.2776               173.3827

                     70                     71                     72
                      A                      A                      A
 Frequencies --   1505.0042              1507.4843              1518.2281
 Red. masses --      2.1073                 1.1116                 1.1841
 Frc consts  --      2.8122                 1.4884                 1.6081
 IR Inten    --      6.1366                 7.6146                 7.9234

                     73                     74                     75
                      A                      A                      A
 Frequencies --   1520.4436              1526.9780              1531.5585
 Red. masses --      1.1149                 1.2621                 1.1772
 Frc consts  --      1.5185                 1.7338                 1.6269
 IR Inten    --      7.2867                31.0437                48.0572

                     76                     77                     78
                      A                      A                      A
 Frequencies --   1549.0639              1648.0449              1668.4407
 Red. masses --      2.1974                 5.5634                 5.5658
 Frc consts  --      3.1067                 8.9028                 9.1286
 IR Inten    --      5.8087                 0.9047                 0.2178

                     79                     80                     81
                      A                      A                      A
 Frequencies --   1785.0249              3035.3651              3055.4134
 Red. masses --     10.5323                 1.0736                 1.0616
 Frc consts  --     19.7725                 5.8278                 5.8392
 IR Inten    --    307.2676                54.6608                32.9334

                     82                     83                     84
                      A                      A                      A
 Frequencies --   3059.0554              3096.4439              3105.2924
 Red. masses --      1.0705                 1.1027                 1.0580
 Frc consts  --      5.9022                 6.2295                 6.0111
 IR Inten    --     37.5167                38.4523                37.6074

                     85                     86                     87
                      A                      A                      A
 Frequencies --   3150.9049              3153.1268              3161.0487
 Red. masses --      1.0665                 1.0769                 1.1091
 Frc consts  --      6.2383                 6.3085                 6.5297
 IR Inten    --     13.0513                10.0033                 3.5291

                     88                     89                     90
                      A                      A                      A
 Frequencies --   3162.2324              3164.5477              3165.4195
 Red. masses --      1.0963                 1.0905                 1.0907
 Frc consts  --      6.4590                 6.4341                 6.4393
 IR Inten    --      9.5067                18.6706                23.4059

                     91                     92                     93
                      A                      A                      A
 Frequencies --   3178.7341              3187.3238              3198.0296
 Red. masses --      1.0861                 1.0878                 1.0921
 Frc consts  --      6.4661                 6.5111                 6.5808
 IR Inten    --      4.3696                 3.3351                28.0649

                     94                     95                     96
                      A                      A                      A
 Frequencies --   3208.9933              3223.6523              3232.6399
 Red. masses --      1.0963                 1.0939                 1.1161
 Frc consts  --      6.6516                 6.6978                 6.8717
 IR Inten    --     23.4521                 3.2360                11.3181

 - Thermochemistry -
 -------------------
 Temperature   298.150 Kelvin.  Pressure   1.00000 Atm.
 Atom     1 has atomic number  6 and mass  12.00000

 Molecular mass:   231.12593 amu.
 Principal axes and moments of inertia in atomic units:
                           1         2         3
     Eigenvalues --  2438.488194580.503855339.38607
           X            0.99995  -0.00924  -0.00380
           Y            0.00927   0.99992   0.00873
           Z            0.00372  -0.00876   0.99995
 This molecule is an asymmetric top.
 Rotational symmetry number  1.
 Warning -- assumption of classical behavior for rotation
           may cause significant error
 Rotational temperatures (Kelvin)      0.03552     0.01891     0.01622
 Rotational constants (GHZ):           0.74011     0.39400     0.33801
 Zero-point vibrational energy     764651.5 (Joules/Mol)
                                  182.75608 (Kcal/Mol)
 Warning -- explicit consideration of  21 degrees of freedom as
           vibrations may cause significant error
 Vibrational temperatures:     49.10    54.85    68.02   106.95   160.40
          (Kelvin)            166.51   223.19   301.75   381.24   439.63
                              496.55   539.60   570.65   573.92   598.75
                              618.97   693.16   722.53   791.78   869.46
                              887.21   917.46  1003.78  1027.14  1097.21
                             1102.06  1121.03  1139.19  1176.35  1204.24
                             1225.37  1239.88  1246.59  1321.12  1345.92
                             1388.60  1395.90  1422.65  1435.94  1454.25
                             1473.13  1487.68  1526.11  1534.81  1548.87
                             1559.27  1571.32  1617.63  1625.05  1647.40
                             1678.02  1718.84  1748.01  1750.32  1785.12
                             1788.00  1826.70  1842.48  1854.14  1897.23
                             1966.43  1971.89  1977.09  1982.60  2008.95
                             2024.80  2047.53  2067.12  2122.41  2165.37
                             2168.93  2184.39  2187.58  2196.98  2203.57
                             2228.76  2371.17  2400.51  2568.25  4367.21
                             4396.06  4401.30  4455.09  4467.82  4533.45
                             4536.65  4548.04  4549.75  4553.08  4554.33
                             4573.49  4585.85  4601.25  4617.03  4638.12
                             4651.05

 Zero-point correction=                           0.291240 (Hartree/Particle)
 Thermal correction to Energy=                    0.305606
 Thermal correction to Enthalpy=                  0.306550
 Thermal correction to Gibbs Free Energy=         0.248510
 Sum of electronic and zero-point Energies=           -748.694582
 Sum of electronic and thermal Energies=              -748.680217
 Sum of electronic and thermal Enthalpies=            -748.679273
 Sum of electronic and thermal Free Energies=         -748.737312

                     E (Thermal)             CV                S
                      KCal/Mol        Cal/Mol-Kelvin    Cal/Mol-Kelvin
 Total                  191.770             56.906            122.155
 Electronic               0.000              0.000              0.000
 Translational            0.889              2.981             42.215
 Rotational               0.889              2.981             32.456
 Vibrational            189.993             50.944             47.484
 Vibration     1          0.594              1.983              5.574
 Vibration     2          0.594              1.982              5.354
 Vibration     3          0.595              1.979              4.928
 Vibration     4          0.599              1.966              4.035
 Vibration     5          0.607              1.940              3.243
 Vibration     6          0.608              1.936              3.170
 Vibration     7          0.620              1.897              2.608
 Vibration     8          0.642              1.826              2.046
 Vibration     9          0.671              1.737              1.629
 Vibration    10          0.696              1.663              1.386
 Vibration    11          0.723              1.585              1.188
 Vibration    12          0.746              1.523              1.059
 Vibration    13          0.763              1.477              0.975
 Vibration    14          0.765              1.472              0.967
 Vibration    15          0.779              1.435              0.905
 Vibration    16          0.791              1.404              0.858
 Vibration    17          0.838              1.290              0.705
 Vibration    18          0.858              1.245              0.653
 Vibration    19          0.906              1.139              0.544
 Vibration    20          0.963              1.023              0.442
 Vibration    21          0.976              0.997              0.422

 Optimization completed.
    -- Stationary point found.
 Normal termination of Gaussian 16 at Sun Dec 13 16:38:28 2020.

 ----------------------------------------------------------------------
 # B3LYP/6-311++G(d,p) empiricaldispersion=gd3bj scf=xqc pop=npa geom=c
 heck
 ----------------------------------------------------------------------

 ---------------------------------------
 CID_130149977_JID_7174_Energie_neutraal
 ---------------------------------------
 Structure from the checkpoint file:  "JID_7174.chk"
 Charge =  0 Multiplicity = 1

 SCF Done:  E(RB3LYP) =  -749.187343269     A.U. after   14 cycles
 Normal termination of Gaussian 16 at Sun Dec 13 16:44:54 2020.

 ----------------------------------------------------------------------
 # B3LYP/6-311++G(d,p) empiricaldispersion=gd3bj scf=xqc pop=npa geom=c
 heck
 ----------------------------------------------------------------------

 -------------------------------------
 CID_130149977_JID_7174_Energie_kation
 -------------------------------------
 Structure from the checkpoint file:  "JID_7174.chk"
 Charge =  1 Multiplicity = 2

 SCF Done:  E(UB3LYP) =  -748.881214173     A.U. after   33 cycles
 SCF Done:  E(UB3LYP) =  -748.881214172     a.u. after    2 cycles
 Normal termination of Gaussian 16 at Sun Dec 13 17:21:54 2020.
 Gaussian 16:  ES64L-G16RevA.03 25-Dec-2016

 ----------------------------------------------------------------------
 # B3LYP/6-311++G(d,p) empiricaldispersion=gd3bj scf=xqc pop=npa geom=c
 heck
 ----------------------------------------------------------------------

 ------------------------------------
 CID_130149977_JID_7174_Energie_anion
 ------------------------------------
 Structure from the checkpoint file:  "JID_7174.chk"
 Charge = -1 Multiplicity = 2

                         Standard orientation:
 ---------------------------------------------------------------------
 Center     Atomic      Atomic             Coordinates (Angstroms)
 Number     Number       Type             X           Y           Z
 ---------------------------------------------------------------------
      1          6           0       -2.439826    1.032055    1.337802
      2          6           0       -2.921236   -0.323278    0.805321
      3          7           0       -2.028939   -0.805296   -0.248825
      4          6           0       -2.091132   -0.019192   -1.480522
      5          6           0       -1.874446    1.461538   -1.204522
      6          6           0       -2.064688    1.993566    0.206217
      7          6           0       -0.684888    1.924046   -0.407830
      8          6           0       -0.929574   -1.517705    0.134979
      9          8           0       -0.720937   -1.911575    1.273351
     10          8           0       -0.094798   -1.767422   -0.915246
     11          6           0        1.258237   -2.115629   -0.536348
     12          6           0        2.017918   -0.869123   -0.162072
     13          6           0        2.561231   -0.053286   -1.161213
     14          6           0        3.179633    1.152326   -0.834566
     15          6           0        3.259895    1.554643    0.500272
     16          6           0        2.723130    0.745842    1.503036
     17          6           0        2.103358   -0.460252    1.174380
     18          1           0       -1.576583    0.861530    1.991414
     19          1           0       -3.228444    1.473565    1.957963
     20          1           0       -2.957362   -1.071956    1.596477
     21          1           0       -3.920375   -0.229718    0.363224
     22          1           0       -3.086070   -0.168790   -1.921371
     23          1           0       -1.351515   -0.404542   -2.181134
     24          1           0       -2.201230    2.106476   -2.017887
     25          1           0       -2.502017    2.986069    0.280892
     26          1           0       -0.196062    2.847939   -0.703593
     27          1           0       -0.003218    1.172734   -0.018453
     28          1           0        1.225800   -2.835318    0.282959
     29          1           0        1.672810   -2.587981   -1.429068
     30          1           0        2.488401   -0.362851   -2.201023
     31          1           0        3.597524    1.777577   -1.618625
     32          1           0        3.740063    2.494753    0.757206
     33          1           0        2.782705    1.055986    2.542504
     34          1           0        1.658354   -1.079721    1.945860
 ---------------------------------------------------------------------

 SCF Done:  E(UB3LYP) =  -749.174356480     A.U. after   33 cycles
 SCF Done:  E(UB3LYP) =  -749.174356479     a.u. after    1 cycles

 The electronic state is 2-A.
 Alpha  occ. eigenvalues --  -19.06367 -18.99863 -14.24572 -10.21987 -10.13607
 Alpha  occ. eigenvalues --  -10.10741 -10.10661 -10.08652 -10.08254 -10.08171
 Alpha  occ. eigenvalues --  -10.08109 -10.08102 -10.08082 -10.07693 -10.07637
 Alpha  occ. eigenvalues --  -10.07332 -10.06197  -1.00998  -0.91873  -0.85408
 Alpha  occ. eigenvalues --   -0.76726  -0.75770  -0.68676  -0.66957  -0.65493
 Alpha  occ. eigenvalues --   -0.62549  -0.59573  -0.55364  -0.51721  -0.50479
 Alpha  occ. eigenvalues --   -0.48720  -0.47998  -0.45455  -0.43163  -0.42345
 Alpha  occ. eigenvalues --   -0.39558  -0.38765  -0.38011  -0.37362  -0.36064
 Alpha  occ. eigenvalues --   -0.35416  -0.35270  -0.33308  -0.33094  -0.32658
 Alpha  occ. eigenvalues --   -0.31318  -0.30648  -0.29392  -0.28461  -0.27456
 Alpha  occ. eigenvalues --   -0.26879  -0.26306  -0.25809  -0.24763  -0.24043
 Alpha  occ. eigenvalues --   -0.20591  -0.19054  -0.18634  -0.17703  -0.16410
 Alpha  occ. eigenvalues --   -0.16238  -0.14775   0.04222
 Alpha virt. eigenvalues --    0.06073   0.06691   0.07082   0.07551   0.07709
 Alpha virt. eigenvalues --    0.08251   0.08367   0.09201   0.09685   0.09958
 Alpha virt. eigenvalues --    0.10809   0.10948   0.11999   0.12333   0.12348

  Beta  occ. eigenvalues --  -19.06357 -18.99857 -14.24574 -10.21982 -10.13599
  Beta  occ. eigenvalues --  -10.10725 -10.10649 -10.08607 -10.08240 -10.08158
  Beta  occ. eigenvalues --  -10.08101 -10.08077 -10.08042 -10.07679 -10.07625
  Beta  occ. eigenvalues --  -10.07322 -10.06187  -1.00980  -0.91857  -0.85399
  Beta  occ. eigenvalues --   -0.76662  -0.75733  -0.68611  -0.66918  -0.65441
  Beta  occ. eigenvalues --   -0.62508  -0.59535  -0.55325  -0.51677  -0.50410
  Beta  occ. eigenvalues --   -0.48682  -0.47965  -0.45422  -0.43115  -0.42296
  Beta  occ. eigenvalues --   -0.39515  -0.38720  -0.37964  -0.37326  -0.36020
  Beta  occ. eigenvalues --   -0.35392  -0.35241  -0.33275  -0.33055  -0.32626
  Beta  occ. eigenvalues --   -0.31291  -0.30622  -0.29365  -0.28405  -0.27377
  Beta  occ. eigenvalues --   -0.26837  -0.26272  -0.25765  -0.24730  -0.24014
  Beta  occ. eigenvalues --   -0.20565  -0.19039  -0.18609  -0.17679  -0.16318
  Beta  occ. eigenvalues --   -0.16007  -0.14756
  Beta virt. eigenvalues --    0.06418   0.07003   0.07104   0.07619   0.07758
  Beta virt. eigenvalues --    0.08020   0.08861   0.08957   0.09586   0.09963
  Beta virt. eigenvalues --    0.10281   0.11299   0.11352   0.12386   0.12556

 Mulliken charges and spin densities:
               1          2
     1  C   -0.294554   0.080341
     2  C    0.126570  -0.511228
     3  N   -0.066772   0.079212
     4  C    0.830426  -1.306735
     5  C   -0.955295   1.096759
     6  C    0.879459  -0.907119
     7  C    0.286486  -0.761340
     8  C   -0.118190  -0.016269
     9  O   -0.301550   0.010405
    10  O   -0.021353   0.005447
    11  C    0.677377  -1.548678
    12  C   -0.054647   0.669094
    13  C   -0.184904   0.367736
    14  C    0.439692  -0.719435
    15  C    0.690813  -1.000709
    16  C   -0.296832   0.084997
    17  C   -0.811385   0.487508
    18  H    0.180820  -0.030354
    19  H   -0.232473   0.398282
    20  H    0.147180   0.046218
    21  H   -0.146886   0.305214
    22  H   -0.253126   0.405622
    23  H    0.132379   0.063395
    24  H   -0.671699   0.912421
    25  H   -0.482531   0.717071
    26  H   -0.056853   0.227516
    27  H    0.575186  -0.429445
    28  H    0.156776   0.036374
    29  H   -0.097645   0.269875
    30  H   -0.398148   0.580164
    31  H   -0.537131   0.720888
    32  H   -0.221576   0.376915
    33  H   -0.062305   0.233573
    34  H    0.142694   0.056280
 Sum of Mulliken charges =  -1.00000   1.00000

 Dipole moment (field-independent basis, Debye):
    X=              1.0968    Y=             -4.9001    Z=              3.0465  Tot=              5.8733
 Quadrupole moment (field-independent basis, Debye-Ang):
   XX=           -168.7122   YY=           -153.1644   ZZ=           -142.0520
   XY=              2.9724   XZ=              2.4012   YZ=              5.7935

 Summary of Natural Population Analysis:

                                       Natural Population
                Natural  -----------------------------------------------
    Atom  No    Charge         Core      Valence    Rydberg      Total
 -----------------------------------------------------------------------
      C    1   -0.19815      0.99961     2.18992    0.00862     3.19815
      C    2   -0.08140      0.99961     2.07137    0.01042     3.08140
      N    3   -0.26173      0.99964     2.75118    0.01091     3.76173
      C    4   -0.08188      0.99959     2.07091    0.01139     3.08188
      C    5   -0.11789      0.99958     2.10675    0.01156     3.11789
      C    6   -0.11325      0.99959     2.10245    0.01121     3.11325
      C    7   -0.19594      0.99959     2.18618    0.01017     3.19594
      C    8    0.46800      0.99964     1.50615    0.02622     2.53200
      O    9   -0.33965      0.99987     3.33541    0.00438     4.33965
      O   10   -0.28873      0.99986     3.28097    0.00789     4.28873
      C   11   -0.02072      0.99951     2.00846    0.01274     3.02072
      C   12   -0.03671      0.99949     2.02753    0.00969     3.03671
      C   13   -0.08957      0.99951     2.07939    0.01066     3.08957
      C   14   -0.10092      0.99956     2.09074    0.01061     3.10092
      C   15   -0.09251      0.99956     2.08275    0.01020     3.09251
      C   16   -0.10232      0.99956     2.09252    0.01024     3.10232
      C   17   -0.09671      0.99951     2.08875    0.00845     3.09671
      H   18    0.10130      0.00000     0.39723    0.00148     0.39870
      H   19    0.10204      0.00000     0.39689    0.00106     0.39796
      H   20    0.10944      0.00000     0.38964    0.00092     0.39056
      H   21    0.09353      0.00000     0.40525    0.00122     0.40647
      H   22    0.09471      0.00000     0.40388    0.00141     0.40529
      H   23    0.11254      0.00000     0.38578    0.00167     0.38746
      H   24    0.10796      0.00000     0.38969    0.00235     0.39204
      H   25    0.10641      0.00000     0.39150    0.00209     0.39359
      H   26    0.10556      0.00000     0.39304    0.00141     0.39444
      H   27    0.10468      0.00000     0.39240    0.00293     0.39532
      H   28    0.09992      0.00000     0.39895    0.00113     0.40008
      H   29    0.09540      0.00000     0.40347    0.00113     0.40460
      H   30    0.10249      0.00000     0.39615    0.00136     0.39751
      H   31    0.10318      0.00000     0.39534    0.00149     0.39682
      H   32    0.10119      0.00000     0.39777    0.00104     0.39881
      H   33    0.09976      0.00000     0.39946    0.00078     0.40024
      H   34    0.10997      0.00000     0.38902    0.00101     0.39003
 =======================================================================
   * Total *   -0.00000     16.99330    44.79687    0.20983    62.00000

 Normal termination of Gaussian 16 at Sun Dec 13 17:42:49 2020.
