 Gaussian 16, Revision A.03,

 -----------------------------------------------------------
 # opt freq B3LYP/6-31G(d) empiricaldispersion=gd3bj scf=xqc
 -----------------------------------------------------------

 ------------------------------
 CID_89557567_JID_9810_neutraal
 ------------------------------
 Symbolic Z-matrix:
 Charge =  0 Multiplicity = 1

 SCF Done:  E(RB3LYP) =  -1237.22969203     A.U. after   16 cycles
 SCF Done:  E(RB3LYP) =  -1237.23982333     A.U. after   13 cycles
 SCF Done:  E(RB3LYP) =  -1237.24117637     A.U. after   12 cycles
 SCF Done:  E(RB3LYP) =  -1237.24176248     A.U. after   13 cycles
 SCF Done:  E(RB3LYP) =  -1237.24229889     A.U. after   12 cycles
 SCF Done:  E(RB3LYP) =  -1237.24282165     A.U. after   11 cycles
 SCF Done:  E(RB3LYP) =  -1237.24310145     A.U. after   12 cycles
 SCF Done:  E(RB3LYP) =  -1237.24316411     A.U. after   11 cycles
 SCF Done:  E(RB3LYP) =  -1237.24320049     A.U. after   10 cycles
 SCF Done:  E(RB3LYP) =  -1237.24323468     A.U. after   11 cycles
 SCF Done:  E(RB3LYP) =  -1237.24324245     A.U. after   10 cycles
 SCF Done:  E(RB3LYP) =  -1237.24324925     A.U. after    9 cycles
 SCF Done:  E(RB3LYP) =  -1237.24325217     A.U. after    9 cycles
 SCF Done:  E(RB3LYP) =  -1237.24325253     A.U. after    7 cycles
 Optimization completed.
    -- Stationary point found.
 Normal termination of Gaussian 16 at Sun Dec 13 20:45:33 2020.

 --------------------------------------------------------------------
 #N Geom=AllCheck Guess=TCheck SCRF=Check GenChk RB3LYP/6-31G(d) Freq
 --------------------------------------------------------------------

 Structure from the checkpoint file:  "JID_9810.chk"
 ------------------------------
 CID_89557567_JID_9810_neutraal
 ------------------------------
 Charge =  0 Multiplicity = 1

 SCF Done:  E(RB3LYP) =  -1237.24325253     A.U. after    1 cycles

  Exact polarizability: 228.660  -3.785 164.989  -2.577  14.703 140.006
 Approx polarizability: 329.539  -8.891 276.569  -3.764  51.619 235.772

                      1                      2                      3
                      A                      A                      A
 Frequencies --     29.9810                52.2068                56.5162
 Red. masses --      6.7009                 5.7171                 4.2045
 Frc consts  --      0.0035                 0.0092                 0.0079
 IR Inten    --      0.5994                 0.9539                 1.1455

                      4                      5                      6
                      A                      A                      A
 Frequencies --     66.8854                76.8477               101.4806
 Red. masses --      3.0841                 2.3642                 4.1284
 Frc consts  --      0.0081                 0.0082                 0.0250
 IR Inten    --      1.7071                 5.1302                 0.6407

                      7                      8                      9
                      A                      A                      A
 Frequencies --    127.7406               133.5086               149.9190
 Red. masses --      3.2799                 3.8309                 1.3301
 Frc consts  --      0.0315                 0.0402                 0.0176
 IR Inten    --      3.1992                 0.4337                 0.9990

                     10                     11                     12
                      A                      A                      A
 Frequencies --    155.0821               166.2348               180.5870
 Red. masses --      1.3996                 1.3467                 2.0137
 Frc consts  --      0.0198                 0.0219                 0.0387
 IR Inten    --      1.2643                 0.0536                 0.2316

                     13                     14                     15
                      A                      A                      A
 Frequencies --    215.2118               219.1479               256.1459
 Red. masses --      5.9369                 5.0017                 4.7516
 Frc consts  --      0.1620                 0.1415                 0.1837
 IR Inten    --      1.6033                 1.3642                 8.1480

                     16                     17                     18
                      A                      A                      A
 Frequencies --    282.3175               301.0954               306.9757
 Red. masses --      5.0549                 3.9869                 6.8087
 Frc consts  --      0.2374                 0.2130                 0.3780
 IR Inten    --      5.2805                 1.2784                15.4070

                     19                     20                     21
                      A                      A                      A
 Frequencies --    382.8835               404.3180               434.0611
 Red. masses --      4.1941                 6.3956                 4.7748
 Frc consts  --      0.3623                 0.6160                 0.5300
 IR Inten    --      1.1960                 7.4412                 7.9858

                     22                     23                     24
                      A                      A                      A
 Frequencies --    464.1976               492.0914               504.4528
 Red. masses --      6.3065                 5.3506                 8.3047
 Frc consts  --      0.8007                 0.7634                 1.2451
 IR Inten    --     16.5169                 2.5053                 4.7119

                     25                     26                     27
                      A                      A                      A
 Frequencies --    526.3111               546.0175               560.1015
 Red. masses --      4.3845                 5.6972                 6.7675
 Frc consts  --      0.7156                 1.0008                 1.2509
 IR Inten    --      0.2289                 6.7293                11.1036

                     28                     29                     30
                      A                      A                      A
 Frequencies --    621.0183               636.0863               670.4239
 Red. masses --      4.3010                 7.6387                 3.2190
 Frc consts  --      0.9773                 1.8210                 0.8524
 IR Inten    --      1.2265                 3.4124                10.3509

                     31                     32                     33
                      A                      A                      A
 Frequencies --    683.2229               715.9675               743.2264
 Red. masses --      4.4416                 2.6716                 5.5324
 Frc consts  --      1.2216                 0.8069                 1.8005
 IR Inten    --      0.5250                 5.6163                 2.3350

                     34                     35                     36
                      A                      A                      A
 Frequencies --    753.6090               762.1804               786.4298
 Red. masses --      1.6053                 2.2089                 3.4565
 Frc consts  --      0.5372                 0.7561                 1.2595
 IR Inten    --     38.9720                35.9614                10.3043

                     37                     38                     39
                      A                      A                      A
 Frequencies --    829.4869               840.5022               859.6426
 Red. masses --      2.4294                 1.7026                 6.1112
 Frc consts  --      0.9848                 0.7087                 2.6608
 IR Inten    --     15.2524                28.0725                 0.7254

                     40                     41                     42
                      A                      A                      A
 Frequencies --    910.8677               951.0558               960.7448
 Red. masses --      1.4470                 4.9996                 4.4100
 Frc consts  --      0.7073                 2.6644                 2.3983
 IR Inten    --      0.1783                17.3099                28.9070

                     43                     44                     45
                      A                      A                      A
 Frequencies --    977.9223              1041.6446              1053.5591
 Red. masses --      1.2861                 3.0522                 6.2767
 Frc consts  --      0.7247                 1.9512                 4.1048
 IR Inten    --      1.8773                 9.0525                25.9492

                     46                     47                     48
                      A                      A                      A
 Frequencies --   1098.4356              1102.3010              1141.1053
 Red. masses --      1.8944                 3.7591                 2.5344
 Frc consts  --      1.3467                 2.6911                 1.9444
 IR Inten    --     40.1902               186.9415               156.2719

                     49                     50                     51
                      A                      A                      A
 Frequencies --   1160.8938              1183.4961              1186.8122
 Red. masses --      1.3399                 1.2518                 1.2390
 Frc consts  --      1.0639                 1.0330                 1.0282
 IR Inten    --      4.4289                 1.8161                 0.8175

                     52                     53                     54
                      A                      A                      A
 Frequencies --   1191.1997              1214.5363              1218.1827
 Red. masses --      1.1708                 2.6344                 1.7133
 Frc consts  --      0.9789                 2.2895                 1.4980
 IR Inten    --      2.5389                35.1706                 6.8628

                     55                     56                     57
                      A                      A                      A
 Frequencies --   1224.8294              1258.0440              1260.7369
 Red. masses --      1.4406                 3.3646                 1.9272
 Frc consts  --      1.2734                 3.1375                 1.8048
 IR Inten    --      6.4571                14.1083                76.5884

                     58                     59                     60
                      A                      A                      A
 Frequencies --   1269.4662              1275.9133              1315.3639
 Red. masses --      2.4373                 2.1603                 5.5816
 Frc consts  --      2.3142                 2.0720                 5.6898
 IR Inten    --     80.7424                52.7778                29.9660

                     61                     62                     63
                      A                      A                      A
 Frequencies --   1331.6523              1388.8959              1426.2202
 Red. masses --      8.4595                 3.0842                 5.1207
 Frc consts  --      8.8384                 3.5053                 6.1369
 IR Inten    --     11.3738                48.7798               217.5872

                     64                     65                     66
                      A                      A                      A
 Frequencies --   1479.4975              1482.0885              1490.8681
 Red. masses --      1.4523                 1.5725                 1.6667
 Frc consts  --      1.8730                 2.0352                 2.1826
 IR Inten    --     74.6025                89.0674                61.6258

                     67                     68                     69
                      A                      A                      A
 Frequencies --   1502.0262              1511.6682              1512.6301
 Red. masses --      1.3530                 1.0840                 1.4648
 Frc consts  --      1.7985                 1.4594                 1.9746
 IR Inten    --     96.2170                14.7307                 6.9597

                     70                     71                     72
                      A                      A                      A
 Frequencies --   1517.5586              1520.2321              1526.6307
 Red. masses --      1.0910                 1.2129                 1.4823
 Frc consts  --      1.4804                 1.6516                 2.0354
 IR Inten    --     12.4100                37.4432                34.1197

                     73                     74                     75
                      A                      A                      A
 Frequencies --   1532.3724              1534.5196              1541.1350
 Red. masses --      1.1314                 1.0703                 1.3746
 Frc consts  --      1.5653                 1.4850                 1.9236
 IR Inten    --      5.7612                 1.9114               308.8720

                     76                     77                     78
                      A                      A                      A
 Frequencies --   1626.7676              1652.4511              1668.4906
 Red. masses --      6.2252                 6.9784                 8.7897
 Frc consts  --      9.7063                11.2269                14.4168
 IR Inten    --     54.6522                33.7604               121.1899

                     79                     80                     81
                      A                      A                      A
 Frequencies --   1810.4759              3038.9180              3039.6605
 Red. masses --      9.1902                 1.0345                 1.0330
 Frc consts  --     17.7484                 5.6290                 5.6233
 IR Inten    --    663.7428                59.7258                31.0445

                     82                     83                     84
                      A                      A                      A
 Frequencies --   3104.4957              3105.8444              3106.1173
 Red. masses --      1.1040                 1.0968                 1.0416
 Frc consts  --      6.2690                 6.2336                 5.9208
 IR Inten    --     34.2843                23.8636                21.7794

                     85                     86                     87
                      A                      A                      A
 Frequencies --   3165.8411              3166.4603              3182.0913
 Red. masses --      1.1017                 1.1025                 1.1061
 Frc consts  --      6.5054                 6.5130                 6.5987
 IR Inten    --     23.1239                16.8589                 3.2909

                     88                     89                     90
                      A                      A                      A
 Frequencies --   3201.9293              3207.3545              3220.9359
 Red. masses --      1.0876                 1.1045                 1.0920
 Frc consts  --      6.5699                 6.6945                 6.6749
 IR Inten    --      6.3120                 6.3103                 5.8993

                     91                     92                     93
                      A                      A                      A
 Frequencies --   3227.6525              3270.4684              3598.4880
 Red. masses --      1.0958                 1.0930                 1.0776
 Frc consts  --      6.7262                 6.8882                 8.2216
 IR Inten    --      7.0857                 1.8104                67.8556

 - Thermochemistry -
 -------------------
 Temperature   298.150 Kelvin.  Pressure   1.00000 Atm.
 Atom     1 has atomic number  6 and mass  12.00000

 Molecular mass:   278.07251 amu.
 Principal axes and moments of inertia in atomic units:
                           1         2         3
     Eigenvalues --  3557.227886746.415997591.81644
           X            0.99999   0.00335   0.00164
           Y           -0.00318   0.99560  -0.09365
           Z           -0.00195   0.09365   0.99560
 This molecule is an asymmetric top.
 Rotational symmetry number  1.
 Warning -- assumption of classical behavior for rotation
           may cause significant error
 Rotational temperatures (Kelvin)      0.02435     0.01284     0.01141
 Rotational constants (GHZ):           0.50734     0.26751     0.23772
 Zero-point vibrational energy     680577.4 (Joules/Mol)
                                  162.66191 (Kcal/Mol)
 Warning -- explicit consideration of  27 degrees of freedom as
           vibrations may cause significant error
 Vibrational temperatures:     43.14    75.11    81.31    96.23   110.57
          (Kelvin)            146.01   183.79   192.09   215.70   223.13
                              239.17   259.82   309.64   315.30   368.54
                              406.19   433.21   441.67   550.88   581.72
                              624.52   667.88   708.01   725.80   757.24
                              785.60   805.86   893.51   915.19   964.59
                              983.01  1030.12  1069.34  1084.28  1096.61
                             1131.50  1193.45  1209.30  1236.83  1310.54
                             1368.36  1382.30  1407.01  1498.69  1515.84
                             1580.40  1585.97  1641.80  1670.27  1702.79
                             1707.56  1713.87  1747.45  1752.69  1762.26
                             1810.04  1813.92  1826.48  1835.75  1892.52
                             1915.95  1998.31  2052.01  2128.67  2132.39
                             2145.03  2161.08  2174.95  2176.34  2183.43
                             2187.27  2196.48  2204.74  2207.83  2217.35
                             2340.56  2377.51  2400.59  2604.87  4372.33
                             4373.39  4466.68  4468.62  4469.01  4554.94
                             4555.83  4578.32  4606.86  4614.67  4634.21
                             4643.87  4705.47  5177.42

 Zero-point correction=                           0.259218 (Hartree/Particle)
 Thermal correction to Energy=                    0.277530
 Thermal correction to Enthalpy=                  0.278475
 Thermal correction to Gibbs Free Energy=         0.211811
 Sum of electronic and zero-point Energies=          -1236.984034
 Sum of electronic and thermal Energies=             -1236.965722
 Sum of electronic and thermal Enthalpies=           -1236.964778
 Sum of electronic and thermal Free Energies=        -1237.031441

                     E (Thermal)             CV                S
                      KCal/Mol        Cal/Mol-Kelvin    Cal/Mol-Kelvin
 Total                  174.153             67.178            140.305
 Electronic               0.000              0.000              0.000
 Translational            0.889              2.981             42.767
 Rotational               0.889              2.981             33.565
 Vibrational            172.375             61.217             63.973
 Vibration     1          0.594              1.984              5.831
 Vibration     2          0.596              1.977              4.732
 Vibration     3          0.596              1.975              4.575
 Vibration     4          0.598              1.970              4.243
 Vibration     5          0.599              1.965              3.970
 Vibration     6          0.604              1.948              3.426
 Vibration     7          0.611              1.925              2.980
 Vibration     8          0.613              1.920              2.895
 Vibration     9          0.618              1.903              2.673
 Vibration    10          0.620              1.897              2.609
 Vibration    11          0.624              1.884              2.478
 Vibration    12          0.630              1.866              2.322
 Vibration    13          0.645              1.818              1.999
 Vibration    14          0.647              1.812              1.966
 Vibration    15          0.666              1.752              1.688
 Vibration    16          0.681              1.706              1.520
 Vibration    17          0.693              1.672              1.411
 Vibration    18          0.697              1.660              1.379
 Vibration    19          0.752              1.507              1.028
 Vibration    20          0.770              1.461              0.947
 Vibration    21          0.795              1.396              0.845
 Vibration    22          0.822              1.329              0.754
 Vibration    23          0.848              1.268              0.678
 Vibration    24          0.860              1.240              0.647
 Vibration    25          0.881              1.192              0.595
 Vibration    26          0.901              1.148              0.552
 Vibration    27          0.916              1.118              0.524

                           ! Non-Optimized Parameters !
 Normal termination of Gaussian 16 at Sun Dec 13 21:03:20 2020.

 ----------------------------------------------------------------------
 # B3LYP/6-311++G(d,p) empiricaldispersion=gd3bj scf=xqc pop=npa geom=c
 heck
 ----------------------------------------------------------------------

 --------------------------------------
 CID_89557567_JID_9810_Energie_neutraal
 --------------------------------------
 Structure from the checkpoint file:  "JID_9810.chk"
 Charge =  0 Multiplicity = 1

 SCF Done:  E(RB3LYP) =  -1237.50028934     A.U. after   16 cycles
 Normal termination of Gaussian 16 at Sun Dec 13 21:11:14 2020.

 ----------------------------------------------------------------------
 # B3LYP/6-311++G(d,p) empiricaldispersion=gd3bj scf=xqc pop=npa geom=c
 heck
 ----------------------------------------------------------------------

 ------------------------------------
 CID_89557567_JID_9810_Energie_kation
 ------------------------------------
 Structure from the checkpoint file:  "JID_9810.chk"
 Charge =  1 Multiplicity = 2

 SCF Done:  E(UB3LYP) =  -1237.19956113     A.U. after   33 cycles
 SCF Done:  E(UB3LYP) =  -1237.20315104     a.u. after   13 cycles
 Normal termination of Gaussian 16 at Mon Dec 14 00:52:54 2020.
 Gaussian 16:  ES64L-G16RevA.03 25-Dec-2016

 ----------------------------------------------------------------------
 # B3LYP/6-311++G(d,p) empiricaldispersion=gd3bj scf=xqc pop=npa geom=c
 heck
 ----------------------------------------------------------------------

 -----------------------------------
 CID_89557567_JID_9810_Energie_anion
 -----------------------------------
 Structure from the checkpoint file:  "JID_9810.chk"
 Charge = -1 Multiplicity = 2

                         Standard orientation:
 ---------------------------------------------------------------------
 Center     Atomic      Atomic             Coordinates (Angstroms)
 Number     Number       Type             X           Y           Z
 ---------------------------------------------------------------------
      1          6           0        0.607332   -1.054043   -1.829726
      2          7           0        1.074498   -0.317649   -0.647504
      3          6           0        0.171521    0.264369    0.244125
      4          6           0        0.595756    1.010422    1.296053
      5          6           0        2.005858    1.206903    1.557377
      6          8           0        2.503910    1.857076    2.462377
      7          7           0        2.819836    0.520128    0.637109
      8          6           0        2.440151   -0.240526   -0.437172
      9         16           0        3.580816   -0.998813   -1.396282
     10          6           0       -1.283840    0.041245    0.043875
     11          6           0       -1.826109   -1.245529    0.210145
     12          6           0       -3.197651   -1.468113    0.115995
     13          6           0       -4.050232   -0.394681   -0.141176
     14          6           0       -3.536640    0.889342   -0.309645
     15          6           0       -2.161423    1.110787   -0.215136
     16          8           0       -1.705776    2.399525   -0.335467
     17          6           0       -0.956704    2.681197   -1.518787
     18          8           0       -0.974889   -2.303875    0.433721
     19          6           0       -0.693862   -2.557204    1.815028
     20          1           0        1.225388   -0.774380   -2.681977
     21          1           0       -0.431831   -0.791691   -2.013056
     22          1           0        0.692882   -2.128644   -1.661638
     23          1           0       -0.118439    1.467725    1.965901
     24          1           0        3.819752    0.588758    0.790724
     25          1           0       -3.574193   -2.477584    0.242531
     26          1           0       -5.120605   -0.561068   -0.215852
     27          1           0       -4.181305    1.737860   -0.511148
     28          1           0       -0.030104    2.097693   -1.564119
     29          1           0       -1.557659    2.479148   -2.414468
     30          1           0       -0.707604    3.742565   -1.474617
     31          1           0       -0.211735   -1.691338    2.283524
     32          1           0       -1.613713   -2.800897    2.360750
     33          1           0       -0.015138   -3.411325    1.835940
 ---------------------------------------------------------------------

 SCF Done:  E(UB3LYP) =  -1237.52062441     A.U. after   24 cycles

 The electronic state is 2-A.
 Alpha  occ. eigenvalues --  -88.67202 -19.03296 -19.03266 -18.95190 -14.25734
 Alpha  occ. eigenvalues --  -14.22749 -10.16350 -10.13555 -10.11734 -10.11692
 Alpha  occ. eigenvalues --  -10.11511 -10.11372 -10.08838 -10.08387 -10.06209
 Alpha  occ. eigenvalues --  -10.06176 -10.06104 -10.06033 -10.02375  -7.76019
 Alpha  occ. eigenvalues --   -5.72433  -5.71843  -5.71550  -0.95071  -0.94842
 Alpha  occ. eigenvalues --   -0.91381  -0.87798  -0.80137  -0.74370  -0.68898
 Alpha  occ. eigenvalues --   -0.64850  -0.64003  -0.62177  -0.59733  -0.58111
 Alpha  occ. eigenvalues --   -0.57813  -0.54174  -0.49023  -0.48575  -0.48352
 Alpha  occ. eigenvalues --   -0.43479  -0.42596  -0.40867  -0.39553  -0.38380
 Alpha  occ. eigenvalues --   -0.37072  -0.36321  -0.35758  -0.35162  -0.34573
 Alpha  occ. eigenvalues --   -0.34299  -0.32305  -0.31771  -0.30586  -0.30391
 Alpha  occ. eigenvalues --   -0.28950  -0.28518  -0.28101  -0.26729  -0.25950
 Alpha  occ. eigenvalues --   -0.25403  -0.24615  -0.24059  -0.23050  -0.20285
 Alpha  occ. eigenvalues --   -0.18063  -0.17199  -0.14670  -0.13409  -0.13284
 Alpha  occ. eigenvalues --   -0.12670  -0.09830  -0.09634   0.03249
 Alpha virt. eigenvalues --    0.07234   0.08074   0.08440   0.08806   0.09600
 Alpha virt. eigenvalues --    0.09739   0.10292   0.10657   0.10921   0.11232
 Alpha virt. eigenvalues --    0.11553   0.12075   0.12425   0.13560   0.13871

  Beta  occ. eigenvalues --  -88.67197 -19.03290 -19.03268 -18.95048 -14.25772
  Beta  occ. eigenvalues --  -14.22567 -10.16234 -10.13477 -10.11716 -10.11671
  Beta  occ. eigenvalues --  -10.11395 -10.11250 -10.08835 -10.07946 -10.06240
  Beta  occ. eigenvalues --  -10.06074 -10.06073 -10.05865 -10.02192  -7.76015
  Beta  occ. eigenvalues --   -5.72436  -5.71826  -5.71546  -0.95016  -0.94799
  Beta  occ. eigenvalues --   -0.91107  -0.87582  -0.79845  -0.74120  -0.68328
  Beta  occ. eigenvalues --   -0.64695  -0.63715  -0.62018  -0.59606  -0.58078
  Beta  occ. eigenvalues --   -0.57554  -0.53641  -0.48843  -0.48354  -0.48202
  Beta  occ. eigenvalues --   -0.43304  -0.42487  -0.40564  -0.39324  -0.38234
  Beta  occ. eigenvalues --   -0.36972  -0.36180  -0.35664  -0.34908  -0.34528
  Beta  occ. eigenvalues --   -0.34170  -0.32199  -0.31576  -0.30354  -0.29916
  Beta  occ. eigenvalues --   -0.28788  -0.28344  -0.27988  -0.26510  -0.25727
  Beta  occ. eigenvalues --   -0.25264  -0.24453  -0.23451  -0.22648  -0.19045
  Beta  occ. eigenvalues --   -0.17928  -0.17113  -0.13853  -0.13131  -0.12895
  Beta  occ. eigenvalues --   -0.11857  -0.09758  -0.08783
  Beta virt. eigenvalues --    0.07186   0.07892   0.08396   0.08836   0.09521
  Beta virt. eigenvalues --    0.09836   0.10031   0.10301   0.10792   0.11187
  Beta virt. eigenvalues --    0.11522   0.12038   0.12250   0.12439   0.13552

 Mulliken charges and spin densities:
               1          2
     1  C   -0.368904   0.004059
     2  N    0.327567  -0.037815
     3  C    0.854341   0.240577
     4  C   -0.534954   0.253409
     5  C   -0.049167   0.043477
     6  O   -0.407850   0.047676
     7  N   -0.222541   0.069479
     8  C    0.331923   0.067986
     9  S   -0.922318   0.019978
    10  C    0.289114   0.059510
    11  C   -0.468867   0.106168
    12  C   -0.289375  -0.078137
    13  C   -0.183905   0.153583
    14  C   -0.236571  -0.040421
    15  C   -0.650757   0.073946
    16  O   -0.090346  -0.001546
    17  C   -0.306898  -0.000359
    18  O   -0.063255   0.005559
    19  C   -0.255158  -0.038961
    20  H    0.126711  -0.000609
    21  H    0.135074  -0.002192
    22  H    0.211073  -0.000041
    23  H    0.195866  -0.006841
    24  H    0.332362  -0.004286
    25  H    0.148227   0.009714
    26  H    0.132870  -0.014268
    27  H    0.148546   0.004626
    28  H    0.179748  -0.000029
    29  H    0.110980   0.004368
    30  H    0.134171   0.008199
    31  H    0.160093   0.024232
    32  H    0.106077   0.017964
    33  H    0.126125   0.010996
 Sum of Mulliken charges =  -1.00000   1.00000

 Dipole moment (field-independent basis, Debye):
    X=             -5.9801    Y=             -1.7174    Z=             -2.4034  Tot=              6.6699
 Quadrupole moment (field-independent basis, Debye-Ang):
   XX=           -171.0442   YY=           -139.4624   ZZ=           -141.1542
   XY=              0.1442   XZ=             -0.5061   YZ=            -16.8213

 Summary of Natural Population Analysis:

                                       Natural Population
                Natural  -----------------------------------------------
    Atom  No    Charge         Core      Valence    Rydberg      Total
 -----------------------------------------------------------------------
      C    1   -0.17633      0.99964     2.16993    0.00676     3.17633
      N    2   -0.23151      0.99957     2.72067    0.01127     3.73151
      C    3    0.18336      0.99946     1.80271    0.01448     2.81664
      C    4   -0.13858      0.99945     2.12862    0.01050     3.13858
      C    5    0.33507      0.99963     1.64438    0.02093     2.66493
      O    6   -0.31713      0.99988     3.31072    0.00654     4.31713
      N    7   -0.28529      0.99962     2.77362    0.01205     3.78529
      C    8    0.17168      0.99965     1.81107    0.01760     2.82832
      S    9   -0.16161      4.99959     3.14786    0.01416     8.16161
      C   10   -0.06129      0.99939     2.05111    0.01079     3.06129
      C   11    0.18447      0.99933     1.80200    0.01420     2.81553
      C   12   -0.14097      0.99951     2.13305    0.00841     3.14097
      C   13   -0.05674      0.99959     2.04896    0.00820     3.05674
      C   14   -0.13568      0.99952     2.12769    0.00847     3.13568
      C   15    0.18384      0.99933     1.80236    0.01448     2.81616
      O   16   -0.28997      0.99986     3.28007    0.01005     4.28997
      C   17   -0.09265      0.99959     2.08545    0.00760     3.09265
      O   18   -0.29659      0.99986     3.28661    0.01011     4.29659
      C   19   -0.09495      0.99960     2.08741    0.00795     3.09495
      H   20    0.10457      0.00000     0.39429    0.00114     0.39543
      H   21    0.10305      0.00000     0.39620    0.00075     0.39695
      H   22    0.10441      0.00000     0.39457    0.00102     0.39559
      H   23    0.10862      0.00000     0.39042    0.00097     0.39138
      H   24    0.20147      0.00000     0.29683    0.00170     0.29853
      H   25    0.09925      0.00000     0.39929    0.00145     0.40075
      H   26    0.09135      0.00000     0.40771    0.00095     0.40865
      H   27    0.09972      0.00000     0.39879    0.00149     0.40028
      H   28    0.08946      0.00000     0.40935    0.00119     0.41054
      H   29    0.07635      0.00000     0.42247    0.00118     0.42365
      H   30    0.08687      0.00000     0.41231    0.00082     0.41313
      H   31    0.09222      0.00000     0.40629    0.00148     0.40778
      H   32    0.07683      0.00000     0.42157    0.00159     0.42317
      H   33    0.08671      0.00000     0.41217    0.00112     0.41329
 =======================================================================
   * Total *    0.00000     22.99206    49.77655    0.23140    73.00000

 Normal termination of Gaussian 16 at Mon Dec 14 01:08:22 2020.
