 Gaussian 16, Revision A.03,

 -----------------------------------------------------------
 # opt freq B3LYP/6-31G(d) empiricaldispersion=gd3bj scf=xqc
 -----------------------------------------------------------

 -------------------------------
 CID_152202212_JID_1228_neutraal
 -------------------------------
 Symbolic Z-matrix:
 Charge =  0 Multiplicity = 1

 SCF Done:  E(RB3LYP) =  -538.975494781     A.U. after   13 cycles
 SCF Done:  E(RB3LYP) =  -538.986508969     A.U. after   12 cycles
 SCF Done:  E(RB3LYP) =  -538.986575148     A.U. after   12 cycles
 SCF Done:  E(RB3LYP) =  -538.986639253     A.U. after   13 cycles
 SCF Done:  E(RB3LYP) =  -538.987778136     A.U. after   12 cycles
 SCF Done:  E(RB3LYP) =  -538.987897623     A.U. after   11 cycles
 SCF Done:  E(RB3LYP) =  -538.987905278     A.U. after   10 cycles
 SCF Done:  E(RB3LYP) =  -538.987969160     A.U. after   10 cycles
 SCF Done:  E(RB3LYP) =  -538.987980018     A.U. after    8 cycles
 SCF Done:  E(RB3LYP) =  -538.987980030     A.U. after    7 cycles
 SCF Done:  E(RB3LYP) =  -538.987980449     A.U. after    7 cycles
 SCF Done:  E(RB3LYP) =  -538.987980568     A.U. after    7 cycles
 Optimization completed.
    -- Stationary point found.

 1\1\GINC-NODE106\FOpt\RB3LYP\6-31G(d)\C8H14O3\VSC10255\08-Dec-2020\0\\
 # opt freq B3LYP/6-31G(d) empiricaldispersion=gd3bj scf=xqc\\CID_15220
 2212_JID_1228_neutraal\\0,1\C,1.036594629,-0.0536245618,-0.1088626549\
 C,0.1845357946,-0.6491044458,1.014528943\C,0.354947548,0.0367631314,2.
 3779074963\C,-0.1007906992,1.4817711175,2.5389908182\C,0.214053232,2.1
 542670337,3.9008332344\C,0.5195069818,3.4790912542,3.1565825644\C,0.62
 71630469,2.6661949107,1.8417645328\O,-1.5603437975,1.5662418161,2.4227
 139954\C,-2.1503735075,1.7082571287,1.2399911775\O,-1.6425577554,1.771

 Normal termination of Gaussian 16 at Tue Dec  8 19:30:36 2020.

 --------------------------------------------------------------------
 #N Geom=AllCheck Guess=TCheck SCRF=Check GenChk RB3LYP/6-31G(d) Freq
 --------------------------------------------------------------------

 Structure from the checkpoint file:  "JID_1228.chk"
 -------------------------------
 CID_152202212_JID_1228_neutraal
 -------------------------------
 Charge =  0 Multiplicity = 1

 SCF Done:  E(RB3LYP) =  -538.987980568     A.U. after    1 cycles

  Exact polarizability:  93.304   2.331  93.212   2.868  -0.367  80.013
 Approx polarizability: 119.751   3.612 129.210  10.000  -3.250 120.825

                      1                      2                      3
                      A                      A                      A
 Frequencies --     60.3255                85.5112               107.9786
 Red. masses --      5.8924                 3.0891                 3.9837
 Frc consts  --      0.0126                 0.0133                 0.0274
 IR Inten    --      0.6002                 0.4834                 0.8261

                      4                      5                      6
                      A                      A                      A
 Frequencies --    130.4591               144.2640               202.2343
 Red. masses --      2.7196                 2.5717                 4.7921
 Frc consts  --      0.0273                 0.0315                 0.1155
 IR Inten    --      0.5274                 0.0715                 3.0590

                      7                      8                      9
                      A                      A                      A
 Frequencies --    209.1234               254.7251               278.6547
 Red. masses --      1.5736                 2.5727                 1.6237
 Frc consts  --      0.0405                 0.0984                 0.0743
 IR Inten    --      0.9229                 0.7363                 1.1401

                     10                     11                     12
                      A                      A                      A
 Frequencies --    345.2013               384.0453               402.7027
 Red. masses --      2.3673                 2.4905                 3.4520
 Frc consts  --      0.1662                 0.2164                 0.3298
 IR Inten    --      3.0089                 2.8518                 5.2107

                     13                     14                     15
                      A                      A                      A
 Frequencies --    471.3730               506.2799               575.0476
 Red. masses --      3.0969                 2.7007                 1.1019
 Frc consts  --      0.4054                 0.4079                 0.2147
 IR Inten    --     12.0475                14.1057                95.0479

                     16                     17                     18
                      A                      A                      A
 Frequencies --    634.5278               679.5541               739.5976
 Red. masses --      3.0567                 2.2715                 2.0135
 Frc consts  --      0.7251                 0.6180                 0.6489
 IR Inten    --     14.9791                 5.6597                 5.7679

                     19                     20                     21
                      A                      A                      A
 Frequencies --    770.1038               787.1898               802.5316
 Red. masses --      1.4518                 6.1532                 1.3855
 Frc consts  --      0.5073                 2.2465                 0.5257
 IR Inten    --     13.1520                32.1994                 8.6732

                     22                     23                     24
                      A                      A                      A
 Frequencies --    854.4987               884.0916               897.7688
 Red. masses --      2.9943                 2.2909                 1.5080
 Frc consts  --      1.2882                 1.0550                 0.7161
 IR Inten    --      1.4258                 4.3370                 2.1606

                     25                     26                     27
                      A                      A                      A
 Frequencies --    906.1803               952.4893               981.6785
 Red. masses --      2.1227                 2.3818                 2.6595
 Frc consts  --      1.0270                 1.2731                 1.5100
 IR Inten    --      0.8302                 1.1002                 0.8530

                     28                     29                     30
                      A                      A                      A
 Frequencies --   1028.9067              1048.4860              1068.3909
 Red. masses --      1.5526                 3.6263                 1.6486
 Frc consts  --      0.9684                 2.3488                 1.1087
 IR Inten    --      4.3857                 4.2608                 2.8861

                     31                     32                     33
                      A                      A                      A
 Frequencies --   1076.3588              1105.2080              1157.5772
 Red. masses --      1.8273                 1.9213                 2.5431
 Frc consts  --      1.2473                 1.3828                 2.0078
 IR Inten    --      1.5780                16.6308                 9.4377

                     34                     35                     36
                      A                      A                      A
 Frequencies --   1184.8785              1215.0683              1223.9510
 Red. masses --      2.2984                 1.5436                 1.7957
 Frc consts  --      1.9011                 1.3427                 1.5849
 IR Inten    --     64.1483                23.2550               107.3718

                     37                     38                     39
                      A                      A                      A
 Frequencies --   1232.1431              1262.8861              1275.8626
 Red. masses --      1.8897                 1.4162                 1.2876
 Frc consts  --      1.6903                 1.3308                 1.2350
 IR Inten    --    445.0120                 2.8699                 2.7333

                     40                     41                     42
                      A                      A                      A
 Frequencies --   1292.3986              1305.4266              1324.6443
 Red. masses --      1.3979                 1.2904                 1.5061
 Frc consts  --      1.3757                 1.2956                 1.5571
 IR Inten    --      0.0919                 6.2850                11.3866

                     43                     44                     45
                      A                      A                      A
 Frequencies --   1344.1010              1401.4028              1411.5710
 Red. masses --      1.5036                 1.3811                 1.5921
 Frc consts  --      1.6005                 1.5980                 1.8691
 IR Inten    --      8.3724                10.2510                13.0558

                     46                     47                     48
                      A                      A                      A
 Frequencies --   1433.6945              1443.3545              1496.7492
 Red. masses --      2.8115                 1.2940                 1.0898
 Frc consts  --      3.4048                 1.5883                 1.4384
 IR Inten    --    240.3380                 8.9643                 3.5164

                     49                     50                     51
                      A                      A                      A
 Frequencies --   1499.7292              1512.6340              1520.9292
 Red. masses --      1.0870                 1.0820                 1.0547
 Frc consts  --      1.4405                 1.4586                 1.4375
 IR Inten    --      3.3093                 3.4123                 1.7697

                     52                     53                     54
                      A                      A                      A
 Frequencies --   1529.7164              1534.6008              1548.0387
 Red. masses --      1.0685                 1.1259                 1.0563
 Frc consts  --      1.4731                 1.5622                 1.4914
 IR Inten    --      5.8706                 0.8024                 9.4749

                     55                     56                     57
                      A                      A                      A
 Frequencies --   1829.9388              3027.5922              3042.3760
 Red. masses --      9.5623                 1.0616                 1.0586
 Frc consts  --     18.8663                 5.7331                 5.7731
 IR Inten    --    334.9836                16.9258                35.8593

                     58                     59                     60
                      A                      A                      A
 Frequencies --   3046.7236              3065.7286              3082.0041
 Red. masses --      1.0525                 1.1016                 1.0588
 Frc consts  --      5.7564                 6.1000                 5.9257
 IR Inten    --     31.6730                26.7489                28.8305

                     61                     62                     63
                      A                      A                      A
 Frequencies --   3085.9295              3094.6450              3095.7926
 Red. masses --      1.0600                 1.0850                 1.0786
 Frc consts  --      5.9474                 6.1224                 6.0904
 IR Inten    --     38.9291                 1.7591                31.1002

                     64                     65                     66
                      A                      A                      A
 Frequencies --   3109.5973              3129.8087              3145.7139
 Red. masses --      1.0975                 1.1072                 1.1077
 Frc consts  --      6.2525                 6.3904                 6.4581
 IR Inten    --     57.8839                10.7149                38.7824

                     67                     68                     69
                      A                      A                      A
 Frequencies --   3159.0977              3179.5476              3740.3065
 Red. masses --      1.0973                 1.1002                 1.0647
 Frc consts  --      6.4521                 6.5530                 8.7755
 IR Inten    --     18.3748                 8.9424                81.8704

 - Thermochemistry -
 -------------------
 Temperature   298.150 Kelvin.  Pressure   1.00000 Atm.
 Atom     1 has atomic number  6 and mass  12.00000

 Molecular mass:   158.09429 amu.
 Principal axes and moments of inertia in atomic units:
                           1         2         3
     Eigenvalues --  1566.426521631.839562445.61622
           X            0.35747   0.93391  -0.00586
           Y            0.93393  -0.35746   0.00177
           Z            0.00044   0.00611   0.99998
 This molecule is an asymmetric top.
 Rotational symmetry number  1.
 Warning -- assumption of classical behavior for rotation
           may cause significant error
 Rotational temperatures (Kelvin)      0.05529     0.05308     0.03542
 Rotational constants (GHZ):           1.15214     1.10596     0.73795
 Zero-point vibrational energy     570389.3 (Joules/Mol)
                                  136.32632 (Kcal/Mol)
 Warning -- explicit consideration of  15 degrees of freedom as
           vibrations may cause significant error
 Vibrational temperatures:     86.79   123.03   155.36   187.70   207.56
          (Kelvin)            290.97   300.88   366.49   400.92   496.67
                              552.56   579.40   678.20   728.42   827.37
                              912.94   977.73  1064.12  1108.01  1132.59
                             1154.66  1229.43  1272.01  1291.69  1303.79
                             1370.42  1412.42  1480.37  1508.54  1537.18
                             1548.64  1590.15  1665.50  1704.78  1748.21
                             1760.99  1772.78  1817.01  1835.68  1859.47
                             1878.22  1905.87  1933.86  2016.31  2030.94
                             2062.77  2076.67  2153.49  2157.78  2176.34
                             2188.28  2200.92  2207.95  2227.28  2632.87
                             4356.03  4377.30  4383.56  4410.90  4434.32
                             4439.96  4452.50  4454.16  4474.02  4503.10
                             4525.98  4545.24  4574.66  5381.47

 Zero-point correction=                           0.217250 (Hartree/Particle)
 Thermal correction to Energy=                    0.228654
 Thermal correction to Enthalpy=                  0.229598
 Thermal correction to Gibbs Free Energy=         0.180061
 Sum of electronic and zero-point Energies=           -538.770731
 Sum of electronic and thermal Energies=              -538.759327
 Sum of electronic and thermal Enthalpies=            -538.758383
 Sum of electronic and thermal Free Energies=         -538.807920

                     E (Thermal)             CV                S
                      KCal/Mol        Cal/Mol-Kelvin    Cal/Mol-Kelvin
 Total                  143.482             42.876            104.260
 Electronic               0.000              0.000              0.000
 Translational            0.889              2.981             41.083
 Rotational               0.889              2.981             30.215
 Vibrational            141.705             36.915             32.962
 Vibration     1          0.597              1.973              4.447
 Vibration     2          0.601              1.959              3.760
 Vibration     3          0.606              1.943              3.305
 Vibration     4          0.612              1.923              2.939
 Vibration     5          0.616              1.909              2.747
 Vibration     6          0.639              1.837              2.113
 Vibration     7          0.642              1.827              2.051
 Vibration     8          0.665              1.755              1.698
 Vibration     9          0.679              1.713              1.542
 Vibration    10          0.724              1.585              1.188
 Vibration    11          0.753              1.504              1.023
 Vibration    12          0.768              1.464              0.953
 Vibration    13          0.828              1.314              0.734
 Vibration    14          0.862              1.236              0.643
 Vibration    15          0.931              1.085              0.495

                           ! Non-Optimized Parameters !

 1\1\GINC-NODE106\Freq\RB3LYP\6-31G(d)\C8H14O3\VSC10255\08-Dec-2020\0\\
 #N Geom=AllCheck Guess=TCheck SCRF=Check GenChk RB3LYP/6-31G(d) Freq\\
 CID_152202212_JID_1228_neutraal\\0,1\C,1.036594629,-0.0536245618,-0.10
 88626549\C,0.1845357946,-0.6491044458,1.014528943\C,0.354947548,0.0367
 631314,2.3779074963\C,-0.1007906992,1.4817711175,2.5389908182\C,0.2140
 53232,2.1542670337,3.9008332344\C,0.5195069818,3.4790912542,3.15658256
 44\C,0.6271630469,2.6661949107,1.8417645328\O,-1.5603437975,1.56624181
 61,2.4227139954\C,-2.1503735075,1.7082571287,1.2399911775\O,-1.6425577

 Normal termination of Gaussian 16 at Tue Dec  8 19:36:20 2020.

 ----------------------------------------------------------------------
 # B3LYP/6-311++G(d,p) empiricaldispersion=gd3bj scf=xqc pop=npa geom=c
 heck
 ----------------------------------------------------------------------

 ---------------------------------------
 CID_152202212_JID_1228_Energie_neutraal
 ---------------------------------------
 Structure from the checkpoint file:  "JID_1228.chk"
 Charge =  0 Multiplicity = 1

 SCF Done:  E(RB3LYP) =  -539.152083373     A.U. after   14 cycles
 Normal termination of Gaussian 16 at Tue Dec  8 19:38:52 2020.

 ----------------------------------------------------------------------
 # B3LYP/6-311++G(d,p) empiricaldispersion=gd3bj scf=xqc pop=npa geom=c
 heck
 ----------------------------------------------------------------------

 -------------------------------------
 CID_152202212_JID_1228_Energie_kation
 -------------------------------------
 Structure from the checkpoint file:  "JID_1228.chk"
 Charge =  1 Multiplicity = 2

 SCF Done:  E(UB3LYP) =  -538.790865826     A.U. after   25 cycles
 Normal termination of Gaussian 16 at Tue Dec  8 19:45:08 2020.
 Gaussian 16:  ES64L-G16RevA.03 25-Dec-2016

 ------------------------------------
 CID_152202212_JID_1228_Energie_anion
 ------------------------------------
 Structure from the checkpoint file:  "JID_1228.chk"
 Charge = -1 Multiplicity = 2

                         Standard orientation:
 ---------------------------------------------------------------------
 Center     Atomic      Atomic             Coordinates (Angstroms)
 Number     Number       Type             X           Y           Z
 ---------------------------------------------------------------------
      1          6           0        2.169528   -1.720202    0.733038
      2          6           0        1.857310   -1.220634   -0.679605
      3          6           0        0.378827   -1.323959   -1.081684
      4          6           0       -0.647054   -0.470008   -0.346818
      5          6           0       -2.134245   -0.713853   -0.713965
      6          6           0       -2.516493   -0.516030    0.775036
      7          6           0       -1.024652   -0.719854    1.141099
      8          8           0       -0.428751    0.949184   -0.645461
      9          6           0        0.417960    1.681881    0.071040
     10          8           0        1.114761    1.342891    1.005070
     11          8           0        0.383490    2.942472   -0.416586
     12          1           0        1.722911   -1.068780    1.486907
     13          1           0        3.251301   -1.735762    0.906961
     14          1           0        1.794223   -2.740695    0.883704
     15          1           0        2.204451   -0.187599   -0.785526
     16          1           0        2.430224   -1.810602   -1.407403
     17          1           0        0.277422   -1.085805   -2.149437
     18          1           0        0.054423   -2.367400   -0.967010
     19          1           0       -2.551413   -0.024982   -1.452765
     20          1           0       -2.288974   -1.743349   -1.051283
     21          1           0       -3.236610   -1.218680    1.202703
     22          1           0       -2.855910    0.503322    0.979020
     23          1           0       -0.806035   -1.758247    1.406677
     24          1           0       -0.571341   -0.065584    1.884149
     25          1           0        1.012237    3.443745    0.130268
 ---------------------------------------------------------------------

 SCF Done:  E(UB3LYP) =  -539.136542063     A.U. after   30 cycles

 The electronic state is 2-A.
 Alpha  occ. eigenvalues --  -19.06635 -19.06239 -19.00580 -10.24438 -10.13958
 Alpha  occ. eigenvalues --  -10.06805 -10.06730 -10.06608 -10.06558 -10.06049
 Alpha  occ. eigenvalues --  -10.04734  -1.03944  -0.95080  -0.91799  -0.75361
 Alpha  occ. eigenvalues --   -0.68231  -0.61659  -0.57019  -0.56546  -0.51809
 Alpha  occ. eigenvalues --   -0.47764  -0.45311  -0.41101  -0.39977  -0.38902
 Alpha  occ. eigenvalues --   -0.37365  -0.35629  -0.34261  -0.33055  -0.31777
 Alpha  occ. eigenvalues --   -0.30730  -0.29072  -0.28168  -0.26125  -0.25417
 Alpha  occ. eigenvalues --   -0.24405  -0.23721  -0.23063  -0.22746  -0.21720
 Alpha  occ. eigenvalues --   -0.20426  -0.18904  -0.18246   0.04730
 Alpha virt. eigenvalues --    0.06505   0.07503   0.08640   0.09142   0.10053
 Alpha virt. eigenvalues --    0.10401   0.10893   0.11884   0.12321   0.12779
 Alpha virt. eigenvalues --    0.13606   0.14156   0.14431   0.15233   0.15535

  Beta  occ. eigenvalues --  -19.06610 -19.06176 -19.00567 -10.24432 -10.13952
  Beta  occ. eigenvalues --  -10.06787 -10.06710 -10.06590 -10.06537 -10.06034
  Beta  occ. eigenvalues --  -10.04715  -1.03883  -0.94989  -0.91752  -0.75331
  Beta  occ. eigenvalues --   -0.68197  -0.61617  -0.56961  -0.56491  -0.51737
  Beta  occ. eigenvalues --   -0.47698  -0.45224  -0.41064  -0.39927  -0.38873
  Beta  occ. eigenvalues --   -0.37328  -0.35582  -0.34232  -0.33010  -0.31743
  Beta  occ. eigenvalues --   -0.30695  -0.29029  -0.28135  -0.26090  -0.25382
  Beta  occ. eigenvalues --   -0.24368  -0.23689  -0.23030  -0.22705  -0.21683
  Beta  occ. eigenvalues --   -0.20397  -0.18873  -0.18211
  Beta virt. eigenvalues --    0.07202   0.08076   0.08409   0.08988   0.09755
  Beta virt. eigenvalues --    0.10241   0.10780   0.11201   0.12240   0.12818
  Beta virt. eigenvalues --    0.12902   0.13668   0.14396   0.14822   0.15390

 Mulliken charges and spin densities:
               1          2
     1  C    0.595045  -1.193918
     2  C   -0.839740   0.703005
     3  C    1.913827  -2.368084
     4  C   -1.959794   2.088999
     5  C    1.078308  -1.265242
     6  C   -0.303404   0.011217
     7  C    0.701954  -1.009334
     8  O    0.034226  -0.041687
     9  C    0.314193  -0.362313
    10  O   -0.295083   0.011003
    11  O   -0.208684   0.037413
    12  H    0.035450   0.146375
    13  H   -0.180509   0.311243
    14  H   -0.047580   0.169853
    15  H   -0.015000   0.189016
    16  H   -0.248368   0.411762
    17  H    0.012094   0.145618
    18  H   -0.405353   0.571285
    19  H    0.090858   0.066004
    20  H   -0.358619   0.510028
    21  H   -0.306969   0.468780
    22  H    0.056276   0.072588
    23  H   -0.152320   0.323456
    24  H    0.169703   0.011490
    25  H   -0.680510   0.991442
 Sum of Mulliken charges =  -1.00000   1.00000

 Dipole moment (field-independent basis, Debye):
    X=             -1.1605    Y=             -0.3751    Z=             -0.0360  Tot=              1.2201
 Quadrupole moment (field-independent basis, Debye-Ang):
   XX=           -108.0889   YY=           -134.0104   ZZ=            -94.6190
   XY=             -9.9097   XZ=             -0.4867   YZ=             -1.3287

 Summary of Natural Population Analysis:

                                       Natural Population
                Natural  -----------------------------------------------
    Atom  No    Charge         Core      Valence    Rydberg      Total
 -----------------------------------------------------------------------
      C    1   -0.28648      0.99966     2.28249    0.00433     3.28648
      C    2   -0.18908      0.99963     2.18154    0.00791     3.18908
      C    3   -0.20187      0.99955     2.19170    0.01063     3.20187
      C    4    0.14380      0.99948     1.83995    0.01677     2.85620
      C    5   -0.18974      0.99959     2.18122    0.00893     3.18974
      C    6   -0.19201      0.99965     2.18405    0.00831     3.19201
      C    7   -0.20220      0.99958     2.19398    0.00865     3.20220
      O    8   -0.28682      0.99983     3.27625    0.01074     4.28682
      C    9    0.51373      0.99975     1.45807    0.02845     2.48627
      O   10   -0.33040      0.99986     3.32465    0.00589     4.33040
      O   11   -0.33888      0.99987     3.33273    0.00628     4.33888
      H   12    0.10626      0.00000     0.39231    0.00143     0.39374
      H   13    0.09567      0.00000     0.40338    0.00096     0.40433
      H   14    0.09295      0.00000     0.40573    0.00132     0.40705
      H   15    0.09831      0.00000     0.40024    0.00145     0.40169
      H   16    0.09440      0.00000     0.40439    0.00121     0.40560
      H   17    0.10261      0.00000     0.39612    0.00126     0.39739
      H   18    0.10338      0.00000     0.39428    0.00234     0.39662
      H   19    0.10258      0.00000     0.39632    0.00111     0.39742
      H   20    0.10348      0.00000     0.39455    0.00196     0.39652
      H   21    0.09774      0.00000     0.40089    0.00137     0.40226
      H   22    0.09622      0.00000     0.40251    0.00127     0.40378
      H   23    0.10638      0.00000     0.39197    0.00165     0.39362
      H   24    0.11196      0.00000     0.38690    0.00114     0.38804
      H   25    0.24802      0.00000     0.22498    0.02700     0.25198
 =======================================================================
   * Total *   -0.00000     10.99645    31.84119    0.16236    43.00000

 Normal termination of Gaussian 16 at Tue Dec  8 19:53:18 2020.
