 Gaussian 16, Revision A.03,

 -----------------------------------------------------------
 # opt freq B3LYP/6-31G(d) empiricaldispersion=gd3bj scf=xqc
 -----------------------------------------------------------

 -------------------------------
 CID_64041230_JID_10567_neutraal
 -------------------------------
 Symbolic Z-matrix:
 Charge =  0 Multiplicity = 1

 SCF Done:  E(RB3LYP) =  -1638.93171632     A.U. after   15 cycles
 SCF Done:  E(RB3LYP) =  -1638.88448195     A.U. after   14 cycles
 SCF Done:  E(RB3LYP) =  -1638.93549371     A.U. after   12 cycles
 SCF Done:  E(RB3LYP) =  -1638.93855080     A.U. after   11 cycles
 SCF Done:  E(RB3LYP) =  -1638.94233567     A.U. after   11 cycles
 SCF Done:  E(RB3LYP) =  -1638.94343790     A.U. after   12 cycles
 SCF Done:  E(RB3LYP) =  -1638.94409276     A.U. after   14 cycles
 SCF Done:  E(RB3LYP) =  -1638.94489677     A.U. after   12 cycles
 SCF Done:  E(RB3LYP) =  -1638.94577306     A.U. after   12 cycles
 SCF Done:  E(RB3LYP) =  -1638.94706141     A.U. after   13 cycles
 SCF Done:  E(RB3LYP) =  -1638.95301221     A.U. after   10 cycles
 SCF Done:  E(RB3LYP) =  -1638.95301723     A.U. after   10 cycles
 SCF Done:  E(RB3LYP) =  -1638.95301896     A.U. after    8 cycles
 SCF Done:  E(RB3LYP) =  -1638.95301939     A.U. after    8 cycles
 SCF Done:  E(RB3LYP) =  -1638.95301950     A.U. after    7 cycles
 Optimization completed.
    -- Stationary point found.
 Normal termination of Gaussian 16 at Sat Dec 12 16:57:20 2020.

 --------------------------------------------------------------------
 #N Geom=AllCheck Guess=TCheck SCRF=Check GenChk RB3LYP/6-31G(d) Freq
 --------------------------------------------------------------------

 Structure from the checkpoint file:  "JID_10567.chk"
 -------------------------------
 CID_64041230_JID_10567_neutraal
 -------------------------------
 Charge =  0 Multiplicity = 1

 SCF Done:  E(RB3LYP) =  -1638.95301950     A.U. after    1 cycles

  Exact polarizability: 183.914  35.534 179.843   3.700  -4.556 181.018
 Approx polarizability: 270.788  66.227 276.426   8.766  -1.982 318.150

                      1                      2                      3
                      A                      A                      A
 Frequencies --     26.6052                30.8819                51.1344
 Red. masses --      4.4781                 4.6286                 4.0415
 Frc consts  --      0.0019                 0.0026                 0.0062
 IR Inten    --      1.8060                 0.9582                 1.1215

                      4                      5                      6
                      A                      A                      A
 Frequencies --     67.9573                69.6286                81.5219
 Red. masses --      4.2245                 4.7979                 6.3711
 Frc consts  --      0.0115                 0.0137                 0.0249
 IR Inten    --      0.7850                 0.9177                 0.0757

                      7                      8                      9
                      A                      A                      A
 Frequencies --    101.9946               121.3555               126.3415
 Red. masses --      3.8096                 4.8953                 4.5214
 Frc consts  --      0.0233                 0.0425                 0.0425
 IR Inten    --      4.2725                 5.7772                 5.8387

                     10                     11                     12
                      A                      A                      A
 Frequencies --    164.2254               175.1473               206.2484
 Red. masses --      6.0606                 3.3609                 5.3293
 Frc consts  --      0.0963                 0.0607                 0.1336
 IR Inten    --      2.8056                 0.4606                 4.2521

                     13                     14                     15
                      A                      A                      A
 Frequencies --    224.0553               227.5528               230.1667
 Red. masses --      3.3728                 5.9505                 3.7278
 Frc consts  --      0.0998                 0.1815                 0.1164
 IR Inten    --      3.3512                 3.7063                 4.1161

                     16                     17                     18
                      A                      A                      A
 Frequencies --    254.4527               302.0151               306.9299
 Red. masses --      5.8293                 2.1730                 1.3009
 Frc consts  --      0.2224                 0.1168                 0.0722
 IR Inten    --      5.5585                 8.9365                11.9743

                     19                     20                     21
                      A                      A                      A
 Frequencies --    313.2412               325.2450               359.4350
 Red. masses --      3.8838                 2.3089                 4.2128
 Frc consts  --      0.2245                 0.1439                 0.3207
 IR Inten    --      7.5139                 0.3640                 1.7414

                     22                     23                     24
                      A                      A                      A
 Frequencies --    389.0519               413.9859               423.8128
 Red. masses --      5.8116                 3.2715                 3.6042
 Frc consts  --      0.5183                 0.3303                 0.3814
 IR Inten    --      1.6230                 7.7919                13.8595

                     25                     26                     27
                      A                      A                      A
 Frequencies --    430.4660               452.5471               457.1765
 Red. masses --      3.1176                 3.1809                 3.9080
 Frc consts  --      0.3404                 0.3838                 0.4813
 IR Inten    --      3.4003                11.2040                 5.0481

                     28                     29                     30
                      A                      A                      A
 Frequencies --    498.4957               509.2655               524.6554
 Red. masses --      4.0685                 2.4627                 3.6479
 Frc consts  --      0.5957                 0.3763                 0.5916
 IR Inten    --     33.3483                 3.1782                24.9572

                     31                     32                     33
                      A                      A                      A
 Frequencies --    537.6539               554.4779               604.4032
 Red. masses --      4.3946                 1.8517                 2.9563
 Frc consts  --      0.7485                 0.3354                 0.6363
 IR Inten    --     66.6933               148.5650                99.2400

                     34                     35                     36
                      A                      A                      A
 Frequencies --    618.8558               667.0328               690.8047
 Red. masses --      3.3426                 4.3932                 2.4530
 Frc consts  --      0.7542                 1.1517                 0.6897
 IR Inten    --      9.1349                12.8417                11.2672

                     37                     38                     39
                      A                      A                      A
 Frequencies --    703.7138               707.3488               722.9597
 Red. masses --      1.4980                 3.8883                 2.2074
 Frc consts  --      0.4371                 1.1462                 0.6798
 IR Inten    --     95.3010                44.9139               124.6792

                     40                     41                     42
                      A                      A                      A
 Frequencies --    779.5490               785.9329               831.7474
 Red. masses --      1.3893                 1.1778                 1.6245
 Frc consts  --      0.4974                 0.4286                 0.6622
 IR Inten    --     45.8926                14.1939                28.1495

                     43                     44                     45
                      A                      A                      A
 Frequencies --    841.7084               849.2988               861.2814
 Red. masses --      1.4835                 1.7947                 1.4041
 Frc consts  --      0.6193                 0.7627                 0.6137
 IR Inten    --     28.1336                13.0140                 1.8424

                     46                     47                     48
                      A                      A                      A
 Frequencies --    876.3391               896.1530               915.5103
 Red. masses --      2.2073                 2.9842                 2.6550
 Frc consts  --      0.9987                 1.4120                 1.3111
 IR Inten    --      7.6480                30.3845                25.1955

                     49                     50                     51
                      A                      A                      A
 Frequencies --    916.3755               935.5177               959.8750
 Red. masses --      3.2351                 1.9788                 1.2554
 Frc consts  --      1.6006                 1.0204                 0.6815
 IR Inten    --     21.4167                13.5319                 0.5634

                     52                     53                     54
                      A                      A                      A
 Frequencies --    980.2677              1014.2785              1019.9515
 Red. masses --      2.9815                 6.1287                 2.1888
 Frc consts  --      1.6880                 3.7148                 1.3416
 IR Inten    --      4.8941                 4.6652                14.8399

                     55                     56                     57
                      A                      A                      A
 Frequencies --   1047.9927              1069.8775              1087.1080
 Red. masses --      3.0327                 1.4020                 3.1502
 Frc consts  --      1.9624                 0.9455                 2.1935
 IR Inten    --      9.8553                32.5255               116.7232

                     58                     59                     60
                      A                      A                      A
 Frequencies --   1088.2580              1096.6152              1099.2329
 Red. masses --      2.4058                 1.7012                 1.6762
 Frc consts  --      1.6787                 1.2054                 1.1933
 IR Inten    --     29.4410                 7.9449                 3.1185

                     61                     62                     63
                      A                      A                      A
 Frequencies --   1109.1290              1119.2405              1142.8010
 Red. masses --      2.1230                 2.7370                 1.4251
 Frc consts  --      1.5388                 2.0201                 1.0966
 IR Inten    --     12.1314                26.3328                32.9025

                     64                     65                     66
                      A                      A                      A
 Frequencies --   1150.9693              1156.4988              1176.9615
 Red. masses --      1.8568                 1.3128                 1.1776
 Frc consts  --      1.4492                 1.0345                 0.9611
 IR Inten    --     26.0407                 1.0062                19.1976

                     67                     68                     69
                      A                      A                      A
 Frequencies --   1204.8556              1208.7398              1218.3809
 Red. masses --      1.1176                 1.3733                 2.2300
 Frc consts  --      0.9559                 1.1822                 1.9504
 IR Inten    --      6.3092                 0.1793                16.6401

                     70                     71                     72
                      A                      A                      A
 Frequencies --   1250.8448              1251.5818              1274.4404
 Red. masses --      1.1711                 1.2511                 3.2346
 Frc consts  --      1.0795                 1.1547                 3.0954
 IR Inten    --      4.5778                36.2493                70.7065

                     73                     74                     75
                      A                      A                      A
 Frequencies --   1290.0008              1317.5413              1336.2123
 Red. masses --      2.1898                 1.9534                 1.4630
 Frc consts  --      2.1470                 1.9979                 1.5390
 IR Inten    --     71.1825                37.1881                13.7891

                     76                     77                     78
                      A                      A                      A
 Frequencies --   1352.5225              1357.4201              1359.9067
 Red. masses --      1.6637                 1.7615                 1.5281
 Frc consts  --      1.7932                 1.9123                 1.6650
 IR Inten    --      1.7137                34.1190                22.8368

                     79                     80                     81
                      A                      A                      A
 Frequencies --   1370.0877              1397.7614              1419.4218
 Red. masses --      2.4854                 1.2909                 1.2961
 Frc consts  --      2.7488                 1.4860                 1.5385
 IR Inten    --      7.7509                20.2999                 5.5682

                     82                     83                     84
                      A                      A                      A
 Frequencies --   1428.4443              1466.6314              1481.3210
 Red. masses --      1.2954                 1.1676                 1.0907
 Frc consts  --      1.5573                 1.4797                 1.4102
 IR Inten    --     11.4248                28.1194                 8.9020

                     85                     86                     87
                      A                      A                      A
 Frequencies --   1489.4500              1490.3428              1498.0173
 Red. masses --      1.0912                 1.0884                 2.8069
 Frc consts  --      1.4263                 1.4243                 3.7112
 IR Inten    --     22.7457                 7.7828                18.4700

                     88                     89                     90
                      A                      A                      A
 Frequencies --   1517.0851              1522.1953              1530.2151
 Red. masses --      1.1055                 1.0799                 1.3052
 Frc consts  --      1.4990                 1.4742                 1.8007
 IR Inten    --      2.8235                 3.0002                 9.7391

                     91                     92                     93
                      A                      A                      A
 Frequencies --   1536.5828              1632.8599              1657.6552
 Red. masses --      2.3895                 5.6824                 4.1145
 Frc consts  --      3.3241                 8.9265                 6.6613
 IR Inten    --     50.5301                28.6856                90.2104

                     94                     95                     96
                      A                      A                      A
 Frequencies --   1693.8804              3022.2265              3076.0332
 Red. masses --      1.2325                 1.0641                 1.0748
 Frc consts  --      2.0836                 5.7262                 5.9918
 IR Inten    --    134.1963                50.2258                 5.7125

                     97                     98                     99
                      A                      A                      A
 Frequencies --   3081.8660              3091.3972              3092.8228
 Red. masses --      1.0665                 1.0852                 1.0670
 Frc consts  --      5.9683                 6.1106                 6.0133
 IR Inten    --      2.5982                51.1866                11.7831

                    100                    101                    102
                      A                      A                      A
 Frequencies --   3132.7654              3148.4964              3158.3490
 Red. masses --      1.1021                 1.1008                 1.0535
 Frc consts  --      6.3726                 6.4291                 6.1914
 IR Inten    --      8.9805                 1.9563                11.0616

                    103                    104                    105
                      A                      A                      A
 Frequencies --   3160.8040              3167.7450              3180.8257
 Red. masses --      1.0985                 1.0567                 1.0865
 Frc consts  --      6.4662                 6.2472                 6.4769
 IR Inten    --      1.3344                 4.6509                 8.0457

                    106                    107                    108
                      A                      A                      A
 Frequencies --   3196.4719              3210.6961              3213.1532
 Red. masses --      1.0916                 1.0893                 1.0947
 Frc consts  --      6.5712                 6.6159                 6.6591
 IR Inten    --     19.1631                 8.6873                 6.0300

                    109                    110                    111
                      A                      A                      A
 Frequencies --   3225.3822              3237.4491              3254.7884
 Red. masses --      1.0905                 1.1180                 1.1154
 Frc consts  --      6.6842                 6.9038                 6.9619
 IR Inten    --      5.0291                 3.7066                10.3775

                    112                    113                    114
                      A                      A                      A
 Frequencies --   3561.6767              3620.2118              3662.7901
 Red. masses --      1.0476                 1.0663                 1.0990
 Frc consts  --      7.8295                 8.2339                 8.6870
 IR Inten    --     20.1446               147.4069                10.5173

 - Thermochemistry -
 -------------------
 Temperature   298.150 Kelvin.  Pressure   1.00000 Atm.
 Atom     1 has atomic number  6 and mass  12.00000

 Molecular mass:   316.09154 amu.
 Principal axes and moments of inertia in atomic units:
                           1         2         3
     Eigenvalues --  4444.295737022.127767959.68374
           X            0.99966   0.01881   0.01784
           Y           -0.01773   0.99809  -0.05913
           Z           -0.01892   0.05879   0.99809
 This molecule is an asymmetric top.
 Rotational symmetry number  1.
 Warning -- assumption of classical behavior for rotation
           may cause significant error
 Rotational temperatures (Kelvin)      0.01949     0.01233     0.01088
 Rotational constants (GHZ):           0.40608     0.25701     0.22674
 Zero-point vibrational energy     864491.3 (Joules/Mol)
                                  206.61838 (Kcal/Mol)
 Warning -- explicit consideration of  34 degrees of freedom as
           vibrations may cause significant error
 Vibrational temperatures:     38.28    44.43    73.57    97.78   100.18
          (Kelvin)            117.29   146.75   174.60   181.78   236.28
                              252.00   296.75   322.37   327.40   331.16
                              366.10   434.53   441.60   450.68   467.95
                              517.15   559.76   595.63   609.77   619.34
                              651.11   657.78   717.22   732.72   754.86
                              773.56   797.77   869.60   890.40   959.71
                              993.91  1012.49  1017.72  1040.18  1121.60
                             1130.78  1196.70  1211.03  1221.95  1239.19
                             1260.86  1289.36  1317.22  1318.46  1346.00
                             1381.05  1410.39  1459.32  1467.48  1507.83
                             1539.32  1564.11  1565.76  1577.78  1581.55
                             1595.79  1610.34  1644.24  1655.99  1663.94
                             1693.39  1733.52  1739.11  1752.98  1799.69
                             1800.75  1833.64  1856.02  1895.65  1922.51
                             1945.98  1953.02  1956.60  1971.25  2011.07
                             2042.23  2055.21  2110.16  2131.29  2142.99
                             2144.27  2155.31  2182.75  2190.10  2201.64
                             2210.80  2349.32  2385.00  2437.12  4348.31
                             4425.73  4434.12  4447.83  4449.88  4507.35
                             4529.98  4544.16  4547.69  4557.68  4576.50
                             4599.01  4619.48  4623.01  4640.61  4657.97
                             4682.91  5124.46  5208.68  5269.94

 Zero-point correction=                           0.329267 (Hartree/Particle)
 Thermal correction to Energy=                    0.349922
 Thermal correction to Enthalpy=                  0.350866
 Thermal correction to Gibbs Free Energy=         0.279431
 Sum of electronic and zero-point Energies=          -1638.623752
 Sum of electronic and thermal Energies=             -1638.603097
 Sum of electronic and thermal Enthalpies=           -1638.602153
 Sum of electronic and thermal Free Energies=        -1638.673589

                     E (Thermal)             CV                S
                      KCal/Mol        Cal/Mol-Kelvin    Cal/Mol-Kelvin
 Total                  219.579             79.151            150.349
 Electronic               0.000              0.000              0.000
 Translational            0.889              2.981             43.148
 Rotational               0.889              2.981             33.873
 Vibrational            217.802             73.190             73.327
 Vibration     1          0.593              1.984              6.068
 Vibration     2          0.594              1.984              5.772
 Vibration     3          0.595              1.977              4.773
 Vibration     4          0.598              1.969              4.212
 Vibration     5          0.598              1.969              4.164
 Vibration     6          0.600              1.962              3.854
 Vibration     7          0.604              1.948              3.416
 Vibration     8          0.609              1.931              3.079
 Vibration     9          0.611              1.927              3.001
 Vibration    10          0.623              1.886              2.501
 Vibration    11          0.627              1.873              2.380
 Vibration    12          0.641              1.831              2.077
 Vibration    13          0.649              1.804              1.926
 Vibration    14          0.651              1.799              1.898
 Vibration    15          0.652              1.795              1.878
 Vibration    16          0.665              1.755              1.700
 Vibration    17          0.694              1.670              1.406
 Vibration    18          0.697              1.661              1.379
 Vibration    19          0.701              1.648              1.345
 Vibration    20          0.709              1.625              1.284
 Vibration    21          0.734              1.556              1.125
 Vibration    22          0.757              1.494              1.004
 Vibration    23          0.778              1.440              0.913
 Vibration    24          0.786              1.418              0.879
 Vibration    25          0.792              1.404              0.857
 Vibration    26          0.811              1.355              0.788
 Vibration    27          0.815              1.345              0.774
 Vibration    28          0.854              1.253              0.662
 Vibration    29          0.864              1.229              0.635
 Vibration    30          0.880              1.195              0.599
 Vibration    31          0.893              1.167              0.570
 Vibration    32          0.910              1.130              0.535
 Vibration    33          0.963              1.022              0.442
 Vibration    34          0.979              0.992              0.418

                           ! Non-Optimized Parameters !
 Normal termination of Gaussian 16 at Sat Dec 12 17:26:14 2020.

 ----------------------------------------------------------------------
 # B3LYP/6-311++G(d,p) empiricaldispersion=gd3bj scf=xqc pop=npa geom=c
 heck
 ----------------------------------------------------------------------

 ---------------------------------------
 CID_64041230_JID_10567_Energie_neutraal
 ---------------------------------------
 Structure from the checkpoint file:  "JID_10567.chk"
 Charge =  0 Multiplicity = 1

 SCF Done:  E(RB3LYP) =  -1639.25712528     A.U. after   17 cycles
 Normal termination of Gaussian 16 at Sat Dec 12 17:40:47 2020.

 ----------------------------------------------------------------------
 # B3LYP/6-311++G(d,p) empiricaldispersion=gd3bj scf=xqc pop=npa geom=c
 heck
 ----------------------------------------------------------------------

 -------------------------------------
 CID_64041230_JID_10567_Energie_kation
 -------------------------------------
 Structure from the checkpoint file:  "JID_10567.chk"
 Charge =  1 Multiplicity = 2

 SCF Done:  E(UB3LYP) =  -1638.98010277     A.U. after   27 cycles
 Normal termination of Gaussian 16 at Sat Dec 12 18:14:23 2020.
 Gaussian 16:  ES64L-G16RevA.03 25-Dec-2016

 ----------------------------------------------------------------------
 # B3LYP/6-311++G(d,p) empiricaldispersion=gd3bj scf=xqc pop=npa geom=c
 heck
 ----------------------------------------------------------------------

 ------------------------------------
 CID_64041230_JID_10567_Energie_anion
 ------------------------------------
 Structure from the checkpoint file:  "JID_10567.chk"
 Charge = -1 Multiplicity = 2

                         Standard orientation:
 ---------------------------------------------------------------------
 Center     Atomic      Atomic             Coordinates (Angstroms)
 Number     Number       Type             X           Y           Z
 ---------------------------------------------------------------------
      1          6           0        0.542230   -2.971693   -0.754922
      2          6           0        0.444656   -3.093923    0.740982
      3          6           0        0.066343   -1.799122    0.061975
      4          7           0        0.909859   -0.636066    0.235472
      5          6           0        1.428544   -0.275482    1.563160
      6          6           0        2.907814   -0.584286    1.816772
      7          8           0        3.787206    0.292448    1.132981
      8         16           0        1.504123    0.044419   -1.165057
      9          8           0        2.891743   -0.412462   -1.426362
     10          8           0        0.504539   -0.156304   -2.219184
     11          6           0        1.648293    1.821642   -0.825176
     12          6           0        0.335388    2.596688   -0.857608
     13         16           0       -0.649759    2.622145    0.687625
     14          6           0       -1.716451    1.187770    0.608667
     15          6           0       -2.040556    0.587579    1.832419
     16          6           0       -2.965116   -0.456843    1.850846
     17          6           0       -3.544943   -0.924458    0.676277
     18          6           0       -3.203622   -0.338700   -0.555927
     19          6           0       -2.299752    0.735604   -0.574314
     20          7           0       -3.714897   -0.851471   -1.745421
     21          1           0       -0.193606   -3.464461   -1.381978
     22          1           0        1.535586   -2.906384   -1.186337
     23          1           0       -0.364535   -3.672856    1.176208
     24          1           0        1.373217   -3.128902    1.301595
     25          1           0       -0.990479   -1.567203    0.008528
     26          1           0        1.244620    0.786733    1.753370
     27          1           0        0.806274   -0.832231    2.268152
     28          1           0        3.100010   -0.445021    2.887232
     29          1           0        3.121355   -1.634887    1.571339
     30          1           0        3.813116   -0.001954    0.201645
     31          1           0        2.218791    1.937795    0.098312
     32          1           0        2.289837    2.144570   -1.652785
     33          1           0        0.572223    3.650741   -1.031638
     34          1           0       -0.276463    2.264118   -1.698214
     35          1           0       -1.577382    0.935296    2.749774
     36          1           0       -3.227043   -0.923011    2.796754
     37          1           0       -4.246929   -1.753835    0.700080
     38          1           0       -2.048551    1.189397   -1.526594
     39          1           0       -3.644176   -0.240919   -2.548978
     40          1           0       -4.625305   -1.287375   -1.676287
 ---------------------------------------------------------------------

 SCF Done:  E(UB3LYP) =  -1639.24857650     A.U. after   33 cycles
 SCF Done:  E(UB3LYP) =  -1639.24857650     a.u. after    1 cycles

 The electronic state is 2-A.
 Alpha  occ. eigenvalues --  -88.98100 -88.76180 -19.03936 -19.03475 -19.03160
 Alpha  occ. eigenvalues --  -14.26389 -14.22003 -10.14472 -10.13246 -10.13206
 Alpha  occ. eigenvalues --  -10.12985 -10.12796 -10.12338 -10.11509 -10.09799
 Alpha  occ. eigenvalues --  -10.09223 -10.08383 -10.07716 -10.07549 -10.07245
 Alpha  occ. eigenvalues --   -8.04301  -7.84785  -6.00584  -6.00533  -6.00386
 Alpha  occ. eigenvalues --   -5.81190  -5.80788  -5.80169  -1.03500  -0.94577
 Alpha  occ. eigenvalues --   -0.92124  -0.86641  -0.82588  -0.77120  -0.76149
 Alpha  occ. eigenvalues --   -0.73526  -0.68589  -0.67255  -0.64254  -0.63061
 Alpha  occ. eigenvalues --   -0.58712  -0.56574  -0.54298  -0.52625  -0.51458
 Alpha  occ. eigenvalues --   -0.49551  -0.47718  -0.45030  -0.44087  -0.43448
 Alpha  occ. eigenvalues --   -0.42690  -0.41781  -0.41528  -0.40677  -0.38825
 Alpha  occ. eigenvalues --   -0.37868  -0.37479  -0.36958  -0.35771  -0.34755
 Alpha  occ. eigenvalues --   -0.34218  -0.33684  -0.32959  -0.32230  -0.31785
 Alpha  occ. eigenvalues --   -0.30521  -0.29574  -0.29174  -0.27727  -0.27416
 Alpha  occ. eigenvalues --   -0.26080  -0.25638  -0.25450  -0.24419  -0.24009
 Alpha  occ. eigenvalues --   -0.22710  -0.22143  -0.22075  -0.21527  -0.20739
 Alpha  occ. eigenvalues --   -0.18533  -0.15991  -0.13326  -0.11536   0.03881
 Alpha virt. eigenvalues --    0.05476   0.05863   0.06844   0.07127   0.07346
 Alpha virt. eigenvalues --    0.08340   0.08717   0.08920   0.09412   0.09578
 Alpha virt. eigenvalues --    0.09970   0.10249   0.10777   0.11299   0.11873

  Beta  occ. eigenvalues --  -88.98100 -88.76177 -19.03935 -19.03473 -19.03155
  Beta  occ. eigenvalues --  -14.26388 -14.21945 -10.14469 -10.13233 -10.13202
  Beta  occ. eigenvalues --  -10.12983 -10.12746 -10.12338 -10.11491 -10.09789
  Beta  occ. eigenvalues --  -10.09219 -10.08353 -10.07724 -10.07506 -10.07211
  Beta  occ. eigenvalues --   -8.04301  -7.84781  -6.00584  -6.00532  -6.00386
  Beta  occ. eigenvalues --   -5.81184  -5.80782  -5.80167  -1.03493  -0.94574
  Beta  occ. eigenvalues --   -0.92117  -0.86636  -0.82519  -0.77108  -0.76097
  Beta  occ. eigenvalues --   -0.73481  -0.68542  -0.67235  -0.64180  -0.63006
  Beta  occ. eigenvalues --   -0.58689  -0.56546  -0.54248  -0.52602  -0.51395
  Beta  occ. eigenvalues --   -0.49491  -0.47697  -0.45020  -0.44083  -0.43429
  Beta  occ. eigenvalues --   -0.42644  -0.41755  -0.41477  -0.40655  -0.38753
  Beta  occ. eigenvalues --   -0.37841  -0.37446  -0.36945  -0.35721  -0.34714
  Beta  occ. eigenvalues --   -0.34199  -0.33632  -0.32950  -0.32197  -0.31770
  Beta  occ. eigenvalues --   -0.30472  -0.29503  -0.29164  -0.27701  -0.27385
  Beta  occ. eigenvalues --   -0.26047  -0.25617  -0.25436  -0.24406  -0.23961
  Beta  occ. eigenvalues --   -0.22693  -0.22129  -0.22037  -0.21509  -0.20730
  Beta  occ. eigenvalues --   -0.18430  -0.15985  -0.13226  -0.11469
  Beta virt. eigenvalues --    0.05773   0.06409   0.06901   0.07202   0.07377
  Beta virt. eigenvalues --    0.07729   0.08698   0.08892   0.09203   0.09434
  Beta virt. eigenvalues --    0.09747   0.10338   0.10545   0.10996   0.11557

 Mulliken charges and spin densities:
               1          2
     1  C   -0.196757   0.033344
     2  C   -0.350244   0.060598
     3  C   -0.455806  -0.002258
     4  N    0.323544   0.015052
     5  C   -0.197562   0.154806
     6  C   -0.381463  -0.223552
     7  O   -0.191256   0.005979
     8  S    0.159078  -0.341061
     9  O   -0.055929   0.002172
    10  O   -0.033350   0.009534
    11  C   -0.884769   0.330461
    12  C    0.383870  -0.735827
    13  S    0.804503  -0.916447
    14  C    0.190150   0.193964
    15  C   -0.448399   0.203453
    16  C    0.048754  -0.560637
    17  C    0.071270  -0.075391
    18  C    0.002038  -0.267289
    19  C    0.099585  -0.524406
    20  N   -0.168263  -0.057008
    21  H    0.033721   0.130237
    22  H    0.222421  -0.021323
    23  H   -0.085516   0.251898
    24  H    0.066416   0.047767
    25  H    0.881650  -0.650282
    26  H    0.085697   0.123608
    27  H    0.139820   0.007018
    28  H    0.096342   0.079031
    29  H    0.170659  -0.011693
    30  H    0.202200   0.012794
    31  H    0.279418  -0.013525
    32  H   -0.006022   0.248039
    33  H   -0.595905   0.890603
    34  H    0.078347   0.098615
    35  H    0.116501   0.039930
    36  H   -0.183273   0.350273
    37  H   -0.652192   0.821489
    38  H   -0.141548   0.350836
    39  H   -0.052503   0.298663
    40  H   -0.375227   0.640537
 Sum of Mulliken charges =  -1.00000   1.00000

 Dipole moment (field-independent basis, Debye):
    X=              6.8702    Y=             -1.0096    Z=              4.3774  Tot=              8.2085
 Quadrupole moment (field-independent basis, Debye-Ang):
   XX=           -222.3412   YY=           -189.5907   ZZ=           -174.9767
   XY=            -16.4682   XZ=             -3.8766   YZ=              0.1293

 Summary of Natural Population Analysis:

                                       Natural Population
                Natural  -----------------------------------------------
    Atom  No    Charge         Core      Valence    Rydberg      Total
 -----------------------------------------------------------------------
      C    1   -0.19517      0.99961     2.18619    0.00937     3.19517
      C    2   -0.20152      0.99961     2.19301    0.00890     3.20152
      C    3   -0.02013      0.99955     2.00740    0.01318     3.02013
      N    4   -0.37987      0.99969     2.86376    0.01642     3.87987
      C    5   -0.10621      0.99959     2.09493    0.01169     3.10621
      C    6   -0.01717      0.99959     2.00621    0.01137     3.01717
      O    7   -0.38365      0.99990     3.37638    0.00737     4.38365
      S    8    1.10483      4.99920     1.79661    0.09936     6.89517
      O    9   -0.48492      0.99990     3.48009    0.00493     4.48492
      O   10   -0.45475      0.99990     3.44978    0.00506     4.45475
      C   11   -0.29810      0.99954     2.28506    0.01349     3.29810
      C   12   -0.26568      0.99955     2.25299    0.01313     3.26568
      S   13    0.12195      4.99952     2.85974    0.01879     7.87805
      C   14   -0.07739      0.99940     2.06483    0.01316     3.07739
      C   15   -0.13967      0.99949     2.12951    0.01067     3.13967
      C   16   -0.08550      0.99956     2.07572    0.01022     3.08550
      C   17   -0.12949      0.99951     2.11885    0.01113     3.12949
      C   18    0.08915      0.99949     1.89847    0.01289     2.91085
      C   19   -0.12761      0.99943     2.11728    0.01090     3.12761
      N   20   -0.39023      0.99971     2.88048    0.01004     3.89023
      H   21    0.10883      0.00000     0.39036    0.00081     0.39117
      H   22    0.10903      0.00000     0.38994    0.00103     0.39097
      H   23    0.10765      0.00000     0.39148    0.00086     0.39235
      H   24    0.10080      0.00000     0.39815    0.00105     0.39920
      H   25    0.11449      0.00000     0.38240    0.00311     0.38551
      H   26    0.10652      0.00000     0.39168    0.00180     0.39348
      H   27    0.11100      0.00000     0.38769    0.00131     0.38900
      H   28    0.08570      0.00000     0.41321    0.00109     0.41430
      H   29    0.07871      0.00000     0.42002    0.00127     0.42129
      H   30    0.24393      0.00000     0.25287    0.00321     0.25607
      H   31    0.12617      0.00000     0.37226    0.00157     0.37383
      H   32    0.12198      0.00000     0.37672    0.00130     0.37802
      H   33    0.11785      0.00000     0.37962    0.00253     0.38215
      H   34    0.11783      0.00000     0.38029    0.00188     0.38217
      H   35    0.10164      0.00000     0.39701    0.00135     0.39836
      H   36    0.10045      0.00000     0.39866    0.00090     0.39955
      H   37    0.10456      0.00000     0.39343    0.00201     0.39544
      H   38    0.10474      0.00000     0.39344    0.00182     0.39526
      H   39    0.18857      0.00000     0.30867    0.00276     0.31143
      H   40    0.19068      0.00000     0.30294    0.00638     0.30932
 =======================================================================
   * Total *    0.00000     27.99175    55.65814    0.35011    84.00000

 Normal termination of Gaussian 16 at Sat Dec 12 18:56:03 2020.
