 Gaussian 16, Revision A.03,

 -----------------------------------------------------------
 # opt freq B3LYP/6-31G(d) empiricaldispersion=gd3bj scf=xqc
 -----------------------------------------------------------

 -----------------------------
 CID_21864723_JID_817_neutraal
 -----------------------------
 Symbolic Z-matrix:
 Charge =  0 Multiplicity = 1

 SCF Done:  E(RB3LYP) =  -456.218171430     A.U. after   15 cycles
 SCF Done:  E(RB3LYP) =  -456.224131524     A.U. after   13 cycles
 SCF Done:  E(RB3LYP) =  -456.225086489     A.U. after   12 cycles
 SCF Done:  E(RB3LYP) =  -456.225515129     A.U. after   12 cycles
 SCF Done:  E(RB3LYP) =  -456.225794198     A.U. after   12 cycles
 SCF Done:  E(RB3LYP) =  -456.225892797     A.U. after   10 cycles
 SCF Done:  E(RB3LYP) =  -456.225972872     A.U. after   12 cycles
 SCF Done:  E(RB3LYP) =  -456.225982167     A.U. after   11 cycles
 SCF Done:  E(RB3LYP) =  -456.225986542     A.U. after   10 cycles
 SCF Done:  E(RB3LYP) =  -456.225987077     A.U. after    9 cycles
 SCF Done:  E(RB3LYP) =  -456.225987161     A.U. after    8 cycles
 Optimization completed.
    -- Stationary point found.
 Normal termination of Gaussian 16 at Tue Dec  8 13:23:57 2020.

 --------------------------------------------------------------------
 #N Geom=AllCheck Guess=TCheck SCRF=Check GenChk RB3LYP/6-31G(d) Freq
 --------------------------------------------------------------------

 Structure from the checkpoint file:  "JID_817.chk"
 -----------------------------
 CID_21864723_JID_817_neutraal
 -----------------------------
 Charge =  0 Multiplicity = 1

 SCF Done:  E(RB3LYP) =  -456.225987161     A.U. after    1 cycles

  Exact polarizability:  95.837   3.940  83.602   2.533   0.633  60.653
 Approx polarizability: 126.284   9.479 137.874   6.472   0.956  87.703

                      1                      2                      3
                      A                      A                      A
 Frequencies --     39.9798                83.9853               109.4691
 Red. masses --      3.5182                 2.9637                 4.8640
 Frc consts  --      0.0033                 0.0123                 0.0343
 IR Inten    --      0.2713                 0.6133                 0.3514

                      4                      5                      6
                      A                      A                      A
 Frequencies --    126.7121               162.2322               206.1848
 Red. masses --     10.0674                 4.4675                 3.8408
 Frc consts  --      0.0952                 0.0693                 0.0962
 IR Inten    --      8.0028                 9.1706                 1.9797

                      7                      8                      9
                      A                      A                      A
 Frequencies --    239.0637               302.3667               334.9302
 Red. masses --      1.5863                 2.3243                 3.3194
 Frc consts  --      0.0534                 0.1252                 0.2194
 IR Inten    --      0.7823                 1.7489                 4.0790

                     10                     11                     12
                      A                      A                      A
 Frequencies --    399.6803               466.9086               482.9032
 Red. masses --      3.8281                 4.4859                 8.1327
 Frc consts  --      0.3603                 0.5762                 1.1174
 IR Inten    --      3.1079                 2.8350                 0.6114

                     13                     14                     15
                      A                      A                      A
 Frequencies --    524.9245               594.1981               611.0216
 Red. masses --      3.2094                12.4086                 5.8499
 Frc consts  --      0.5210                 2.5813                 1.2868
 IR Inten    --      3.2455                 0.0175                 5.7957

                     16                     17                     18
                      A                      A                      A
 Frequencies --    682.0832               803.8157               848.8669
 Red. masses --      4.3269                 1.2754                 2.4625
 Frc consts  --      1.1861                 0.4855                 1.0454
 IR Inten    --      7.7944                 2.7412                 3.1618

                     19                     20                     21
                      A                      A                      A
 Frequencies --    866.0031               907.1033               957.5561
 Red. masses --      3.5035                 2.1673                 1.4335
 Frc consts  --      1.5481                 1.0507                 0.7744
 IR Inten    --      2.2220                30.3350                 1.7326

                     22                     23                     24
                      A                      A                      A
 Frequencies --   1032.7579              1051.7347              1080.9378
 Red. masses --      3.5148                 2.5636                 1.3041
 Frc consts  --      2.2088                 1.6707                 0.8977
 IR Inten    --     45.5571                29.0766                 6.1907

                     25                     26                     27
                      A                      A                      A
 Frequencies --   1113.5878              1133.1627              1180.9625
 Red. masses --      1.8293                 1.6895                 2.0352
 Frc consts  --      1.3366                 1.2782                 1.6723
 IR Inten    --      5.4361                42.5289                64.3145

                     28                     29                     30
                      A                      A                      A
 Frequencies --   1227.8881              1261.1612              1303.2638
 Red. masses --      2.5725                 2.1056                 3.6252
 Frc consts  --      2.2852                 1.9732                 3.6278
 IR Inten    --     60.9729                35.4889                21.0645

                     31                     32                     33
                      A                      A                      A
 Frequencies --   1345.6564              1404.6879              1435.4364
 Red. masses --      1.1935                 1.2588                 1.3000
 Frc consts  --      1.2733                 1.4634                 1.5782
 IR Inten    --     32.3390                49.1143                24.5015

                     34                     35                     36
                      A                      A                      A
 Frequencies --   1449.3780              1492.9309              1519.1390
 Red. masses --      1.3395                 1.3411                 1.0432
 Frc consts  --      1.6579                 1.7612                 1.4185
 IR Inten    --      9.1285                27.1718                 7.2310

                     37                     38                     39
                      A                      A                      A
 Frequencies --   1522.2421              1541.4091              2369.4385
 Red. masses --      1.0667                 1.0855                12.6723
 Frc consts  --      1.4563                 1.5196                41.9177
 IR Inten    --      1.5025                 5.3233                19.7790

                     40                     41                     42
                      A                      A                      A
 Frequencies --   2376.4708              3023.0087              3059.8684
 Red. masses --     12.6624                 1.0713                 1.0353
 Frc consts  --     42.1339                 5.7681                 5.7111
 IR Inten    --     14.7081                49.6118                10.0512

                     43                     44                     45
                      A                      A                      A
 Frequencies --   3119.3516              3127.5160              3131.8671
 Red. masses --      1.0978                 1.0890                 1.1001
 Frc consts  --      6.2936                 6.2760                 6.3576
 IR Inten    --      1.0379                13.4767                31.3272

                     46                     47                     48
                      A                      A                      A
 Frequencies --   3142.8728              3172.5414              3270.4747
 Red. masses --      1.1024                 1.0546                 1.1202
 Frc consts  --      6.4158                 6.2541                 7.0593
 IR Inten    --     38.8182                 0.3593                 0.4247

 - Thermochemistry -
 -------------------
 Temperature   298.150 Kelvin.  Pressure   1.00000 Atm.
 Atom     1 has atomic number  6 and mass  12.00000

 Molecular mass:   136.06366 amu.
 Principal axes and moments of inertia in atomic units:
                           1         2         3
     Eigenvalues --   816.508672110.651242537.27556
           X            0.99994  -0.01104   0.00177
           Y            0.01106   0.99988  -0.01103
           Z           -0.00164   0.01105   0.99994
 This molecule is an asymmetric top.
 Rotational symmetry number  1.
 Warning -- assumption of classical behavior for rotation
           may cause significant error
 Rotational temperatures (Kelvin)      0.10608     0.04104     0.03414
 Rotational constants (GHZ):           2.21031     0.85506     0.71129
 Zero-point vibrational energy     368687.5 (Joules/Mol)
                                   88.11843 (Kcal/Mol)
 Warning -- explicit consideration of  15 degrees of freedom as
           vibrations may cause significant error
 Vibrational temperatures:     57.52   120.84   157.50   182.31   233.42
          (Kelvin)            296.65   343.96   435.04   481.89   575.05
                              671.78   694.79   755.25   854.92   879.12
                              981.37  1156.51  1221.33  1245.99  1305.12
                             1377.71  1485.91  1513.21  1555.23  1602.20
                             1630.37  1699.14  1766.66  1814.53  1875.11
                             1936.10  2021.03  2065.27  2085.33  2147.99
                             2185.70  2190.17  2217.74  3409.09  3419.21
                             4349.44  4402.47  4488.05  4499.80  4506.06
                             4521.89  4564.58  4705.48

 Zero-point correction=                           0.140426 (Hartree/Particle)
 Thermal correction to Energy=                    0.150732
 Thermal correction to Enthalpy=                  0.151676
 Thermal correction to Gibbs Free Energy=         0.103935
 Sum of electronic and zero-point Energies=           -456.085562
 Sum of electronic and thermal Energies=              -456.075255
 Sum of electronic and thermal Enthalpies=            -456.074311
 Sum of electronic and thermal Free Energies=         -456.122052

                     E (Thermal)             CV                S
                      KCal/Mol        Cal/Mol-Kelvin    Cal/Mol-Kelvin
 Total                   94.586             36.329            100.481
 Electronic               0.000              0.000              0.000
 Translational            0.889              2.981             40.636
 Rotational               0.889              2.981             29.860
 Vibrational             92.808             30.367             29.985
 Vibration     1          0.594              1.981              5.260
 Vibration     2          0.601              1.960              3.796
 Vibration     3          0.606              1.942              3.278
 Vibration     4          0.611              1.926              2.995
 Vibration     5          0.622              1.889              2.524
 Vibration     6          0.641              1.831              2.077
 Vibration     7          0.657              1.781              1.810
 Vibration     8          0.694              1.669              1.404
 Vibration     9          0.716              1.606              1.236
 Vibration    10          0.766              1.471              0.964
 Vibration    11          0.824              1.323              0.746
 Vibration    12          0.839              1.288              0.702
 Vibration    13          0.880              1.195              0.599
 Vibration    14          0.952              1.044              0.460
 Vibration    15          0.970              1.009              0.431

 Optimization completed.
    -- Stationary point found.
 Normal termination of Gaussian 16 at Tue Dec  8 13:28:38 2020.

 ----------------------------------------------------------------------
 # B3LYP/6-311++G(d,p) empiricaldispersion=gd3bj scf=xqc pop=npa geom=c
 heck
 ----------------------------------------------------------------------

 -------------------------------------
 CID_21864723_JID_817_Energie_neutraal
 -------------------------------------
 Structure from the checkpoint file:  "JID_817.chk"
 Charge =  0 Multiplicity = 1

 SCF Done:  E(RB3LYP) =  -456.354477193     A.U. after   14 cycles
 Normal termination of Gaussian 16 at Tue Dec  8 13:30:43 2020.

 ----------------------------------------------------------------------
 # B3LYP/6-311++G(d,p) empiricaldispersion=gd3bj scf=xqc pop=npa geom=c
 heck
 ----------------------------------------------------------------------

 -----------------------------------
 CID_21864723_JID_817_Energie_kation
 -----------------------------------
 Structure from the checkpoint file:  "JID_817.chk"
 Charge =  1 Multiplicity = 2

 SCF Done:  E(UB3LYP) =  -455.981385199     A.U. after   23 cycles
 Normal termination of Gaussian 16 at Tue Dec  8 13:36:04 2020.
 Gaussian 16:  ES64L-G16RevA.03 25-Dec-2016

 ----------------------------------------------------------------------
 # B3LYP/6-311++G(d,p) empiricaldispersion=gd3bj scf=xqc pop=npa geom=c
 heck
 ----------------------------------------------------------------------

 ----------------------------------
 CID_21864723_JID_817_Energie_anion
 ----------------------------------
 Structure from the checkpoint file:  "JID_817.chk"
 Charge = -1 Multiplicity = 2

                         Standard orientation:
 ---------------------------------------------------------------------
 Center     Atomic      Atomic             Coordinates (Angstroms)
 Number     Number       Type             X           Y           Z
 ---------------------------------------------------------------------
      1          6           0        3.192864   -0.271662    0.557153
      2          6           0        2.511869   -0.122603   -0.797230
      3          8           0        1.156627    0.341892   -0.708378
      4          6           0        0.271079   -0.589791   -0.213103
      5          6           0       -0.121466   -0.575037    1.224810
      6          6           0       -1.106484   -0.022263    0.169414
      7          6           0       -2.265963   -0.819780   -0.154356
      8          7           0       -3.174951   -1.496431   -0.407668
      9          6           0       -1.284722    1.409513    0.102461
     10          7           0       -1.434689    2.559464    0.060872
     11          1           0        3.143570    0.668647    1.115455
     12          1           0        4.247170   -0.533139    0.414498
     13          1           0        2.731456   -1.060146    1.160303
     14          1           0        3.014676    0.634862   -1.403176
     15          1           0        2.533779   -1.071160   -1.354297
     16          1           0        0.243133   -1.544341   -0.741739
     17          1           0        0.331715    0.179076    1.858463
     18          1           0       -0.414106   -1.500425    1.710198
 ---------------------------------------------------------------------

 SCF Done:  E(UB3LYP) =  -456.347192959     A.U. after   31 cycles

 The electronic state is 2-A.
 Alpha  occ. eigenvalues --  -19.05216 -14.23190 -14.22764 -10.17584 -10.17251
 Alpha  occ. eigenvalues --  -10.13428 -10.13091 -10.12677 -10.11534 -10.05926
 Alpha  occ. eigenvalues --   -0.97396  -0.84310  -0.82177  -0.79803  -0.66297
 Alpha  occ. eigenvalues --   -0.62916  -0.55738  -0.53131  -0.49417  -0.44616
 Alpha  occ. eigenvalues --   -0.40135  -0.38004  -0.35594  -0.33492  -0.32570
 Alpha  occ. eigenvalues --   -0.30048  -0.29154  -0.28527  -0.28356  -0.27659
 Alpha  occ. eigenvalues --   -0.26032  -0.25710  -0.25167  -0.23394  -0.20427
 Alpha  occ. eigenvalues --   -0.17929   0.04434
 Alpha virt. eigenvalues --    0.07126   0.07685   0.07773   0.08921   0.09332
 Alpha virt. eigenvalues --    0.10485   0.10728   0.11074   0.11947   0.12694
 Alpha virt. eigenvalues --    0.12733   0.13799   0.14232   0.14845   0.15709

  Beta  occ. eigenvalues --  -19.05196 -14.23137 -14.22714 -10.17578 -10.17226
  Beta  occ. eigenvalues --  -10.13421 -10.13082 -10.12644 -10.11459 -10.05861
  Beta  occ. eigenvalues --   -0.97361  -0.84237  -0.82098  -0.79731  -0.66225
  Beta  occ. eigenvalues --   -0.62825  -0.55616  -0.53028  -0.49280  -0.44532
  Beta  occ. eigenvalues --   -0.40051  -0.37941  -0.35511  -0.33410  -0.32518
  Beta  occ. eigenvalues --   -0.29940  -0.29061  -0.28444  -0.28266  -0.27596
  Beta  occ. eigenvalues --   -0.25969  -0.25575  -0.24986  -0.23322  -0.20359
  Beta  occ. eigenvalues --   -0.17823
  Beta virt. eigenvalues --    0.07491   0.07982   0.08103   0.08501   0.09192
  Beta virt. eigenvalues --    0.09969   0.11235   0.11253   0.11541   0.12014
  Beta virt. eigenvalues --    0.12962   0.13422   0.14084   0.14586   0.15153

 Mulliken charges and spin densities:
               1          2
     1  C    1.553213  -1.997451
     2  C   -0.295903   0.192574
     3  O   -0.088180   0.017272
     4  C   -0.770785   0.270263
     5  C    0.726465  -1.175683
     6  C    0.773220   0.901266
     7  C    0.896937  -1.497033
     8  N   -0.311202   0.085593
     9  C    0.013156  -0.529129
    10  N   -0.272552   0.040636
    11  H    0.092661   0.046168
    12  H   -0.666257   0.818629
    13  H   -0.967929   1.139836
    14  H   -0.369203   0.538603
    15  H   -0.058051   0.186142
    16  H   -0.459932   0.698431
    17  H   -0.108389   0.343267
    18  H   -0.687269   0.920616
 Sum of Mulliken charges =  -1.00000   1.00000

 Dipole moment (field-independent basis, Debye):
    X=             -3.6333    Y=              3.7418    Z=             -1.5412  Tot=              5.4385
 Quadrupole moment (field-independent basis, Debye-Ang):
   XX=           -127.0307   YY=           -108.0784   ZZ=            -85.0040
   XY=              7.8592   XZ=             -5.2476   YZ=              6.2366

 Summary of Natural Population Analysis:

                                       Natural Population
                Natural  -----------------------------------------------
    Atom  No    Charge         Core      Valence    Rydberg      Total
 -----------------------------------------------------------------------
      C    1   -0.30203      0.99967     2.29705    0.00531     3.30203
      C    2   -0.00683      0.99959     1.99505    0.01220     3.00683
      O    3   -0.29047      0.99987     3.28156    0.00904     4.29047
      C    4    0.09453      0.99950     1.88930    0.01668     2.90547
      C    5   -0.16850      0.99960     2.15721    0.01170     3.16850
      C    6   -0.15979      0.99940     2.14873    0.01165     3.15979
      C    7    0.16381      0.99962     1.81992    0.01666     2.83619
      N    8   -0.16327      0.99979     2.65285    0.01063     3.66327
      C    9    0.16627      0.99962     1.81609    0.01802     2.83373
      N   10   -0.16148      0.99979     2.65158    0.01011     3.66148
      H   11    0.09857      0.00000     0.40019    0.00124     0.40143
      H   12    0.10766      0.00000     0.38937    0.00296     0.39234
      H   13    0.10545      0.00000     0.38911    0.00544     0.39455
      H   14    0.09034      0.00000     0.40828    0.00137     0.40966
      H   15    0.08347      0.00000     0.41458    0.00194     0.41653
      H   16    0.10239      0.00000     0.39499    0.00262     0.39761
      H   17    0.11790      0.00000     0.38042    0.00168     0.38210
      H   18    0.12196      0.00000     0.37383    0.00420     0.37804
 =======================================================================
   * Total *    0.00000      9.99643    25.86011    0.14346    36.00000

 Normal termination of Gaussian 16 at Tue Dec  8 13:39:37 2020.
