 Gaussian 16, Revision A.03,

 -----------------------------------------------------------
 # opt freq B3LYP/6-31G(d) empiricaldispersion=gd3bj scf=xqc
 -----------------------------------------------------------

 ------------------------------
 CID_91431760_JID_1301_neutraal
 ------------------------------
 Symbolic Z-matrix:
 Charge =  0 Multiplicity = 1

 SCF Done:  E(RB3LYP) =  -481.995471328     A.U. after   14 cycles
 SCF Done:  E(RB3LYP) =  -481.998102791     A.U. after   12 cycles
 SCF Done:  E(RB3LYP) =  -481.998127512     A.U. after   12 cycles
 SCF Done:  E(RB3LYP) =  -481.998494789     A.U. after   12 cycles
 SCF Done:  E(RB3LYP) =  -481.998650298     A.U. after   12 cycles
 SCF Done:  E(RB3LYP) =  -481.998660913     A.U. after   10 cycles
 SCF Done:  E(RB3LYP) =  -481.998668855     A.U. after   10 cycles
 SCF Done:  E(RB3LYP) =  -481.998672626     A.U. after   10 cycles
 SCF Done:  E(RB3LYP) =  -481.998673197     A.U. after    8 cycles
 SCF Done:  E(RB3LYP) =  -481.998673243     A.U. after    8 cycles
 Optimization completed.
    -- Stationary point found.
 Normal termination of Gaussian 16 at Tue Dec  8 19:38:28 2020.

 --------------------------------------------------------------------
 #N Geom=AllCheck Guess=TCheck SCRF=Check GenChk RB3LYP/6-31G(d) Freq
 --------------------------------------------------------------------

 Structure from the checkpoint file:  "JID_1301.chk"
 ------------------------------
 CID_91431760_JID_1301_neutraal
 ------------------------------
 Charge =  0 Multiplicity = 1

 SCF Done:  E(RB3LYP) =  -481.998673243     A.U. after    1 cycles

  Exact polarizability: 123.496   3.422  93.183  -0.804   6.322  80.370
 Approx polarizability: 150.713   7.958 139.794   0.486  17.701 130.599

                      1                      2                      3
                      A                      A                      A
 Frequencies --     37.9069                65.9935                89.7250
 Red. masses --      6.1433                 3.3257                 3.6470
 Frc consts  --      0.0052                 0.0085                 0.0173
 IR Inten    --      0.0993                 1.3958                 1.6099

                      4                      5                      6
                      A                      A                      A
 Frequencies --    136.9827               175.3178               235.7179
 Red. masses --      2.8529                 2.6030                 1.8164
 Frc consts  --      0.0315                 0.0471                 0.0595
 IR Inten    --      0.1404                 0.7940                 0.1222

                      7                      8                      9
                      A                      A                      A
 Frequencies --    250.0043               287.9598               330.3300
 Red. masses --      4.6642                 3.0128                 1.8064
 Frc consts  --      0.1718                 0.1472                 0.1161
 IR Inten    --      3.9343                 0.4750                 0.9833

                     10                     11                     12
                      A                      A                      A
 Frequencies --    365.6282               431.4639               448.3846
 Red. masses --      4.6570                 2.0703                 2.8406
 Frc consts  --      0.3668                 0.2271                 0.3365
 IR Inten    --     20.0427                 0.5193                 0.1075

                     13                     14                     15
                      A                      A                      A
 Frequencies --    472.7925               485.1216               574.4044
 Red. masses --      2.3038                 2.2947                 1.8958
 Frc consts  --      0.3034                 0.3182                 0.3685
 IR Inten    --      0.5165                12.6344                 1.3908

                     16                     17                     18
                      A                      A                      A
 Frequencies --    711.9503               758.0964               802.4538
 Red. masses --      4.2311                 1.8322                 1.6629
 Frc consts  --      1.2636                 0.6204                 0.6309
 IR Inten    --     12.1211                11.8900                 1.1033

                     19                     20                     21
                      A                      A                      A
 Frequencies --    807.7710               858.9424               873.3703
 Red. masses --      1.9462                 2.1162                 2.9921
 Frc consts  --      0.7482                 0.9199                 1.3447
 IR Inten    --      1.0388                 0.9671                 9.3730

                     22                     23                     24
                      A                      A                      A
 Frequencies --    886.3037               922.6998               941.4707
 Red. masses --      2.2470                 1.6282                 1.7015
 Frc consts  --      1.0400                 0.8167                 0.8886
 IR Inten    --      3.7396                 1.3735                 2.1729

                     25                     26                     27
                      A                      A                      A
 Frequencies --    966.0433               985.6602              1052.0171
 Red. masses --      1.9249                 2.5465                 1.8424
 Frc consts  --      1.0584                 1.4576                 1.2014
 IR Inten    --      3.6700                10.3117                 0.6100

                     28                     29                     30
                      A                      A                      A
 Frequencies --   1068.8285              1081.3503              1101.7131
 Red. masses --      1.8831                 1.8314                 1.2387
 Frc consts  --      1.2675                 1.2617                 0.8858
 IR Inten    --     36.2988                21.6555                 0.5573

                     31                     32                     33
                      A                      A                      A
 Frequencies --   1106.0427              1130.6921              1161.8651
 Red. masses --      2.2569                 2.1637                 1.5868
 Frc consts  --      1.6267                 1.6298                 1.2621
 IR Inten    --      1.5493                20.5961                11.7289

                     34                     35                     36
                      A                      A                      A
 Frequencies --   1178.0497              1209.5372              1240.9150
 Red. masses --      1.1610                 1.5662                 1.4365
 Frc consts  --      0.9493                 1.3500                 1.3033
 IR Inten    --     47.6540                 5.1212                 0.8372

                     37                     38                     39
                      A                      A                      A
 Frequencies --   1258.8656              1292.1025              1305.2641
 Red. masses --      1.2224                 1.2538                 1.2728
 Frc consts  --      1.1414                 1.2333                 1.2777
 IR Inten    --    142.3043                 4.3001                 2.3881

                     40                     41                     42
                      A                      A                      A
 Frequencies --   1313.9208              1330.9672              1359.0580
 Red. masses --      1.2667                 1.2944                 1.2845
 Frc consts  --      1.2884                 1.3510                 1.3979
 IR Inten    --      3.5748                18.7616                 1.2895

                     43                     44                     45
                      A                      A                      A
 Frequencies --   1386.6440              1395.5419              1401.8847
 Red. masses --      1.3836                 1.3803                 1.4887
 Frc consts  --      1.5674                 1.5839                 1.7238
 IR Inten    --      1.8021                 5.5444                 3.7731

                     46                     47                     48
                      A                      A                      A
 Frequencies --   1405.0485              1407.0306              1428.8997
 Red. masses --      1.5120                 1.5643                 1.6077
 Frc consts  --      1.7587                 1.8246                 1.9341
 IR Inten    --      0.7346                26.4412                 8.4678

                     49                     50                     51
                      A                      A                      A
 Frequencies --   1443.6464              1471.9711              1512.0204
 Red. masses --      1.3433                 1.0905                 1.0867
 Frc consts  --      1.6495                 1.3921                 1.4638
 IR Inten    --     17.0722                12.8324                 0.2892

                     52                     53                     54
                      A                      A                      A
 Frequencies --   1515.4074              1518.5814              1522.3221
 Red. masses --      1.0938                 1.0985                 1.0823
 Frc consts  --      1.4799                 1.4925                 1.4778
 IR Inten    --      1.0912                 2.7642                 9.3187

                     55                     56                     57
                      A                      A                      A
 Frequencies --   1536.8212              1709.9697              1802.6660
 Red. masses --      1.1007                 9.6857                10.6324
 Frc consts  --      1.5316                16.6862                20.3569
 IR Inten    --      0.8581                21.6946                55.2916

                     58                     59                     60
                      A                      A                      A
 Frequencies --   3002.7307              3009.2688              3013.6632
 Red. masses --      1.0638                 1.0693                 1.0671
 Frc consts  --      5.6510                 5.7053                 5.7103
 IR Inten    --     15.4614                12.1895                31.0961

                     61                     62                     63
                      A                      A                      A
 Frequencies --   3022.2888              3027.2109              3029.2928
 Red. masses --      1.0708                 1.0638                 1.0788
 Frc consts  --      5.7626                 5.7439                 5.8329
 IR Inten    --     15.7578                15.1150                 7.2373

                     64                     65                     66
                      A                      A                      A
 Frequencies --   3032.4181              3043.6333              3062.4268
 Red. masses --      1.0714                 1.0874                 1.0966
 Frc consts  --      5.8048                 5.9352                 6.0592
 IR Inten    --     28.7067                24.1781                64.8022

                     67                     68                     69
                      A                      A                      A
 Frequencies --   3074.5185              3075.2398              3080.9761
 Red. masses --      1.0940                 1.0983                 1.1037
 Frc consts  --      6.0927                 6.1198                 6.1730
 IR Inten    --     64.5804                43.9447                86.1464

                     70                     71                     72
                      A                      A                      A
 Frequencies --   3103.3237              3121.2151              3344.3694
 Red. masses --      1.0927                 1.0900                 1.0717
 Frc consts  --      6.2001                 6.2564                 7.0623
 IR Inten    --     25.6340                28.8622                 2.3839

 - Thermochemistry -
 -------------------
 Temperature   298.150 Kelvin.  Pressure   1.00000 Atm.
 Atom     1 has atomic number  6 and mass  12.00000

 Molecular mass:   153.11536 amu.
 Principal axes and moments of inertia in atomic units:
                           1         2         3
     Eigenvalues --   605.703583663.207873987.32137
           X            0.99999  -0.00431  -0.00249
           Y            0.00429   0.99998  -0.00557
           Z            0.00252   0.00556   0.99998
 This molecule is an asymmetric top.
 Rotational symmetry number  1.
 Warning -- assumption of classical behavior for rotation
           may cause significant error
 Rotational temperatures (Kelvin)      0.14300     0.02364     0.02172
 Rotational constants (GHZ):           2.97958     0.49267     0.45262
 Zero-point vibrational energy     607671.3 (Joules/Mol)
                                  145.23694 (Kcal/Mol)
 Warning -- explicit consideration of  15 degrees of freedom as
           vibrations may cause significant error
 Vibrational temperatures:     54.54    94.95   129.09   197.09   252.24
          (Kelvin)            339.15   359.70   414.31   475.27   526.06
                              620.78   645.13   680.24   697.98   826.44
                             1024.34  1090.73  1154.55  1162.20  1235.83
                             1256.59  1275.19  1327.56  1354.57  1389.92
                             1418.15  1513.62  1537.81  1555.82  1585.12
                             1591.35  1626.81  1671.66  1694.95  1740.25
                             1785.40  1811.23  1859.05  1877.98  1890.44
                             1914.96  1955.38  1995.07  2007.87  2017.00
                             2021.55  2024.40  2055.87  2077.09  2117.84
                             2175.46  2180.33  2184.90  2190.28  2211.14
                             2460.26  2593.63  4320.26  4329.67  4335.99
                             4348.40  4355.48  4358.48  4362.97  4379.11
                             4406.15  4423.55  4424.58  4432.84  4464.99
                             4490.73  4811.80

 Zero-point correction=                           0.231450 (Hartree/Particle)
 Thermal correction to Energy=                    0.242403
 Thermal correction to Enthalpy=                  0.243347
 Thermal correction to Gibbs Free Energy=         0.194013
 Sum of electronic and zero-point Energies=           -481.767223
 Sum of electronic and thermal Energies=              -481.756270
 Sum of electronic and thermal Enthalpies=            -481.755326
 Sum of electronic and thermal Free Energies=         -481.804661

                     E (Thermal)             CV                S
                      KCal/Mol        Cal/Mol-Kelvin    Cal/Mol-Kelvin
 Total                  152.110             41.301            103.833
 Electronic               0.000              0.000              0.000
 Translational            0.889              2.981             40.988
 Rotational               0.889              2.981             30.560
 Vibrational            150.333             35.339             32.286
 Vibration     1          0.594              1.982              5.366
 Vibration     2          0.597              1.970              4.269
 Vibration     3          0.602              1.956              3.666
 Vibration     4          0.614              1.916              2.846
 Vibration     5          0.627              1.873              2.378
 Vibration     6          0.655              1.786              1.835
 Vibration     7          0.663              1.763              1.731
 Vibration     8          0.685              1.696              1.486
 Vibration     9          0.713              1.615              1.258
 Vibration    10          0.739              1.543              1.098
 Vibration    11          0.793              1.402              0.854
 Vibration    12          0.807              1.364              0.801
 Vibration    13          0.830              1.310              0.730
 Vibration    14          0.841              1.283              0.696
 Vibration    15          0.931              1.087              0.496

 Optimization completed.
    -- Stationary point found.
 Normal termination of Gaussian 16 at Tue Dec  8 19:44:02 2020.

 ----------------------------------------------------------------------
 # B3LYP/6-311++G(d,p) empiricaldispersion=gd3bj scf=xqc pop=npa geom=c
 heck
 ----------------------------------------------------------------------

 --------------------------------------
 CID_91431760_JID_1301_Energie_neutraal
 --------------------------------------
 Structure from the checkpoint file:  "JID_1301.chk"
 Charge =  0 Multiplicity = 1

 SCF Done:  E(RB3LYP) =  -482.135916861     A.U. after   13 cycles
 Normal termination of Gaussian 16 at Tue Dec  8 19:46:47 2020.

 ----------------------------------------------------------------------
 # B3LYP/6-311++G(d,p) empiricaldispersion=gd3bj scf=xqc pop=npa geom=c
 heck
 ----------------------------------------------------------------------

 ------------------------------------
 CID_91431760_JID_1301_Energie_kation
 ------------------------------------
 Structure from the checkpoint file:  "JID_1301.chk"
 Charge =  1 Multiplicity = 2

 SCF Done:  E(UB3LYP) =  -481.793704249     A.U. after   24 cycles
 Normal termination of Gaussian 16 at Tue Dec  8 19:53:05 2020.
 Gaussian 16:  ES64L-G16RevA.03 25-Dec-2016

 ----------------------------------------------------------------------
 # B3LYP/6-311++G(d,p) empiricaldispersion=gd3bj scf=xqc pop=npa geom=c
 heck
 ----------------------------------------------------------------------

 -----------------------------------
 CID_91431760_JID_1301_Energie_anion
 -----------------------------------
 Structure from the checkpoint file:  "JID_1301.chk"
 Charge = -1 Multiplicity = 2

                         Standard orientation:
 ---------------------------------------------------------------------
 Center     Atomic      Atomic             Coordinates (Angstroms)
 Number     Number       Type             X           Y           Z
 ---------------------------------------------------------------------
      1          6           0       -3.367773    0.398547   -0.269437
      2          6           0       -2.986541   -0.878269    0.490877
      3          6           0       -1.612134   -1.400887    0.053118
      4          6           0       -0.519375   -0.329981    0.203536
      5          6           0       -0.909743    0.946898   -0.561241
      6          6           0       -2.282752    1.472884   -0.123659
      7          6           0        0.839523   -0.866722   -0.249167
      8          6           0        2.027786   -0.023403    0.152309
      9          8           0        1.962628    0.935642    0.901573
     10          6           0        3.381077   -0.434291   -0.407236
     11          7           0        4.456426    0.184399   -0.133115
     12          1           0       -4.333147    0.778964    0.086393
     13          1           0       -3.497274    0.158458   -1.335050
     14          1           0       -2.961219   -0.662321    1.568759
     15          1           0       -3.748342   -1.653752    0.344134
     16          1           0       -1.662715   -1.715753   -1.000552
     17          1           0       -1.343573   -2.294019    0.633106
     18          1           0       -0.435115   -0.069365    1.267809
     19          1           0       -0.936229    0.718617   -1.638274
     20          1           0       -0.145080    1.716031   -0.413522
     21          1           0       -2.546300    2.364063   -0.706261
     22          1           0       -2.226333    1.790913    0.927271
     23          1           0        1.019669   -1.873603    0.163381
     24          1           0        0.866693   -1.003770   -1.341493
     25          1           0        3.416915   -1.300799   -1.074230
     26          1           0        4.215632    0.961747    0.503149
 ---------------------------------------------------------------------

 SCF Done:  E(UB3LYP) =  -482.152120139     A.U. after   33 cycles
 SCF Done:  E(UB3LYP) =  -482.152120139     a.u. after    1 cycles

 The electronic state is 2-A.
 Alpha  occ. eigenvalues --  -18.91601 -14.10334 -10.06557 -10.06405 -10.05951
 Alpha  occ. eigenvalues --  -10.05535 -10.05234 -10.04818 -10.04437 -10.02976
 Alpha  occ. eigenvalues --  -10.01603  -0.85846  -0.72681  -0.71403  -0.65488
 Alpha  occ. eigenvalues --   -0.63443  -0.57710  -0.50237  -0.49569  -0.45344
 Alpha  occ. eigenvalues --   -0.43523  -0.37150  -0.36288  -0.34308  -0.33491
 Alpha  occ. eigenvalues --   -0.32582  -0.31248  -0.29222  -0.27344  -0.26943
 Alpha  occ. eigenvalues --   -0.25542  -0.25097  -0.23722  -0.23305  -0.22242
 Alpha  occ. eigenvalues --   -0.20893  -0.20251  -0.19123  -0.18586  -0.14591
 Alpha  occ. eigenvalues --   -0.10762  -0.07028   0.04940
 Alpha virt. eigenvalues --    0.06359   0.08238   0.08713   0.09591   0.10859
 Alpha virt. eigenvalues --    0.11488   0.11829   0.12133   0.12956   0.13796
 Alpha virt. eigenvalues --    0.14656   0.15096   0.15192   0.15748   0.16765

  Beta  occ. eigenvalues --  -18.91081 -14.09728 -10.06549 -10.06399 -10.05949
  Beta  occ. eigenvalues --  -10.05531 -10.04855 -10.04817 -10.04437 -10.03004
  Beta  occ. eigenvalues --  -10.01506  -0.84882  -0.72666  -0.70376  -0.65421
  Beta  occ. eigenvalues --   -0.63434  -0.57403  -0.50218  -0.49198  -0.44980
  Beta  occ. eigenvalues --   -0.43110  -0.36959  -0.35853  -0.34241  -0.33440
  Beta  occ. eigenvalues --   -0.32432  -0.30970  -0.28816  -0.27316  -0.26532
  Beta  occ. eigenvalues --   -0.25401  -0.24779  -0.23689  -0.23068  -0.21902
  Beta  occ. eigenvalues --   -0.20275  -0.19429  -0.19070  -0.17696  -0.11712
  Beta  occ. eigenvalues --   -0.10062  -0.06463
  Beta virt. eigenvalues --    0.06616   0.08314   0.08613   0.09601   0.10900
  Beta virt. eigenvalues --    0.11402   0.11724   0.12005   0.12744   0.12917
  Beta virt. eigenvalues --    0.13763   0.14549   0.15041   0.15186   0.15706

 Mulliken charges and spin densities:
               1          2
     1  C   -0.129392  -0.227878
     2  C   -0.188700  -0.102938
     3  C   -0.360337  -0.023315
     4  C    0.760658  -0.061592
     5  C   -0.525220  -0.013949
     6  C   -0.299313  -0.022626
     7  C   -0.587836  -0.041625
     8  C    0.133304   0.239027
     9  O   -0.422348   0.182260
    10  C   -0.408315   0.092952
    11  N   -0.392004   0.328021
    12  H   -0.160947   0.313958
    13  H    0.141136  -0.046743
    14  H    0.132744  -0.020651
    15  H   -0.098930   0.259727
    16  H    0.142626  -0.004735
    17  H    0.076076   0.047567
    18  H    0.188193   0.008587
    19  H    0.076659   0.038227
    20  H    0.226502  -0.029513
    21  H    0.087272   0.053038
    22  H    0.113637   0.009212
    23  H    0.086879   0.057534
    24  H    0.119942  -0.016711
    25  H    0.086886  -0.005422
    26  H    0.200832  -0.012415
 Sum of Mulliken charges =  -1.00000   1.00000

 Dipole moment (field-independent basis, Debye):
    X=             -9.4352    Y=             -1.3774    Z=             -1.1253  Tot=              9.6013
 Quadrupole moment (field-independent basis, Debye-Ang):
   XX=           -150.4213   YY=            -81.0083   ZZ=            -78.3770
   XY=             -3.8740   XZ=              1.1622   YZ=             -1.0904

 Summary of Natural Population Analysis:

                                       Natural Population
                Natural  -----------------------------------------------
    Atom  No    Charge         Core      Valence    Rydberg      Total
 -----------------------------------------------------------------------
      C    1   -0.19234      0.99963     2.18229    0.01042     3.19234
      C    2   -0.19159      0.99963     2.18194    0.01001     3.19159
      C    3   -0.18494      0.99962     2.17763    0.00769     3.18494
      C    4   -0.11329      0.99960     2.10337    0.01033     3.11329
      C    5   -0.19054      0.99961     2.18282    0.00811     3.19054
      C    6   -0.18846      0.99963     2.18135    0.00747     3.18846
      C    7   -0.22787      0.99958     2.22116    0.00713     3.22787
      C    8    0.30011      0.99967     1.67946    0.02076     2.69989
      O    9   -0.26423      0.99988     3.25729    0.00706     4.26423
      C   10    0.01347      0.99968     1.96944    0.01742     2.98653
      N   11   -0.22429      0.99974     2.71190    0.01265     3.72429
      H   12    0.09450      0.00000     0.40445    0.00105     0.40550
      H   13    0.08984      0.00000     0.40909    0.00107     0.41016
      H   14    0.09174      0.00000     0.40707    0.00119     0.40826
      H   15    0.09372      0.00000     0.40524    0.00104     0.40628
      H   16    0.08903      0.00000     0.40953    0.00144     0.41097
      H   17    0.09633      0.00000     0.40227    0.00140     0.40367
      H   18    0.10021      0.00000     0.39743    0.00236     0.39979
      H   19    0.08657      0.00000     0.41214    0.00129     0.41343
      H   20    0.11454      0.00000     0.38434    0.00112     0.38546
      H   21    0.09353      0.00000     0.40536    0.00111     0.40647
      H   22    0.09288      0.00000     0.40578    0.00133     0.40712
      H   23    0.10522      0.00000     0.39346    0.00132     0.39478
      H   24    0.09977      0.00000     0.39900    0.00124     0.40023
      H   25    0.06022      0.00000     0.43777    0.00201     0.43978
      H   26    0.15586      0.00000     0.34129    0.00285     0.34414
 =======================================================================
   * Total *    0.00000     10.99628    30.86287    0.14085    42.00000

 Normal termination of Gaussian 16 at Tue Dec  8 20:02:03 2020.
