 Gaussian 16, Revision A.03,

 -----------------------------------------------------------
 # opt freq B3LYP/6-31G(d) empiricaldispersion=gd3bj scf=xqc
 -----------------------------------------------------------

 -----------------------------
 CID_54246956_JID_232_neutraal
 -----------------------------
 Symbolic Z-matrix:
 Charge =  0 Multiplicity = 1

 SCF Done:  E(RB3LYP) =  -853.185300624     A.U. after   18 cycles
 SCF Done:  E(RB3LYP) =  -853.207313009     A.U. after   15 cycles
 SCF Done:  E(RB3LYP) =  -853.214429374     A.U. after   15 cycles
 SCF Done:  E(RB3LYP) =  -853.216863206     A.U. after   15 cycles
 SCF Done:  E(RB3LYP) =  -853.218441444     A.U. after   15 cycles
 SCF Done:  E(RB3LYP) =  -853.220101871     A.U. after   15 cycles
 SCF Done:  E(RB3LYP) =  -853.222585540     A.U. after   16 cycles
 SCF Done:  E(RB3LYP) =  -853.225586585     A.U. after   15 cycles
 SCF Done:  E(RB3LYP) =  -853.233150187     A.U. after   15 cycles
 SCF Done:  E(RB3LYP) =  -853.257022395     A.U. after   15 cycles
 SCF Done:  E(RB3LYP) =  -853.329970068     A.U. after    9 cycles
 SCF Done:  E(RB3LYP) =  -853.329970180     A.U. after    9 cycles
 SCF Done:  E(RB3LYP) =  -853.329970252     A.U. after    9 cycles
 SCF Done:  E(RB3LYP) =  -853.329970415     A.U. after    9 cycles
 SCF Done:  E(RB3LYP) =  -853.329970486     A.U. after    9 cycles
 SCF Done:  E(RB3LYP) =  -853.329970425     A.U. after    9 cycles
 Optimization completed.
    -- Stationary point found.
 Normal termination of Gaussian 16 at Tue Dec  8 10:28:28 2020.

 --------------------------------------------------------------------
 #N Geom=AllCheck Guess=TCheck SCRF=Check GenChk RB3LYP/6-31G(d) Freq
 --------------------------------------------------------------------

 Structure from the checkpoint file:  "JID_232.chk"
 -----------------------------
 CID_54246956_JID_232_neutraal
 -----------------------------
 Charge =  0 Multiplicity = 1

 SCF Done:  E(RB3LYP) =  -853.329970425     A.U. after    1 cycles

  Exact polarizability: 126.632   0.653  85.467 -14.444  -0.601  64.818
 Approx polarizability: 207.494  -0.170 140.456 -45.598   0.422 110.236

                      1                      2                      3
                      A                      A                      A
 Frequencies --     14.8193                37.1897                44.7779
 Red. masses --      4.3379                 5.1491                 4.1498
 Frc consts  --      0.0006                 0.0042                 0.0049
 IR Inten    --      0.0787                 0.1442                 0.8932

                      4                      5                      6
                      A                      A                      A
 Frequencies --    131.4441               141.5654               190.5753
 Red. masses --      2.5569                 4.1749                 1.6384
 Frc consts  --      0.0260                 0.0493                 0.0351
 IR Inten    --      0.1861                21.8068                 5.1563

                      7                      8                      9
                      A                      A                      A
 Frequencies --    247.1333               279.4808               305.3962
 Red. masses --      6.9950                 1.7708                 3.7690
 Frc consts  --      0.2517                 0.0815                 0.2071
 IR Inten    --      8.1210                 1.4879                 2.2310

                     10                     11                     12
                      A                      A                      A
 Frequencies --    364.3957               398.4825               437.5107
 Red. masses --      1.3913                 3.3023                 7.9641
 Frc consts  --      0.1088                 0.3089                 0.8982
 IR Inten    --    113.1484                 2.0610                19.9592

                     13                     14                     15
                      A                      A                      A
 Frequencies --    499.4256               549.0616               562.6471
 Red. masses --      4.9287                10.3164                 4.9149
 Frc consts  --      0.7243                 1.8324                 0.9167
 IR Inten    --     11.4755                 2.3940                24.3351

                     16                     17                     18
                      A                      A                      A
 Frequencies --    697.5232               753.5388               778.4194
 Red. masses --     11.4591                 6.9330                 1.4456
 Frc consts  --      3.2849                 2.3194                 0.5161
 IR Inten    --     24.6791                23.5977                15.4124

                     19                     20                     21
                      A                      A                      A
 Frequencies --    811.4493               856.5788               900.3253
 Red. masses --      6.1804                 7.6362                 2.6341
 Frc consts  --      2.3977                 3.3011                 1.2580
 IR Inten    --     20.8160               106.4807                12.1830

                     22                     23                     24
                      A                      A                      A
 Frequencies --    937.4434               995.8864              1064.9525
 Red. masses --      1.2219                 2.0698                 8.2812
 Frc consts  --      0.6327                 1.2095                 5.5335
 IR Inten    --      2.5551                80.1861                35.9200

                     25                     26                     27
                      A                      A                      A
 Frequencies --   1082.9726              1131.6686              1151.7976
 Red. masses --      3.0407                 4.6632                 2.5796
 Frc consts  --      2.1012                 3.5186                 2.0163
 IR Inten    --     31.4943                 8.3956                21.7539

                     28                     29                     30
                      A                      A                      A
 Frequencies --   1172.2177              1191.9430              1275.8534
 Red. masses --      4.9295                 1.9055                 1.1613
 Frc consts  --      3.9909                 1.5950                 1.1138
 IR Inten    --     14.7540                 6.2639                 2.7113

                     31                     32                     33
                      A                      A                      A
 Frequencies --   1321.9480              1371.3144              1393.1345
 Red. masses --      1.1846                 1.3764                 1.3606
 Frc consts  --      1.2197                 1.5250                 1.5558
 IR Inten    --      3.5879                27.4445                13.8124

                     34                     35                     36
                      A                      A                      A
 Frequencies --   1424.7823              1445.0851              1509.5416
 Red. masses --      1.4349                 1.2551                 1.0772
 Frc consts  --      1.7162                 1.5442                 1.4463
 IR Inten    --     12.6769                11.1365                 2.6038

                     37                     38                     39
                      A                      A                      A
 Frequencies --   1526.6066              1539.2429              1549.0029
 Red. masses --      1.0443                 1.0567                 1.0823
 Frc consts  --      1.4339                 1.4750                 1.5301
 IR Inten    --      7.7777                 7.9063                18.0271

                     40                     41                     42
                      A                      A                      A
 Frequencies --   1797.6437              3016.8670              3049.0541
 Red. masses --     11.6179                 1.0613                 1.0643
 Frc consts  --     22.1201                 5.6914                 5.8298
 IR Inten    --    407.9507                37.2138                10.4174

                     43                     44                     45
                      A                      A                      A
 Frequencies --   3052.9487              3071.2487              3087.8713
 Red. masses --      1.0392                 1.0989                 1.1017
 Frc consts  --      5.7069                 6.1073                 6.1892
 IR Inten    --     19.7665                63.4287                20.2769

                     46                     47                     48
                      A                      A                      A
 Frequencies --   3118.7322              3139.5392              3629.0449
 Red. masses --      1.1007                 1.1023                 1.0780
 Frc consts  --      6.3077                 6.4014                 8.3646
 IR Inten    --     42.2492                32.6830                69.0741

 - Thermochemistry -
 -------------------
 Temperature   298.150 Kelvin.  Pressure   1.00000 Atm.
 Atom     1 has atomic number  6 and mass  12.00000

 Molecular mass:   160.03065 amu.
 Principal axes and moments of inertia in atomic units:
                           1         2         3
     Eigenvalues --   725.029682971.323273269.54004
           X            0.99993  -0.00153   0.01137
           Y            0.00208   0.99880  -0.04886
           Z           -0.01128   0.04888   0.99874
 This molecule is an asymmetric top.
 Rotational symmetry number  1.
 Warning -- assumption of classical behavior for rotation
           may cause significant error
 Rotational temperatures (Kelvin)      0.11946     0.02915     0.02649
 Rotational constants (GHZ):           2.48920     0.60739     0.55199
 Zero-point vibrational energy     353197.9 (Joules/Mol)
                                   84.41633 (Kcal/Mol)
 Warning -- explicit consideration of  15 degrees of freedom as
           vibrations may cause significant error
 Vibrational temperatures:     21.32    53.51    64.43   189.12   203.68
          (Kelvin)            274.20   355.57   402.11   439.40   524.28
                              573.33   629.48   718.56   789.98   809.52
                             1003.58  1084.17  1119.97  1167.49  1232.43
                             1295.37  1348.77  1432.86  1532.23  1558.16
                             1628.22  1657.18  1686.56  1714.94  1835.67
                             1901.99  1973.02  2004.41  2049.94  2079.16
                             2171.89  2196.45  2214.63  2228.67  2586.41
                             4340.60  4386.91  4392.51  4418.84  4442.76
                             4487.16  4517.10  5221.39

 Zero-point correction=                           0.134526 (Hartree/Particle)
 Thermal correction to Energy=                    0.145537
 Thermal correction to Enthalpy=                  0.146482
 Thermal correction to Gibbs Free Energy=         0.094996
 Sum of electronic and zero-point Energies=           -853.195444
 Sum of electronic and thermal Energies=              -853.184433
 Sum of electronic and thermal Enthalpies=            -853.183489
 Sum of electronic and thermal Free Energies=         -853.234975

                     E (Thermal)             CV                S
                      KCal/Mol        Cal/Mol-Kelvin    Cal/Mol-Kelvin
 Total                   91.326             37.967            108.361
 Electronic               0.000              0.000              0.000
 Translational            0.889              2.981             41.120
 Rotational               0.889              2.981             30.333
 Vibrational             89.549             32.006             36.908
 Vibration     1          0.593              1.986              7.230
 Vibration     2          0.594              1.982              5.403
 Vibration     3          0.595              1.979              5.036
 Vibration     4          0.612              1.922              2.925
 Vibration     5          0.615              1.912              2.783
 Vibration     6          0.634              1.853              2.222
 Vibration     7          0.661              1.768              1.751
 Vibration     8          0.680              1.712              1.537
 Vibration     9          0.696              1.663              1.387
 Vibration    10          0.738              1.546              1.103
 Vibration    11          0.765              1.473              0.968
 Vibration    12          0.798              1.388              0.834
 Vibration    13          0.855              1.251              0.660
 Vibration    14          0.904              1.142              0.546
 Vibration    15          0.918              1.112              0.519

                           ! Non-Optimized Parameters !
 Normal termination of Gaussian 16 at Tue Dec  8 10:31:07 2020.

 ----------------------------------------------------------------------
 # B3LYP/6-311++G(d,p) empiricaldispersion=gd3bj scf=xqc pop=npa geom=c
 heck
 ----------------------------------------------------------------------

 -------------------------------------
 CID_54246956_JID_232_Energie_neutraal
 -------------------------------------
 Structure from the checkpoint file:  "JID_232.chk"
 Charge =  0 Multiplicity = 1

 SCF Done:  E(RB3LYP) =  -853.494958653     A.U. after   16 cycles
 Normal termination of Gaussian 16 at Tue Dec  8 10:33:34 2020.

 ----------------------------------------------------------------------
 # B3LYP/6-311++G(d,p) empiricaldispersion=gd3bj scf=xqc pop=npa geom=c
 heck
 ----------------------------------------------------------------------

 -----------------------------------
 CID_54246956_JID_232_Energie_kation
 -----------------------------------
 Structure from the checkpoint file:  "JID_232.chk"
 Charge =  1 Multiplicity = 2

 SCF Done:  E(UB3LYP) =  -853.168186065     A.U. after   24 cycles
 Normal termination of Gaussian 16 at Tue Dec  8 10:42:13 2020.
 Gaussian 16:  ES64L-G16RevA.03 25-Dec-2016

 ----------------------------------------------------------------------
 # B3LYP/6-311++G(d,p) empiricaldispersion=gd3bj scf=xqc pop=npa geom=c
 heck
 ----------------------------------------------------------------------

 ----------------------------------
 CID_54246956_JID_232_Energie_anion
 ----------------------------------
 Structure from the checkpoint file:  "JID_232.chk"
 Charge = -1 Multiplicity = 2

                         Standard orientation:
 ---------------------------------------------------------------------
 Center     Atomic      Atomic             Coordinates (Angstroms)
 Number     Number       Type             X           Y           Z
 ---------------------------------------------------------------------
      1          6           0        3.433373   -0.493520    1.101061
      2          6           0        3.276205    0.608780    0.050301
      3          6           0        2.054341    0.420406   -0.838055
      4          8           0        0.902541    0.511884    0.009968
      5          7           0       -0.277987    0.289268   -0.803597
      6          7           0       -1.300963    1.024144   -0.233960
      7          6           0       -2.421480    0.420972    0.349726
      8          6           0       -2.266477   -1.093546    0.369826
      9          8           0       -3.385619    1.047700    0.732327
     10         16           0       -0.878803   -1.460688   -0.341462
     11          1           0        2.566648   -0.523318    1.767606
     12          1           0        4.327934   -0.329529    1.710654
     13          1           0        3.526970   -1.477660    0.625833
     14          1           0        3.208500    1.589871    0.536254
     15          1           0        4.157294    0.640197   -0.603455
     16          1           0        1.994910    1.187743   -1.620314
     17          1           0        2.080687   -0.564949   -1.326398
     18          1           0       -1.340603    1.999535   -0.499398
 ---------------------------------------------------------------------

 SCF Done:  E(UB3LYP) =  -853.549847517     A.U. after   22 cycles

 The electronic state is 2-A.
 Alpha  occ. eigenvalues --  -88.70607 -19.01290 -18.92495 -14.25026 -14.20550
 Alpha  occ. eigenvalues --  -10.10686 -10.10313 -10.07391 -10.06293  -9.99020
 Alpha  occ. eigenvalues --   -7.79228  -5.75725  -5.74974  -5.74859  -0.94593
 Alpha  occ. eigenvalues --   -0.87953  -0.81448  -0.68383  -0.64632  -0.60911
 Alpha  occ. eigenvalues --   -0.55838  -0.48127  -0.45602  -0.41392  -0.39956
 Alpha  occ. eigenvalues --   -0.36390  -0.33833  -0.32876  -0.30673  -0.28606
 Alpha  occ. eigenvalues --   -0.27188  -0.26103  -0.25007  -0.24497  -0.23916
 Alpha  occ. eigenvalues --   -0.20305  -0.18803  -0.15313  -0.14200  -0.10477
 Alpha  occ. eigenvalues --   -0.09378  -0.05642   0.01783
 Alpha virt. eigenvalues --    0.07173   0.09071   0.09869   0.10775   0.12254
 Alpha virt. eigenvalues --    0.12464   0.13526   0.13888   0.14688   0.15479
 Alpha virt. eigenvalues --    0.17384   0.17653   0.18388   0.18818   0.19000

  Beta  occ. eigenvalues --  -88.70500 -19.01190 -18.92147 -14.25048 -14.20494
  Beta  occ. eigenvalues --  -10.10613 -10.10313 -10.07390 -10.06290  -9.98165
  Beta  occ. eigenvalues --   -7.79133  -5.75671  -5.74935  -5.74495  -0.94437
  Beta  occ. eigenvalues --   -0.87443  -0.81232  -0.68341  -0.63837  -0.60609
  Beta  occ. eigenvalues --   -0.55716  -0.48063  -0.45092  -0.40712  -0.39540
  Beta  occ. eigenvalues --   -0.36339  -0.33555  -0.32803  -0.30542  -0.28374
  Beta  occ. eigenvalues --   -0.26824  -0.25543  -0.24839  -0.23971  -0.23704
  Beta  occ. eigenvalues --   -0.19698  -0.18214  -0.14662  -0.12096  -0.09606
  Beta  occ. eigenvalues --   -0.08706  -0.04530
  Beta virt. eigenvalues --    0.07113   0.09030   0.09824   0.10552   0.10761
  Beta virt. eigenvalues --    0.12308   0.12500   0.13570   0.14035   0.14656
  Beta virt. eigenvalues --    0.15495   0.17488   0.17664   0.18424   0.18807

 Mulliken charges and spin densities:
               1          2
     1  C   -0.418832  -0.003806
     2  C   -0.252280  -0.062379
     3  C   -0.234584   0.105331
     4  O    0.028291   0.063370
     5  N    0.000567  -0.088227
     6  N   -0.383296   0.018847
     7  C   -0.121889   0.078967
     8  C   -0.273503   0.616582
     9  O   -0.383957   0.117732
    10  S   -0.069096   0.137561
    11  H    0.147645   0.008912
    12  H    0.112712  -0.000411
    13  H    0.100088   0.008957
    14  H    0.140362  -0.000580
    15  H    0.091848   0.013456
    16  H    0.103979   0.005137
    17  H    0.131470  -0.015491
    18  H    0.280474  -0.003960
 Sum of Mulliken charges =  -1.00000   1.00000

 Dipole moment (field-independent basis, Debye):
    X=             10.3645    Y=              2.2106    Z=             -2.4045  Tot=             10.8670
 Quadrupole moment (field-independent basis, Debye-Ang):
   XX=           -109.9810   YY=            -78.5097   ZZ=            -76.2843
   XY=             -2.2562   XZ=              6.9289   YZ=             -1.4318

 Summary of Natural Population Analysis:

                                       Natural Population
                Natural  -----------------------------------------------
    Atom  No    Charge         Core      Valence    Rydberg      Total
 -----------------------------------------------------------------------
      C    1   -0.28760      0.99967     2.28332    0.00461     3.28760
      C    2   -0.19829      0.99964     2.19197    0.00668     3.19829
      C    3   -0.00941      0.99961     1.99700    0.01280     3.00941
      O    4   -0.23513      0.99989     3.22278    0.01246     4.23513
      N    5   -0.11539      0.99982     2.59264    0.02294     3.61539
      N    6   -0.24144      0.99966     2.72505    0.01673     3.74144
      C    7    0.29905      0.99966     1.67598    0.02531     2.70095
      C    8   -0.03876      0.99964     2.01280    0.02632     3.03876
      O    9   -0.27433      0.99987     3.26761    0.00686     4.27433
      S   10    0.27650      4.99935     2.69911    0.02503     7.72350
      H   11    0.11012      0.00000     0.38883    0.00105     0.38988
      H   12    0.08984      0.00000     0.40930    0.00086     0.41016
      H   13    0.09415      0.00000     0.40494    0.00091     0.40585
      H   14    0.09550      0.00000     0.40317    0.00133     0.40450
      H   15    0.08951      0.00000     0.40934    0.00115     0.41049
      H   16    0.07740      0.00000     0.41911    0.00348     0.42260
      H   17    0.07887      0.00000     0.41909    0.00204     0.42113
      H   18    0.18940      0.00000     0.30885    0.00175     0.31060
 =======================================================================
   * Total *   -0.00000     13.99680    27.83089    0.17231    42.00000

 Normal termination of Gaussian 16 at Tue Dec  8 10:48:42 2020.
