 Gaussian 16, Revision A.03,

 -----------------------------------------------------------
 # opt freq B3LYP/6-31G(d) empiricaldispersion=gd3bj scf=xqc
 -----------------------------------------------------------

 -------------------------------
 CID_103103794_JID_8718_neutraal
 -------------------------------
 Symbolic Z-matrix:
 Charge =  0 Multiplicity = 1

 SCF Done:  E(RB3LYP) =  -835.255727016     A.U. after   15 cycles
 SCF Done:  E(RB3LYP) =  -835.261204975     A.U. after   13 cycles
 SCF Done:  E(RB3LYP) =  -835.261250529     A.U. after   13 cycles
 SCF Done:  E(RB3LYP) =  -835.262681518     A.U. after   13 cycles
 SCF Done:  E(RB3LYP) =  -835.263318017     A.U. after   12 cycles
 SCF Done:  E(RB3LYP) =  -835.263877710     A.U. after   12 cycles
 SCF Done:  E(RB3LYP) =  -835.264070319     A.U. after   11 cycles
 SCF Done:  E(RB3LYP) =  -835.264147715     A.U. after   11 cycles
 SCF Done:  E(RB3LYP) =  -835.264201623     A.U. after   11 cycles
 SCF Done:  E(RB3LYP) =  -835.264207288     A.U. after   10 cycles
 SCF Done:  E(RB3LYP) =  -835.264209535     A.U. after    8 cycles
 SCF Done:  E(RB3LYP) =  -835.264209769     A.U. after    7 cycles
 SCF Done:  E(RB3LYP) =  -835.264210040     A.U. after    8 cycles
 SCF Done:  E(RB3LYP) =  -835.264210286     A.U. after    8 cycles
 Optimization completed.
    -- Stationary point found.
 Normal termination of Gaussian 16 at Fri Dec 11 22:15:14 2020.

 --------------------------------------------------------------------
 #N Geom=AllCheck Guess=TCheck SCRF=Check GenChk RB3LYP/6-31G(d) Freq
 --------------------------------------------------------------------

 Structure from the checkpoint file:  "JID_8718.chk"
 -------------------------------
 CID_103103794_JID_8718_neutraal
 -------------------------------
 Charge =  0 Multiplicity = 1

 SCF Done:  E(RB3LYP) =  -835.264210287     A.U. after    1 cycles

  Exact polarizability: 219.323   1.295 153.460  -9.754   4.710  93.796
 Approx polarizability: 301.981  -4.306 267.434 -19.929   2.807 155.452

                      1                      2                      3
                      A                      A                      A
 Frequencies --     36.9541                47.1830                52.5313
 Red. masses --      8.4088                 5.5240                 4.5111
 Frc consts  --      0.0068                 0.0072                 0.0073
 IR Inten    --      1.9341                 1.7923                 1.2328

                      4                      5                      6
                      A                      A                      A
 Frequencies --     82.1054                91.7502               118.5307
 Red. masses --      5.6960                 5.0993                 5.0823
 Frc consts  --      0.0226                 0.0253                 0.0421
 IR Inten    --      0.4342                 4.2190                 3.8165

                      7                      8                      9
                      A                      A                      A
 Frequencies --    133.6069               168.5128               215.8267
 Red. masses --      2.9710                 4.6027                 2.2393
 Frc consts  --      0.0312                 0.0770                 0.0615
 IR Inten    --      1.9885                 2.1830                 2.4661

                     10                     11                     12
                      A                      A                      A
 Frequencies --    232.6682               247.9611               275.3085
 Red. masses --      1.7286                 2.8983                 2.6394
 Frc consts  --      0.0551                 0.1050                 0.1179
 IR Inten    --      1.1783                37.1059                47.9352

                     13                     14                     15
                      A                      A                      A
 Frequencies --    286.1769               298.9042               323.7446
 Red. masses --      1.4641                 4.9625                 3.6697
 Frc consts  --      0.0706                 0.2612                 0.2266
 IR Inten    --    154.0534                 8.4455                 3.3462

                     16                     17                     18
                      A                      A                      A
 Frequencies --    398.4974               401.7127               419.9607
 Red. masses --      4.3662                 2.8618                 5.3097
 Frc consts  --      0.4085                 0.2721                 0.5517
 IR Inten    --      9.9443                13.0791                19.1772

                     19                     20                     21
                      A                      A                      A
 Frequencies --    436.6708               449.9955               489.0153
 Red. masses --      2.9720                 1.3683                 2.9060
 Frc consts  --      0.3339                 0.1632                 0.4094
 IR Inten    --      9.5861               101.3667                 4.5087

                     22                     23                     24
                      A                      A                      A
 Frequencies --    510.9536               535.2938               546.8747
 Red. masses --      2.5087                 2.5436                 3.0846
 Frc consts  --      0.3859                 0.4294                 0.5435
 IR Inten    --      4.8940                 5.4996                16.8451

                     25                     26                     27
                      A                      A                      A
 Frequencies --    594.5915               642.1500               651.4037
 Red. masses --      6.1843                 4.8280                 2.6916
 Frc consts  --      1.2882                 1.1730                 0.6729
 IR Inten    --      2.7238                 2.4502                 0.6320

                     28                     29                     30
                      A                      A                      A
 Frequencies --    682.0942               689.8971               757.7358
 Red. masses --      4.4690                 1.4563                 3.9215
 Frc consts  --      1.2250                 0.4084                 1.3266
 IR Inten    --      6.8992                 3.7681                13.8420

                     31                     32                     33
                      A                      A                      A
 Frequencies --    758.6834               780.9280               814.2951
 Red. masses --      3.1415                 4.6865                 1.7488
 Frc consts  --      1.0654                 1.6839                 0.6832
 IR Inten    --      5.1428                 6.7930                22.3995

                     34                     35                     36
                      A                      A                      A
 Frequencies --    817.7516               853.2690               860.9871
 Red. masses --      3.4349                 1.5133                 3.4425
 Frc consts  --      1.3533                 0.6491                 1.5035
 IR Inten    --      2.5104                 4.5621                 1.3535

                     37                     38                     39
                      A                      A                      A
 Frequencies --    865.4732               872.1967               895.8629
 Red. masses --      1.7350                 2.1078                 1.5920
 Frc consts  --      0.7657                 0.9447                 0.7528
 IR Inten    --     24.2699                 4.4116                11.6323

                     40                     41                     42
                      A                      A                      A
 Frequencies --    942.2057               951.0506               979.4963
 Red. masses --      3.7065                 5.5038                 1.2900
 Frc consts  --      1.9387                 2.9331                 0.7292
 IR Inten    --     20.3423                 1.6477                 6.1607

                     43                     44                     45
                      A                      A                      A
 Frequencies --   1005.6363              1024.6878              1090.0676
 Red. masses --      2.3392                 2.3868                 1.8537
 Frc consts  --      1.3938                 1.4765                 1.2978
 IR Inten    --     39.0973                 6.0117                26.2627

                     46                     47                     48
                      A                      A                      A
 Frequencies --   1109.5954              1113.2280              1116.9394
 Red. masses --      1.7107                 1.8752                 1.9215
 Frc consts  --      1.2410                 1.3692                 1.4124
 IR Inten    --     22.9504                 3.6177                21.8511

                     49                     50                     51
                      A                      A                      A
 Frequencies --   1156.8613              1163.7430              1217.6134
 Red. masses --      1.8848                 1.9873                 1.7964
 Frc consts  --      1.4862                 1.5857                 1.5692
 IR Inten    --     11.0351                 7.5293                35.5334

                     52                     53                     54
                      A                      A                      A
 Frequencies --   1250.8012              1264.5569              1291.4377
 Red. masses --      1.9414                 1.9807                 1.6168
 Frc consts  --      1.7895                 1.8661                 1.5888
 IR Inten    --     83.8404                53.5392                50.7184

                     55                     56                     57
                      A                      A                      A
 Frequencies --   1310.6220              1340.4455              1352.6876
 Red. masses --      4.1318                 1.7673                 1.5918
 Frc consts  --      4.1816                 1.8709                 1.7161
 IR Inten    --     83.7566                58.9749                85.7200

                     58                     59                     60
                      A                      A                      A
 Frequencies --   1366.5900              1375.5445              1392.2468
 Red. masses --      3.3007                 1.4581                 6.1890
 Frc consts  --      3.6318                 1.6255                 7.0681
 IR Inten    --     81.2354                46.9204                 7.2984

                     61                     62                     63
                      A                      A                      A
 Frequencies --   1411.4499              1413.2738              1436.6686
 Red. masses --      1.3101                 2.1289                 1.2766
 Frc consts  --      1.5377                 2.5053                 1.5525
 IR Inten    --      6.3468                46.2767                22.4277

                     64                     65                     66
                      A                      A                      A
 Frequencies --   1448.6797              1488.2508              1495.2543
 Red. masses --      2.1885                 3.0885                 1.1050
 Frc consts  --      2.7061                 4.0304                 1.4556
 IR Inten    --    175.4766                32.7112                 9.6276

                     67                     68                     69
                      A                      A                      A
 Frequencies --   1513.8337              1523.2020              1534.4261
 Red. masses --      1.1204                 1.0600                 4.7303
 Frc consts  --      1.5127                 1.4490                 6.5619
 IR Inten    --     22.7120                 6.9001                22.4686

                     70                     71                     72
                      A                      A                      A
 Frequencies --   1538.8028              1552.7886              1617.4787
 Red. masses --      1.0534                 3.1318                 1.3116
 Frc consts  --      1.4697                 4.4491                 2.0217
 IR Inten    --      6.3747                49.2477               136.8628

                     73                     74                     75
                      A                      A                      A
 Frequencies --   1626.7166              1685.3235              1731.5931
 Red. masses --      6.8838                 6.7747                10.3496
 Frc consts  --     10.7325                11.3372                18.2838
 IR Inten    --      5.6499                21.0956               223.5500

                     76                     77                     78
                      A                      A                      A
 Frequencies --   1817.7388              3058.4019              3071.7486
 Red. masses --      9.5820                 1.0378                 1.0667
 Frc consts  --     18.6539                 5.7193                 5.9301
 IR Inten    --    335.6273                17.8601                21.2645

                     79                     80                     81
                      A                      A                      A
 Frequencies --   3079.6881              3117.2140              3143.0550
 Red. masses --      1.0678                 1.1015                 1.0977
 Frc consts  --      5.9667                 6.3063                 6.3893
 IR Inten    --     31.3504                24.8437                14.9237

                     82                     83                     84
                      A                      A                      A
 Frequencies --   3151.7601              3158.4512              3214.6345
 Red. masses --      1.0947                 1.1029                 1.0879
 Frc consts  --      6.4069                 6.4823                 6.6235
 IR Inten    --      2.4228                17.2646                 1.6627

                     85                     86                     87
                      A                      A                      A
 Frequencies --   3225.2947              3228.6853              3260.7857
 Red. masses --      1.0914                 1.0944                 1.0971
 Frc consts  --      6.6889                 6.7220                 6.8728
 IR Inten    --      1.4204                 3.8107                 2.9293

                     88                     89                     90
                      A                      A                      A
 Frequencies --   3593.6040              3658.2952              3722.1746
 Red. masses --      1.0440                 1.0808                 1.1059
 Frc consts  --      7.9436                 8.5224                 9.0271
 IR Inten    --     32.2541                65.0002                62.0975

 - Thermochemistry -
 -------------------
 Temperature   298.150 Kelvin.  Pressure   1.00000 Atm.
 Atom     1 has atomic number  6 and mass  12.00000

 Molecular mass:   246.11168 amu.
 Principal axes and moments of inertia in atomic units:
                           1         2         3
     Eigenvalues --  2385.857537360.598099044.47816
           X            0.99993   0.01140  -0.00119
           Y           -0.01135   0.99945   0.03109
           Z            0.00155  -0.03108   0.99952
 This molecule is an asymmetric top.
 Rotational symmetry number  1.
 Warning -- assumption of classical behavior for rotation
           may cause significant error
 Rotational temperatures (Kelvin)      0.03630     0.01177     0.00958
 Rotational constants (GHZ):           0.75643     0.24519     0.19954
 Zero-point vibrational energy     679917.9 (Joules/Mol)
                                  162.50427 (Kcal/Mol)
 Warning -- explicit consideration of  25 degrees of freedom as
           vibrations may cause significant error
 Vibrational temperatures:     53.17    67.89    75.58   118.13   132.01
          (Kelvin)            170.54   192.23   242.45   310.53   334.76
                              356.76   396.11   411.74   430.06   465.80
                              573.35   577.98   604.23   628.27   647.44
                              703.58   735.15   770.17   786.83   855.48
                              923.91   937.22   981.38   992.61  1090.21
                             1091.58  1123.58  1171.59  1176.56  1227.66
                             1238.77  1245.22  1254.90  1288.95  1355.62
                             1368.35  1409.28  1446.89  1474.30  1568.36
                             1596.46  1601.69  1607.03  1664.47  1674.37
                             1751.87  1799.62  1819.42  1858.09  1885.69
                             1928.60  1946.22  1966.22  1979.10  2003.13
                             2030.76  2033.39  2067.05  2084.33  2141.26
                             2151.34  2178.07  2191.55  2207.70  2213.99
                             2234.12  2327.19  2340.48  2424.80  2491.38
                             2615.32  4400.36  4419.56  4430.98  4484.98
                             4522.16  4534.68  4544.31  4625.14  4640.48
                             4645.36  4691.54  5170.39  5263.47  5355.38

 Zero-point correction=                           0.258967 (Hartree/Particle)
 Thermal correction to Energy=                    0.275266
 Thermal correction to Enthalpy=                  0.276210
 Thermal correction to Gibbs Free Energy=         0.214386
 Sum of electronic and zero-point Energies=           -835.005243
 Sum of electronic and thermal Energies=              -834.988944
 Sum of electronic and thermal Enthalpies=            -834.988000
 Sum of electronic and thermal Free Energies=         -835.049824

                     E (Thermal)             CV                S
                      KCal/Mol        Cal/Mol-Kelvin    Cal/Mol-Kelvin
 Total                  172.732             62.353            130.120
 Electronic               0.000              0.000              0.000
 Translational            0.889              2.981             42.403
 Rotational               0.889              2.981             33.429
 Vibrational            170.955             56.392             54.288
 Vibration     1          0.594              1.982              5.416
 Vibration     2          0.595              1.979              4.932
 Vibration     3          0.596              1.977              4.720
 Vibration     4          0.600              1.961              3.840
 Vibration     5          0.602              1.955              3.622
 Vibration     6          0.609              1.934              3.124
 Vibration     7          0.613              1.920              2.893
 Vibration     8          0.625              1.881              2.452
 Vibration     9          0.645              1.817              1.994
 Vibration    10          0.653              1.791              1.858
 Vibration    11          0.662              1.766              1.745
 Vibration    12          0.677              1.719              1.563
 Vibration    13          0.684              1.699              1.496
 Vibration    14          0.692              1.676              1.423
 Vibration    15          0.708              1.628              1.291
 Vibration    16          0.765              1.473              0.968
 Vibration    17          0.767              1.466              0.956
 Vibration    18          0.783              1.427              0.892
 Vibration    19          0.797              1.390              0.837
 Vibration    20          0.809              1.361              0.796
 Vibration    21          0.845              1.274              0.686
 Vibration    22          0.866              1.226              0.631
 Vibration    23          0.890              1.172              0.575
 Vibration    24          0.902              1.147              0.551
 Vibration    25          0.952              1.043              0.459

                           ! Non-Optimized Parameters !
 Normal termination of Gaussian 16 at Fri Dec 11 22:27:12 2020.

 ----------------------------------------------------------------------
 # B3LYP/6-311++G(d,p) empiricaldispersion=gd3bj scf=xqc pop=npa geom=c
 heck
 ----------------------------------------------------------------------

 ---------------------------------------
 CID_103103794_JID_8718_Energie_neutraal
 ---------------------------------------
 Structure from the checkpoint file:  "JID_8718.chk"
 Charge =  0 Multiplicity = 1

 SCF Done:  E(RB3LYP) =  -835.503388112     A.U. after   17 cycles
 Normal termination of Gaussian 16 at Fri Dec 11 22:32:33 2020.

 ----------------------------------------------------------------------
 # B3LYP/6-311++G(d,p) empiricaldispersion=gd3bj scf=xqc pop=npa geom=c
 heck
 ----------------------------------------------------------------------

 -------------------------------------
 CID_103103794_JID_8718_Energie_kation
 -------------------------------------
 Structure from the checkpoint file:  "JID_8718.chk"
 Charge =  1 Multiplicity = 2

 SCF Done:  E(UB3LYP) =  -835.197702409     A.U. after   33 cycles
 SCF Done:  E(UB3LYP) =  -835.197702409     a.u. after    1 cycles
 Normal termination of Gaussian 16 at Fri Dec 11 22:47:12 2020.
 Gaussian 16:  ES64L-G16RevA.03 25-Dec-2016

 ----------------------------------------------------------------------
 # B3LYP/6-311++G(d,p) empiricaldispersion=gd3bj scf=xqc pop=npa geom=c
 heck
 ----------------------------------------------------------------------

 ------------------------------------
 CID_103103794_JID_8718_Energie_anion
 ------------------------------------
 Structure from the checkpoint file:  "JID_8718.chk"
 Charge = -1 Multiplicity = 2

                         Standard orientation:
 ---------------------------------------------------------------------
 Center     Atomic      Atomic             Coordinates (Angstroms)
 Number     Number       Type             X           Y           Z
 ---------------------------------------------------------------------
      1          6           0       -3.470374   -2.355245   -0.808721
      2          6           0       -3.218786   -1.330396    0.297655
      3          7           0       -1.982355   -0.554998    0.103245
      4          6           0       -2.077791    0.544076   -0.848612
      5          6           0       -2.689765    1.837854   -0.296736
      6          8           0       -3.037679    2.734169   -1.048657
      7          7           0       -2.777563    1.906723    1.061569
      8          6           0       -0.798980   -1.186434    0.449850
      9          8           0       -0.809027   -2.330255    0.901308
     10          6           0        0.497961   -0.447583    0.296178
     11          6           0        1.604564   -1.227544   -0.052917
     12          6           0        2.831336   -0.582057   -0.149145
     13          6           0        2.991791    0.802336    0.115972
     14          6           0        1.880855    1.564424    0.493900
     15          6           0        0.646759    0.932331    0.576314
     16          7           0        4.319520    1.176861   -0.047113
     17          6           0        4.935630    0.074430   -0.393967
     18          7           0        4.104441   -1.019919   -0.476032
     19          1           0       -3.533270   -1.879250   -1.793739
     20          1           0       -4.416168   -2.878341   -0.629991
     21          1           0       -2.662939   -3.091009   -0.822694
     22          1           0       -4.042494   -0.610868    0.357280
     23          1           0       -3.138228   -1.838005    1.260461
     24          1           0       -1.090576    0.788463   -1.243130
     25          1           0       -2.694288    0.250144   -1.705311
     26          1           0       -2.526238    1.116540    1.636862
     27          1           0       -3.193529    2.725397    1.481154
     28          1           0        1.479608   -2.291567   -0.220450
     29          1           0        1.992104    2.619373    0.721106
     30          1           0       -0.216272    1.509342    0.888496
     31          1           0        5.994436   -0.007430   -0.604360
     32          1           0        4.373998   -1.961917   -0.717210
 ---------------------------------------------------------------------

 SCF Done:  E(UB3LYP) =  -835.504624033     A.U. after   33 cycles
 SCF Done:  E(UB3LYP) =  -835.504781510     a.u. after    6 cycles

 The electronic state is 2-A.
 Alpha  occ. eigenvalues --  -19.00385 -18.96659 -14.25082 -14.24951 -14.23705
 Alpha  occ. eigenvalues --  -14.18313 -10.18895 -10.14882 -10.12007 -10.11510
 Alpha  occ. eigenvalues --  -10.10934 -10.09158 -10.07168 -10.07065 -10.05796
 Alpha  occ. eigenvalues --  -10.05510 -10.05168 -10.04752  -0.95474  -0.92300
 Alpha  occ. eigenvalues --   -0.90053  -0.83971  -0.81608  -0.76443  -0.73014
 Alpha  occ. eigenvalues --   -0.67241  -0.63773  -0.62884  -0.62211  -0.55429
 Alpha  occ. eigenvalues --   -0.51850  -0.51156  -0.50653  -0.49039  -0.46461
 Alpha  occ. eigenvalues --   -0.45018  -0.43808  -0.40959  -0.39687  -0.37232
 Alpha  occ. eigenvalues --   -0.36506  -0.35498  -0.34552  -0.33763  -0.33548
 Alpha  occ. eigenvalues --   -0.32888  -0.31996  -0.31335  -0.30561  -0.30454
 Alpha  occ. eigenvalues --   -0.29106  -0.27860  -0.27405  -0.26189  -0.25454
 Alpha  occ. eigenvalues --   -0.24326  -0.22535  -0.19553  -0.19234  -0.18497
 Alpha  occ. eigenvalues --   -0.16498  -0.15323  -0.13798  -0.12256  -0.11500
 Alpha  occ. eigenvalues --    0.03992
 Alpha virt. eigenvalues --    0.05694   0.06156   0.06898   0.08689   0.08942
 Alpha virt. eigenvalues --    0.09193   0.09960   0.10016   0.10511   0.10969
 Alpha virt. eigenvalues --    0.11612   0.12088   0.13202   0.13429   0.13664

  Beta  occ. eigenvalues --  -19.00377 -18.96523 -14.25070 -14.24865 -14.23676
  Beta  occ. eigenvalues --  -14.18371 -10.18884 -10.14760 -10.12004 -10.11299
  Beta  occ. eigenvalues --  -10.10929 -10.09220 -10.07049 -10.07043 -10.05827
  Beta  occ. eigenvalues --  -10.05399 -10.05086 -10.04509  -0.95455  -0.92058
  Beta  occ. eigenvalues --   -0.89888  -0.83887  -0.81552  -0.76339  -0.72782
  Beta  occ. eigenvalues --   -0.67197  -0.63577  -0.62629  -0.62047  -0.55244
  Beta  occ. eigenvalues --   -0.51652  -0.51073  -0.50452  -0.48885  -0.46424
  Beta  occ. eigenvalues --   -0.44944  -0.43639  -0.40824  -0.39565  -0.37124
  Beta  occ. eigenvalues --   -0.36427  -0.35403  -0.34478  -0.33688  -0.33443
  Beta  occ. eigenvalues --   -0.32438  -0.31860  -0.31262  -0.30448  -0.30261
  Beta  occ. eigenvalues --   -0.29048  -0.27751  -0.27089  -0.26099  -0.25255
  Beta  occ. eigenvalues --   -0.24223  -0.21944  -0.19203  -0.19125  -0.18380
  Beta  occ. eigenvalues --   -0.16520  -0.15083  -0.13555  -0.11612  -0.10564
  Beta virt. eigenvalues --    0.06000   0.06906   0.07003   0.08311   0.08879
  Beta virt. eigenvalues --    0.09101   0.09364   0.10076   0.10137   0.10622
  Beta virt. eigenvalues --    0.11110   0.11658   0.12158   0.13155   0.13596

 Mulliken charges and spin densities:
               1          2
     1  C    0.003201  -0.448572
     2  C   -0.289646   0.113067
     3  N    0.076560   0.028298
     4  C   -0.425256  -0.008051
     5  C    0.173683  -0.116800
     6  O   -0.352759   0.008653
     7  N   -0.414401  -0.018099
     8  C   -0.558605  -0.263283
     9  O   -0.305095   0.047532
    10  C    1.006815  -0.011488
    11  C   -0.143756   0.117801
    12  C    0.440126  -0.311103
    13  C   -0.201041   0.075973
    14  C   -0.403030   0.059796
    15  C   -0.319183  -0.211859
    16  N   -0.164601  -0.044058
    17  C    0.156391   0.258620
    18  N   -0.188981  -0.007989
    19  H    0.088519   0.019157
    20  H   -0.055982   0.188962
    21  H    0.117324   0.074903
    22  H   -0.059958   0.204305
    23  H    0.107419   0.085454
    24  H    0.225871   0.002466
    25  H    0.130174   0.029599
    26  H    0.176888   0.097113
    27  H    0.173404   0.150359
    28  H    0.069592   0.107715
    29  H    0.144386   0.013128
    30  H    0.148694  -0.059313
    31  H   -0.250939   0.413210
    32  H   -0.105816   0.404506
 Sum of Mulliken charges =  -1.00000   1.00000

 Dipole moment (field-independent basis, Debye):
    X=             -4.1061    Y=             -0.0899    Z=              1.1903  Tot=              4.2761
 Quadrupole moment (field-independent basis, Debye-Ang):
   XX=           -178.8766   YY=           -147.6126   ZZ=           -123.3159
   XY=             -1.3217   XZ=             -0.3843   YZ=              9.7498

 Summary of Natural Population Analysis:

                                       Natural Population
                Natural  -----------------------------------------------
    Atom  No    Charge         Core      Valence    Rydberg      Total
 -----------------------------------------------------------------------
      C    1   -0.29396      0.99966     2.29007    0.00423     3.29396
      C    2   -0.08919      0.99962     2.07796    0.01161     3.08919
      N    3   -0.27088      0.99965     2.76117    0.01006     3.77088
      C    4   -0.13095      0.99956     2.12142    0.00998     3.13095
      C    5    0.33208      0.99971     1.64292    0.02529     2.66792
      O    6   -0.32197      0.99987     3.31612    0.00597     4.32197
      N    7   -0.40627      0.99970     2.89951    0.00706     3.90627
      C    8    0.36119      0.99959     1.61705    0.02217     2.63881
      O    9   -0.31554      0.99988     3.31077    0.00489     4.31554
      C   10   -0.05802      0.99948     2.04882    0.00972     3.05802
      C   11   -0.05270      0.99949     2.04433    0.00887     3.05270
      C   12    0.05036      0.99947     1.93860    0.01158     2.94964
      C   13    0.07455      0.99945     1.91172    0.01428     2.92545
      C   14   -0.09168      0.99953     2.08379    0.00837     3.09168
      C   15   -0.11680      0.99955     2.10983    0.00741     3.11680
      N   16   -0.27228      0.99971     2.76297    0.00961     3.77228
      C   17    0.15709      0.99967     1.82485    0.01839     2.84291
      N   18   -0.27452      0.99966     2.76553    0.00933     3.77452
      H   19    0.09285      0.00000     0.40614    0.00101     0.40715
      H   20    0.09695      0.00000     0.40200    0.00105     0.40305
      H   21    0.11060      0.00000     0.38816    0.00123     0.38940
      H   22    0.09054      0.00000     0.40811    0.00135     0.40946
      H   23    0.10799      0.00000     0.39083    0.00118     0.39201
      H   24    0.12676      0.00000     0.37223    0.00101     0.37324
      H   25    0.10430      0.00000     0.39453    0.00116     0.39570
      H   26    0.20308      0.00000     0.29518    0.00173     0.29692
      H   27    0.19549      0.00000     0.30254    0.00197     0.30451
      H   28    0.10660      0.00000     0.39226    0.00114     0.39340
      H   29    0.09901      0.00000     0.39972    0.00127     0.40099
      H   30    0.09759      0.00000     0.40073    0.00169     0.40241
      H   31    0.08579      0.00000     0.41297    0.00125     0.41421
      H   32    0.20193      0.00000     0.29395    0.00412     0.29807
 =======================================================================
   * Total *   -0.00000     17.99325    46.78679    0.21996    65.00000

 Normal termination of Gaussian 16 at Sat Dec 12 00:12:57 2020.
