 Gaussian 16, Revision A.03,

 -----------------------------------------------------------
 # opt freq B3LYP/6-31G(d) empiricaldispersion=gd3bj scf=xqc
 -----------------------------------------------------------

 --------------------------------
 CID_144593787_JID_10012_neutraal
 --------------------------------
 Symbolic Z-matrix:
 Charge =  0 Multiplicity = 1

 SCF Done:  E(RB3LYP) =  -845.878479851     A.U. after   15 cycles
 SCF Done:  E(RB3LYP) =  -845.884475778     A.U. after   12 cycles
 SCF Done:  E(RB3LYP) =  -845.879028726     A.U. after   12 cycles
 SCF Done:  E(RB3LYP) =  -845.877842594     A.U. after   13 cycles
 SCF Done:  E(RB3LYP) =  -845.880411429     A.U. after   13 cycles
 SCF Done:  E(RB3LYP) =  -845.884677506     A.U. after    9 cycles
 SCF Done:  E(RB3LYP) =  -845.885347274     A.U. after   11 cycles
 SCF Done:  E(RB3LYP) =  -845.885362511     A.U. after   11 cycles
 SCF Done:  E(RB3LYP) =  -845.885624171     A.U. after   11 cycles
 SCF Done:  E(RB3LYP) =  -845.885661074     A.U. after   11 cycles
 SCF Done:  E(RB3LYP) =  -845.885765746     A.U. after   11 cycles
 SCF Done:  E(RB3LYP) =  -845.885778003     A.U. after   10 cycles
 SCF Done:  E(RB3LYP) =  -845.885783124     A.U. after    9 cycles
 SCF Done:  E(RB3LYP) =  -845.885784172     A.U. after    9 cycles
 SCF Done:  E(RB3LYP) =  -845.885784172     A.U. after    7 cycles
 SCF Done:  E(RB3LYP) =  -845.885784146     A.U. after    7 cycles
 Optimization completed.
    -- Stationary point found.
 Normal termination of Gaussian 16 at Sat Dec 12 15:03:22 2020.

 --------------------------------------------------------------------
 #N Geom=AllCheck Guess=TCheck SCRF=Check GenChk RB3LYP/6-31G(d) Freq
 --------------------------------------------------------------------

 Structure from the checkpoint file:  "JID_10012.chk"
 --------------------------------
 CID_144593787_JID_10012_neutraal
 --------------------------------
 Charge =  0 Multiplicity = 1

 SCF Done:  E(RB3LYP) =  -845.885784146     A.U. after    1 cycles

  Exact polarizability: 254.809 -21.818 204.123  32.312   4.449 121.824
 Approx polarizability: 349.745 -43.636 363.812  62.198   6.796 188.018

                      1                      2                      3
                      A                      A                      A
 Frequencies --     23.5623                26.8009                33.0001
 Red. masses --      4.9257                 4.8988                 4.7644
 Frc consts  --      0.0016                 0.0021                 0.0031
 IR Inten    --      1.0017                 0.5095                 0.3236

                      4                      5                      6
                      A                      A                      A
 Frequencies --     53.0323                73.9501                95.1106
 Red. masses --      5.8010                 4.5551                 3.9535
 Frc consts  --      0.0096                 0.0147                 0.0211
 IR Inten    --      1.3030                 0.6015                 0.8155

                      7                      8                      9
                      A                      A                      A
 Frequencies --    100.2815               136.8276               186.3130
 Red. masses --      3.1684                 4.1349                 3.6690
 Frc consts  --      0.0188                 0.0456                 0.0750
 IR Inten    --      0.0515                 1.4471                 0.5530

                     10                     11                     12
                      A                      A                      A
 Frequencies --    189.3800               209.3830               225.8567
 Red. masses --      4.5171                 2.4992                 1.3682
 Frc consts  --      0.0955                 0.0646                 0.0411
 IR Inten    --      1.0468                 0.3107                 0.1868

                     13                     14                     15
                      A                      A                      A
 Frequencies --    254.7157               264.2910               294.6566
 Red. masses --      2.1604                 3.1191                 2.6374
 Frc consts  --      0.0826                 0.1284                 0.1349
 IR Inten    --      1.9509                 1.0982                 0.5520

                     16                     17                     18
                      A                      A                      A
 Frequencies --    304.3607               333.9842               350.4431
 Red. masses --      2.9154                 1.1858                 2.6945
 Frc consts  --      0.1591                 0.0779                 0.1950
 IR Inten    --      1.1607                63.7173                 1.6388

                     19                     20                     21
                      A                      A                      A
 Frequencies --    398.1037               402.5550               408.0437
 Red. masses --      2.9413                 3.1583                 3.0364
 Frc consts  --      0.2747                 0.3015                 0.2979
 IR Inten    --      5.1432                 5.3259                 1.9956

                     22                     23                     24
                      A                      A                      A
 Frequencies --    451.3378               454.2546               477.7929
 Red. masses --      2.4602                 2.4953                 3.7282
 Frc consts  --      0.2953                 0.3034                 0.5015
 IR Inten    --      3.1508                 6.2828                 1.7243

                     25                     26                     27
                      A                      A                      A
 Frequencies --    494.9786               530.1926               531.3749
 Red. masses --      2.7110                 5.2575                 4.2532
 Frc consts  --      0.3913                 0.8708                 0.7076
 IR Inten    --     11.1867                 3.9258                13.6676

                     28                     29                     30
                      A                      A                      A
 Frequencies --    564.5263               635.7518               636.4638
 Red. masses --      3.3333                 3.3488                 4.8471
 Frc consts  --      0.6259                 0.7975                 1.1568
 IR Inten    --      1.8994                 4.5520                 5.9623

                     31                     32                     33
                      A                      A                      A
 Frequencies --    671.4897               684.9578               696.9035
 Red. masses --      2.9037                 2.7784                 2.2535
 Frc consts  --      0.7714                 0.7680                 0.6448
 IR Inten    --      3.5740                12.1872                22.9465

                     34                     35                     36
                      A                      A                      A
 Frequencies --    721.5460               763.1029               781.7789
 Red. masses --      3.3078                 1.2993                 2.6366
 Frc consts  --      1.0147                 0.4458                 0.9494
 IR Inten    --     10.0572                26.5549                20.5838

                     37                     38                     39
                      A                      A                      A
 Frequencies --    788.6316               793.6891               827.6517
 Red. masses --      4.0479                 2.4726                 1.9723
 Frc consts  --      1.4833                 0.9177                 0.7960
 IR Inten    --      2.4907                36.2600                 7.3332

                     40                     41                     42
                      A                      A                      A
 Frequencies --    837.9370               867.5690               872.8387
 Red. masses --      1.4887                 1.7972                 1.8465
 Frc consts  --      0.6159                 0.7970                 0.8288
 IR Inten    --     36.7602                72.2192                75.6398

                     43                     44                     45
                      A                      A                      A
 Frequencies --    879.8935               905.6685               911.6318
 Red. masses --      1.8801                 2.1162                 1.6988
 Frc consts  --      0.8576                 1.0227                 0.8318
 IR Inten    --      3.3392                19.0890                42.5628

                     46                     47                     48
                      A                      A                      A
 Frequencies --    925.1005               953.9424               957.1817
 Red. masses --      1.5901                 2.6584                 1.4136
 Frc consts  --      0.8018                 1.4254                 0.7631
 IR Inten    --      7.6444                 7.1853                 3.5106

                     49                     50                     51
                      A                      A                      A
 Frequencies --    967.4818               978.0395               991.2870
 Red. masses --      1.3256                 1.9160                 1.9185
 Frc consts  --      0.7310                 1.0798                 1.1108
 IR Inten    --      1.1701                 4.3953                 4.7848

                     52                     53                     54
                      A                      A                      A
 Frequencies --    992.3706               998.7355              1034.6927
 Red. masses --      1.4135                 1.8717                 1.7749
 Frc consts  --      0.8202                 1.1000                 1.1195
 IR Inten    --      2.0678                15.3000                20.7056

                     55                     56                     57
                      A                      A                      A
 Frequencies --   1053.5416              1058.0443              1105.2034
 Red. masses --      2.2276                 1.8361                 1.8710
 Frc consts  --      1.4568                 1.2111                 1.3465
 IR Inten    --      3.0914                 9.7764                23.9338

                     58                     59                     60
                      A                      A                      A
 Frequencies --   1136.2833              1145.9608              1159.5631
 Red. masses --      2.6799                 2.8716                 1.7300
 Frc consts  --      2.0386                 2.2218                 1.3705
 IR Inten    --     12.6967                 3.3393                 2.4406

                     61                     62                     63
                      A                      A                      A
 Frequencies --   1162.9756              1185.9954              1187.4063
 Red. masses --      2.1319                 1.3924                 1.2192
 Frc consts  --      1.6989                 1.1539                 1.0128
 IR Inten    --      1.3319                 2.2383                 1.1254

                     64                     65                     66
                      A                      A                      A
 Frequencies --   1199.8113              1209.1477              1220.3620
 Red. masses --      1.1791                 1.3440                 1.2722
 Frc consts  --      1.0001                 1.1578                 1.1163
 IR Inten    --     10.9677                 8.5875                 0.9851

                     67                     68                     69
                      A                      A                      A
 Frequencies --   1255.7045              1262.9317              1280.1496
 Red. masses --      2.0217                 1.4134                 1.2820
 Frc consts  --      1.8782                 1.3282                 1.2378
 IR Inten    --     23.8923                31.3553                 4.9747

                     70                     71                     72
                      A                      A                      A
 Frequencies --   1292.6337              1305.5858              1331.1748
 Red. masses --      1.6442                 1.8180                 1.6372
 Frc consts  --      1.6187                 1.8258                 1.7093
 IR Inten    --      2.5553                 5.8347                19.6807

                     73                     74                     75
                      A                      A                      A
 Frequencies --   1362.5924              1373.0891              1379.9702
 Red. masses --      1.4378                 1.3522                 1.4530
 Frc consts  --      1.5729                 1.5021                 1.6302
 IR Inten    --     25.3530                44.5156                48.0009

                     76                     77                     78
                      A                      A                      A
 Frequencies --   1389.3072              1405.6055              1410.1334
 Red. masses --      1.3307                 1.3338                 1.9820
 Frc consts  --      1.5134                 1.5526                 2.3221
 IR Inten    --      8.0753                 8.4430                13.4746

                     79                     80                     81
                      A                      A                      A
 Frequencies --   1417.0952              1421.2375              1426.5450
 Red. masses --      2.2325                 1.6695                 6.4998
 Frc consts  --      2.6415                 1.9868                 7.7932
 IR Inten    --      7.5956                 2.8066                 0.6772

                     82                     83                     84
                      A                      A                      A
 Frequencies --   1444.1824              1457.5098              1490.7186
 Red. masses --      1.2798                 1.4227                 2.4237
 Frc consts  --      1.5726                 1.7807                 3.1734
 IR Inten    --     18.9490                 9.1436                 0.9536

                     85                     86                     87
                      A                      A                      A
 Frequencies --   1503.6354              1507.3931              1511.4635
 Red. masses --      1.1426                 1.3412                 1.0989
 Frc consts  --      1.5221                 1.7956                 1.4791
 IR Inten    --      4.0388                49.7195                 2.9110

                     88                     89                     90
                      A                      A                      A
 Frequencies --   1519.1550              1523.4161              1529.9974
 Red. masses --      1.2494                 1.8460                 1.0752
 Frc consts  --      1.6989                 2.5242                 1.4830
 IR Inten    --     10.2324                 1.5414                26.1828

                     91                     92                     93
                      A                      A                      A
 Frequencies --   1544.5138              1552.5262              1567.2662
 Red. masses --      1.0662                 1.0841                 3.3535
 Frc consts  --      1.4986                 1.5396                 4.8532
 IR Inten    --      4.8494                11.6063                 7.5906

                     94                     95                     96
                      A                      A                      A
 Frequencies --   1629.3616              1664.5167              1692.2223
 Red. masses --      6.6547                 5.2137                 6.1301
 Frc consts  --     10.4090                 8.5109                10.3426
 IR Inten    --      0.4831                 8.3835                 3.1126

                     97                     98                     99
                      A                      A                      A
 Frequencies --   1708.1973              1766.8988              2930.6978
 Red. masses --      1.0912                 6.8618                 1.0745
 Frc consts  --      1.8760                12.6216                 5.4376
 IR Inten    --     18.9003               202.1406                96.7942

                    100                    101                    102
                      A                      A                      A
 Frequencies --   3039.5199              3055.7747              3058.9562
 Red. masses --      1.0673                 1.0603                 1.0431
 Frc consts  --      5.8097                 5.8335                 5.7505
 IR Inten    --     13.8403                17.9288                36.6550

                    103                    104                    105
                      A                      A                      A
 Frequencies --   3063.3137              3067.5211              3080.8917
 Red. masses --      1.0825                 1.0735                 1.0846
 Frc consts  --      5.9851                 5.9517                 6.0654
 IR Inten    --     76.3582                17.9996                 8.5108

                    106                    107                    108
                      A                      A                      A
 Frequencies --   3095.8224              3109.0421              3117.4219
 Red. masses --      1.0989                 1.1002                 1.1007
 Frc consts  --      6.2051                 6.2655                 6.3024
 IR Inten    --     18.0732                34.5596                31.4734

                    109                    110                    111
                      A                      A                      A
 Frequencies --   3143.5548              3173.6628              3176.5938
 Red. masses --      1.0992                 1.0862                 1.0903
 Frc consts  --      6.4001                 6.4461                 6.4823
 IR Inten    --     28.6076                 6.9483                25.4982

                    112                    113                    114
                      A                      A                      A
 Frequencies --   3179.8475              3180.8343              3186.9464
 Red. masses --      1.0866                 1.0899                 1.0880
 Frc consts  --      6.4736                 6.4971                 6.5108
 IR Inten    --      0.2025                11.6895                 0.7171

                    115                    116                    117
                      A                      A                      A
 Frequencies --   3193.0269              3198.8434              3211.4023
 Red. masses --      1.0948                 1.0935                 1.0973
 Frc consts  --      6.5762                 6.5926                 6.6674
 IR Inten    --     24.4960                34.2055                28.9728

                    118                    119                    120
                      A                      A                      A
 Frequencies --   3473.2410              3547.4790              3562.1308
 Red. masses --      1.0493                 1.0744                 1.0932
 Frc consts  --      7.4582                 7.9659                 8.1725
 IR Inten    --     29.9122                22.1292                18.7389

 - Thermochemistry -
 -------------------
 Temperature   298.150 Kelvin.  Pressure   1.00000 Atm.
 Atom     1 has atomic number  6 and mass  12.00000

 Molecular mass:   270.17321 amu.
 Principal axes and moments of inertia in atomic units:
                           1         2         3
     Eigenvalues --  2462.57986********************
           X            0.99997  -0.00530   0.00557
           Y            0.00518   0.99974   0.02207
           Z           -0.00569  -0.02204   0.99974
 This molecule is an asymmetric top.
 Rotational symmetry number  1.
 Warning -- assumption of classical behavior for rotation
           may cause significant error
 Rotational temperatures (Kelvin)      0.03517     0.00767     0.00708
 Rotational constants (GHZ):           0.73287     0.15972     0.14750
 Zero-point vibrational energy     960260.4 (Joules/Mol)
                                  229.50773 (Kcal/Mol)
 Warning -- explicit consideration of  28 degrees of freedom as
           vibrations may cause significant error
 Vibrational temperatures:     33.90    38.56    47.48    76.30   106.40
          (Kelvin)            136.84   144.28   196.86   268.06   272.48
                              301.26   324.96   366.48   380.26   423.95
                              437.91   480.53   504.21   572.78   579.19
                              587.08   649.37   653.57   687.44   712.16
                              762.83   764.53   812.23   914.71   915.73
                              966.12   985.50  1002.69  1038.14  1097.93
                             1124.81  1134.67  1141.94  1190.81  1205.60
                             1248.24  1255.82  1265.97  1303.06  1311.63
                             1331.01  1372.51  1377.17  1391.99  1407.18
                             1426.24  1427.80  1436.96  1488.69  1515.81
                             1522.29  1590.14  1634.86  1648.78  1668.35
                             1673.26  1706.38  1708.41  1726.26  1739.69
                             1755.83  1806.68  1817.08  1841.85  1859.81
                             1878.45  1915.26  1960.47  1975.57  1985.47
                             1998.90  2022.35  2028.87  2038.88  2044.84
                             2052.48  2077.86  2097.03  2144.81  2163.40
                             2168.80  2174.66  2185.73  2191.86  2201.33
                             2222.21  2233.74  2254.95  2344.29  2394.87
                             2434.73  2457.71  2542.17  4216.62  4373.19
                             4396.58  4401.16  4407.43  4413.48  4432.72
                             4454.20  4473.22  4485.27  4522.87  4566.19
                             4570.41  4575.09  4576.51  4585.30  4594.05
                             4602.42  4620.49  4997.22  5104.03  5125.11

 Zero-point correction=                           0.365744 (Hartree/Particle)
 Thermal correction to Energy=                    0.384556
 Thermal correction to Enthalpy=                  0.385500
 Thermal correction to Gibbs Free Energy=         0.317043
 Sum of electronic and zero-point Energies=           -845.520040
 Sum of electronic and thermal Energies=              -845.501228
 Sum of electronic and thermal Enthalpies=            -845.500284
 Sum of electronic and thermal Free Energies=         -845.568741

                     E (Thermal)             CV                S
                      KCal/Mol        Cal/Mol-Kelvin    Cal/Mol-Kelvin
 Total                  241.312             73.437            144.080
 Electronic               0.000              0.000              0.000
 Translational            0.889              2.981             42.681
 Rotational               0.889              2.981             34.187
 Vibrational            239.535             67.475             67.213
 Vibration     1          0.593              1.985              6.309
 Vibration     2          0.593              1.984              6.053
 Vibration     3          0.594              1.983              5.640
 Vibration     4          0.596              1.976              4.701
 Vibration     5          0.599              1.966              4.045
 Vibration     6          0.603              1.953              3.552
 Vibration     7          0.604              1.949              3.449
 Vibration     8          0.614              1.917              2.848
 Vibration     9          0.632              1.859              2.264
 Vibration    10          0.633              1.854              2.234
 Vibration    11          0.642              1.826              2.049
 Vibration    12          0.650              1.802              1.912
 Vibration    13          0.665              1.755              1.698
 Vibration    14          0.671              1.738              1.633
 Vibration    15          0.689              1.684              1.447
 Vibration    16          0.695              1.665              1.393
 Vibration    17          0.716              1.608              1.241
 Vibration    18          0.727              1.574              1.164
 Vibration    19          0.764              1.474              0.970
 Vibration    20          0.768              1.465              0.953
 Vibration    21          0.773              1.453              0.934
 Vibration    22          0.810              1.358              0.792
 Vibration    23          0.813              1.351              0.783
 Vibration    24          0.834              1.299              0.716
 Vibration    25          0.851              1.261              0.671
 Vibration    26          0.885              1.183              0.587
 Vibration    27          0.886              1.181              0.584
 Vibration    28          0.920              1.108              0.515

                           ! Non-Optimized Parameters !
 Normal termination of Gaussian 16 at Sat Dec 12 15:23:44 2020.

 ----------------------------------------------------------------------
 # B3LYP/6-311++G(d,p) empiricaldispersion=gd3bj scf=xqc pop=npa geom=c
 heck
 ----------------------------------------------------------------------

 ----------------------------------------
 CID_144593787_JID_10012_Energie_neutraal
 ----------------------------------------
 Structure from the checkpoint file:  "JID_10012.chk"
 Charge =  0 Multiplicity = 1

 SCF Done:  E(RB3LYP) =  -846.122202822     A.U. after   15 cycles
 Normal termination of Gaussian 16 at Sat Dec 12 15:32:20 2020.

 ----------------------------------------------------------------------
 # B3LYP/6-311++G(d,p) empiricaldispersion=gd3bj scf=xqc pop=npa geom=c
 heck
 ----------------------------------------------------------------------

 --------------------------------------
 CID_144593787_JID_10012_Energie_kation
 --------------------------------------
 Structure from the checkpoint file:  "JID_10012.chk"
 Charge =  1 Multiplicity = 2

 SCF Done:  E(UB3LYP) =  -845.839054416     A.U. after   28 cycles
 Normal termination of Gaussian 16 at Sat Dec 12 15:53:47 2020.
 Gaussian 16:  ES64L-G16RevA.03 25-Dec-2016

 ----------------------------------------------------------------------
 # B3LYP/6-311++G(d,p) empiricaldispersion=gd3bj scf=xqc pop=npa geom=c
 heck
 ----------------------------------------------------------------------

 -------------------------------------
 CID_144593787_JID_10012_Energie_anion
 -------------------------------------
 Structure from the checkpoint file:  "JID_10012.chk"
 Charge = -1 Multiplicity = 2

                         Standard orientation:
 ---------------------------------------------------------------------
 Center     Atomic      Atomic             Coordinates (Angstroms)
 Number     Number       Type             X           Y           Z
 ---------------------------------------------------------------------
      1          6           0        3.350635    0.332654    1.987737
      2          6           0        3.361315    1.126307    0.669808
      3          6           0        4.608549    0.830430   -0.204619
      4          6           0        4.782300   -0.570727   -0.806425
      5          7           0        4.077457   -0.699599   -2.083435
      6          6           0        2.039028    1.167093   -0.113116
      7          8           0        1.551825    2.252797   -0.408263
      8          7           0        1.421457    0.016680   -0.579240
      9          6           0        1.420823   -1.327367   -0.014263
     10          6           0        0.429276   -1.496884    1.157910
     11          6           0       -0.991832   -1.200649    0.743416
     12          6           0       -1.473260    0.094312    0.727082
     13          6           0       -2.782505    0.395123    0.270038
     14          6           0       -3.282998    1.723516    0.239529
     15          6           0       -4.557551    1.983739   -0.209051
     16          6           0       -5.392399    0.926589   -0.647269
     17          6           0       -4.935096   -0.371252   -0.631587
     18          6           0       -3.624543   -0.672694   -0.177636
     19          6           0       -3.112544   -1.996182   -0.151324
     20          6           0       -1.835929   -2.250633    0.291129
     21          1           0        3.388643   -0.750572    1.853344
     22          1           0        2.465257    0.570166    2.587100
     23          1           0        4.230661    0.613279    2.577174
     24          1           0        3.458532    2.179059    0.951855
     25          1           0        4.641559    1.550741   -1.030005
     26          1           0        5.475499    1.040721    0.435275
     27          1           0        5.849690   -0.719693   -1.010123
     28          1           0        4.514306   -1.335467   -0.052132
     29          1           0        4.187547   -1.642580   -2.450695
     30          1           0        3.080395   -0.541060   -1.951567
     31          1           0        0.545959    0.269102   -1.028917
     32          1           0        1.148512   -2.018329   -0.820295
     33          1           0        2.429786   -1.591269    0.298305
     34          1           0        0.509861   -2.524974    1.532344
     35          1           0        0.732834   -0.831196    1.972329
     36          1           0       -0.841748    0.914806    1.060328
     37          1           0       -2.637085    2.531820    0.572244
     38          1           0       -4.928942    3.004264   -0.229997
     39          1           0       -6.396649    1.146177   -0.998266
     40          1           0       -5.571646   -1.185488   -0.968988
     41          1           0       -3.749588   -2.810680   -0.487171
     42          1           0       -1.459994   -3.271020    0.304533
 ---------------------------------------------------------------------

 SCF Done:  E(UB3LYP) =  -846.125341845     A.U. after   32 cycles

 The electronic state is 2-A.
 Alpha  occ. eigenvalues --  -18.99406 -14.23679 -14.19744 -10.17851 -10.11287
 Alpha  occ. eigenvalues --  -10.10368 -10.09707 -10.08460 -10.07894 -10.07271
 Alpha  occ. eigenvalues --  -10.06114 -10.06064 -10.05775 -10.05274 -10.05242
 Alpha  occ. eigenvalues --  -10.05215 -10.04700 -10.04540 -10.04434 -10.03982
 Alpha  occ. eigenvalues --   -0.94500  -0.82523  -0.79093  -0.75363  -0.71372
 Alpha  occ. eigenvalues --   -0.70953  -0.66786  -0.64900  -0.62741  -0.61572
 Alpha  occ. eigenvalues --   -0.59955  -0.56701  -0.54600  -0.51457  -0.50350
 Alpha  occ. eigenvalues --   -0.48111  -0.47686  -0.46130  -0.40711  -0.40287
 Alpha  occ. eigenvalues --   -0.39682  -0.39410  -0.38453  -0.37376  -0.36019
 Alpha  occ. eigenvalues --   -0.35426  -0.34746  -0.33607  -0.33411  -0.32469
 Alpha  occ. eigenvalues --   -0.32077  -0.31510  -0.30357  -0.29934  -0.29580
 Alpha  occ. eigenvalues --   -0.28571  -0.28460  -0.27259  -0.27105  -0.26510
 Alpha  occ. eigenvalues --   -0.26257  -0.24793  -0.24233  -0.23559  -0.21819
 Alpha  occ. eigenvalues --   -0.21092  -0.20954  -0.17081  -0.16968  -0.15834
 Alpha  occ. eigenvalues --   -0.14812  -0.12736  -0.10422   0.03698
 Alpha virt. eigenvalues --    0.05438   0.06769   0.07379   0.07796   0.08373
 Alpha virt. eigenvalues --    0.08672   0.09198   0.09582   0.09907   0.10042
 Alpha virt. eigenvalues --    0.10409   0.10883   0.11169   0.11678   0.11741

  Beta  occ. eigenvalues --  -18.99400 -14.23680 -14.19734 -10.17845 -10.11249
  Beta  occ. eigenvalues --  -10.10345 -10.09706 -10.08455 -10.07864 -10.07271
  Beta  occ. eigenvalues --  -10.06164 -10.06115 -10.05711 -10.05244 -10.05222
  Beta  occ. eigenvalues --  -10.05161 -10.04521 -10.04323 -10.04237 -10.03763
  Beta  occ. eigenvalues --   -0.94488  -0.82513  -0.79071  -0.75156  -0.71325
  Beta  occ. eigenvalues --   -0.70744  -0.66626  -0.64569  -0.62705  -0.61447
  Beta  occ. eigenvalues --   -0.59635  -0.56646  -0.54477  -0.51404  -0.50049
  Beta  occ. eigenvalues --   -0.47993  -0.47439  -0.46078  -0.40657  -0.40251
  Beta  occ. eigenvalues --   -0.39642  -0.39234  -0.38315  -0.37265  -0.35987
  Beta  occ. eigenvalues --   -0.35401  -0.34687  -0.33579  -0.33313  -0.32375
  Beta  occ. eigenvalues --   -0.32016  -0.31453  -0.30294  -0.29844  -0.29465
  Beta  occ. eigenvalues --   -0.28517  -0.28407  -0.27188  -0.26722  -0.26330
  Beta  occ. eigenvalues --   -0.26209  -0.24736  -0.24176  -0.23526  -0.21700
  Beta  occ. eigenvalues --   -0.21004  -0.20219  -0.16962  -0.16117  -0.15757
  Beta  occ. eigenvalues --   -0.14792  -0.12315  -0.09162
  Beta virt. eigenvalues --    0.05877   0.07070   0.07510   0.07782   0.08031
  Beta virt. eigenvalues --    0.08538   0.08712   0.09234   0.09710   0.09974
  Beta virt. eigenvalues --    0.10067   0.10442   0.11087   0.11273   0.11692

 Mulliken charges and spin densities:
               1          2
     1  C    0.037128  -0.720824
     2  C    0.034130   0.508738
     3  C   -0.481523   0.087242
     4  C    0.392306  -0.769688
     5  N   -0.438709   0.071137
     6  C   -0.263899  -0.189423
     7  O   -0.272276   0.003823
     8  N   -0.307587   0.017918
     9  C    0.185010  -0.520236
    10  C   -0.347021   0.165468
    11  C    0.525666   0.208574
    12  C   -0.239048   0.176944
    13  C    0.213006  -0.026044
    14  C   -0.197969   0.129793
    15  C   -0.339226   0.035788
    16  C   -0.309478   0.052778
    17  C   -0.050214   0.123189
    18  C   -0.072838  -0.120180
    19  C   -0.171860   0.013798
    20  C   -0.445973  -0.135445
    21  H   -0.045182   0.184976
    22  H    0.150024   0.005395
    23  H   -0.155586   0.313417
    24  H    0.185813   0.038483
    25  H    0.166929   0.019378
    26  H    0.079773   0.048549
    27  H   -0.089800   0.257268
    28  H   -0.344621   0.452635
    29  H    0.127869   0.097029
    30  H    0.262239   0.001691
    31  H    0.339496  -0.007589
    32  H    0.034695   0.173491
    33  H    0.138227  -0.047837
    34  H   -0.086214   0.277735
    35  H    0.069966   0.054904
    36  H    0.132959  -0.003649
    37  H    0.111900  -0.011201
    38  H    0.120566  -0.001566
    39  H    0.114848  -0.004022
    40  H    0.087846  -0.011412
    41  H    0.095674  -0.004118
    42  H    0.052950   0.053094
 Sum of Mulliken charges =  -1.00000   1.00000

 Dipole moment (field-independent basis, Debye):
    X=              0.5675    Y=             -0.6966    Z=              0.5581  Tot=              1.0577
 Quadrupole moment (field-independent basis, Debye-Ang):
   XX=           -205.4446   YY=           -151.1961   ZZ=           -148.0219
   XY=              6.1815   XZ=              4.8461   YZ=              6.1140

 Summary of Natural Population Analysis:

                                       Natural Population
                Natural  -----------------------------------------------
    Atom  No    Charge         Core      Valence    Rydberg      Total
 -----------------------------------------------------------------------
      C    1   -0.28739      0.99964     2.28165    0.00609     3.28739
      C    2   -0.15175      0.99954     2.14193    0.01027     3.15175
      C    3   -0.19023      0.99960     2.18125    0.00939     3.19023
      C    4   -0.09327      0.99963     2.08260    0.01103     3.09327
      N    5   -0.42912      0.99977     2.91915    0.01020     3.92912
      C    6    0.35005      0.99963     1.62659    0.02373     2.64995
      O    7   -0.31791      0.99988     3.31240    0.00563     4.31791
      N    8   -0.33450      0.99968     2.82534    0.00949     3.83450
      C    9   -0.08903      0.99960     2.07782    0.01161     3.08903
      C   10   -0.20067      0.99959     2.19201    0.00907     3.20067
      C   11   -0.01815      0.99950     2.00876    0.00989     3.01815
      C   12   -0.06098      0.99948     2.05335    0.00815     3.06098
      C   13   -0.03355      0.99949     2.02621    0.00784     3.03355
      C   14   -0.06278      0.99956     2.05356    0.00966     3.06278
      C   15   -0.09807      0.99944     2.08834    0.01029     3.09807
      C   16   -0.10581      0.99960     2.09579    0.01042     3.10581
      C   17   -0.06813      0.99954     2.05967    0.00892     3.06813
      C   18   -0.03820      0.99949     2.03085    0.00787     3.03820
      C   19   -0.05380      0.99954     2.04640    0.00787     3.05380
      C   20   -0.10567      0.99952     2.09587    0.01028     3.10567
      H   21    0.09939      0.00000     0.39922    0.00139     0.40061
      H   22    0.10251      0.00000     0.39652    0.00097     0.39749
      H   23    0.10041      0.00000     0.39867    0.00092     0.39959
      H   24    0.10949      0.00000     0.38873    0.00178     0.39051
      H   25    0.10571      0.00000     0.39307    0.00122     0.39429
      H   26    0.09842      0.00000     0.40068    0.00090     0.40158
      H   27    0.08989      0.00000     0.40905    0.00106     0.41011
      H   28    0.07844      0.00000     0.41961    0.00195     0.42156
      H   29    0.17285      0.00000     0.32572    0.00142     0.32715
      H   30    0.18220      0.00000     0.31543    0.00238     0.31780
      H   31    0.20133      0.00000     0.29651    0.00216     0.29867
      H   32    0.09747      0.00000     0.40142    0.00111     0.40253
      H   33    0.09964      0.00000     0.39860    0.00176     0.40036
      H   34    0.10154      0.00000     0.39746    0.00100     0.39846
      H   35    0.10089      0.00000     0.39801    0.00110     0.39911
      H   36    0.09607      0.00000     0.40237    0.00156     0.40393
      H   37    0.09377      0.00000     0.40486    0.00137     0.40623
      H   38    0.09336      0.00000     0.40598    0.00066     0.40664
      H   39    0.09077      0.00000     0.40809    0.00115     0.40923
      H   40    0.09272      0.00000     0.40649    0.00078     0.40728
      H   41    0.08914      0.00000     0.40938    0.00148     0.41086
      H   42    0.09297      0.00000     0.40604    0.00099     0.40703
 =======================================================================
   * Total *    0.00002     19.99174    52.78144    0.22680    72.99998

 Normal termination of Gaussian 16 at Sat Dec 12 16:18:11 2020.
