 Gaussian 16, Revision A.03,

 -----------------------------------------------------------
 # opt freq B3LYP/6-31G(d) empiricaldispersion=gd3bj scf=xqc
 -----------------------------------------------------------

 ------------------------------
 CID_76223131_JID_1328_neutraal
 ------------------------------
 Symbolic Z-matrix:
 Charge =  0 Multiplicity = 1

 SCF Done:  E(RB3LYP) =  -567.198782820     A.U. after   14 cycles
 SCF Done:  E(RB3LYP) =  -567.210656808     A.U. after   12 cycles
 SCF Done:  E(RB3LYP) =  -567.212117464     A.U. after   12 cycles
 SCF Done:  E(RB3LYP) =  -567.212485337     A.U. after   11 cycles
 SCF Done:  E(RB3LYP) =  -567.212594873     A.U. after   10 cycles
 SCF Done:  E(RB3LYP) =  -567.212693791     A.U. after   11 cycles
 SCF Done:  E(RB3LYP) =  -567.212759083     A.U. after   10 cycles
 SCF Done:  E(RB3LYP) =  -567.212818356     A.U. after   11 cycles
 SCF Done:  E(RB3LYP) =  -567.212854585     A.U. after   10 cycles
 SCF Done:  E(RB3LYP) =  -567.213006049     A.U. after   11 cycles
 SCF Done:  E(RB3LYP) =  -567.215122839     A.U. after   10 cycles
 SCF Done:  E(RB3LYP) =  -567.215146643     A.U. after   10 cycles
 SCF Done:  E(RB3LYP) =  -567.215150826     A.U. after    8 cycles
 SCF Done:  E(RB3LYP) =  -567.215153428     A.U. after    8 cycles
 SCF Done:  E(RB3LYP) =  -567.215156924     A.U. after    8 cycles
 SCF Done:  E(RB3LYP) =  -567.215157893     A.U. after    8 cycles
 Optimization completed.
    -- Stationary point found.
 Normal termination of Gaussian 16 at Tue Dec  8 19:54:53 2020.

 --------------------------------------------------------------------
 #N Geom=AllCheck Guess=TCheck SCRF=Check GenChk RB3LYP/6-31G(d) Freq
 --------------------------------------------------------------------

 Structure from the checkpoint file:  "JID_1328.chk"
 ------------------------------
 CID_76223131_JID_1328_neutraal
 ------------------------------
 Charge =  0 Multiplicity = 1

 SCF Done:  E(RB3LYP) =  -567.215157893     A.U. after    1 cycles

  Exact polarizability: 102.623   0.781  88.262  -0.291  -1.896  61.103
 Approx polarizability: 124.633   2.206 130.683  -0.274  -3.671  93.845

                      1                      2                      3
                      A                      A                      A
 Frequencies --     71.9921                80.5829               116.9526
 Red. masses --      3.9062                 3.8501                 3.2803
 Frc consts  --      0.0119                 0.0147                 0.0264
 IR Inten    --      0.8132                 3.4017                 7.5843

                      4                      5                      6
                      A                      A                      A
 Frequencies --    123.3212               148.2645               198.6331
 Red. masses --      4.6765                 5.3899                 3.2530
 Frc consts  --      0.0419                 0.0698                 0.0756
 IR Inten    --      3.5776                 0.3794                24.1375

                      7                      8                      9
                      A                      A                      A
 Frequencies --    237.0804               278.9550               299.5297
 Red. masses --      2.6266                 1.1822                 1.1279
 Frc consts  --      0.0870                 0.0542                 0.0596
 IR Inten    --     12.4623               184.8056                44.3447

                     10                     11                     12
                      A                      A                      A
 Frequencies --    329.6470               391.0652               426.1020
 Red. masses --      4.4515                 5.8424                 3.6808
 Frc consts  --      0.2850                 0.5264                 0.3937
 IR Inten    --     14.7418                 3.7748                10.8982

                     13                     14                     15
                      A                      A                      A
 Frequencies --    462.6999               530.5819               579.9512
 Red. masses --      3.0767                 3.4416                 2.4243
 Frc consts  --      0.3881                 0.5708                 0.4804
 IR Inten    --     14.4142                 1.5982                25.7951

                     16                     17                     18
                      A                      A                      A
 Frequencies --    589.3510               635.0406               670.0076
 Red. masses --      3.5365                 1.8574                 1.3826
 Frc consts  --      0.7237                 0.4413                 0.3657
 IR Inten    --      6.0872                18.8261               101.8023

                     19                     20                     21
                      A                      A                      A
 Frequencies --    695.4694               772.8945               799.7824
 Red. masses --      1.9568                 5.3613                 1.9148
 Frc consts  --      0.5576                 1.8869                 0.7216
 IR Inten    --     38.2964                66.5941                71.7045

                     22                     23                     24
                      A                      A                      A
 Frequencies --    895.1420               927.5159               952.3350
 Red. masses --      1.8197                 2.9422                 2.0762
 Frc consts  --      0.8591                 1.4913                 1.1094
 IR Inten    --      8.3344                15.4819                62.7147

                     25                     26                     27
                      A                      A                      A
 Frequencies --    987.2990              1012.5694              1055.3881
 Red. masses --      1.8891                 2.0342                 2.4122
 Frc consts  --      1.0849                 1.2288                 1.5830
 IR Inten    --     78.0925                15.3989                 9.9281

                     28                     29                     30
                      A                      A                      A
 Frequencies --   1067.7730              1102.4656              1136.7057
 Red. masses --      4.3942                 2.0824                 2.1817
 Frc consts  --      2.9518                 1.4913                 1.6609
 IR Inten    --     89.1430                31.3175                32.5333

                     31                     32                     33
                      A                      A                      A
 Frequencies --   1150.9529              1191.2045              1206.8035
 Red. masses --      2.0460                 2.4218                 2.0884
 Frc consts  --      1.5969                 2.0247                 1.7920
 IR Inten    --      6.9388                18.4670                 9.4373

                     34                     35                     36
                      A                      A                      A
 Frequencies --   1230.0197              1247.2680              1301.3179
 Red. masses --      2.1346                 1.3056                 1.2520
 Frc consts  --      1.9028                 1.1967                 1.2492
 IR Inten    --     56.8032                39.6455                 7.5252

                     37                     38                     39
                      A                      A                      A
 Frequencies --   1324.4487              1350.1424              1360.4318
 Red. masses --      1.2061                 1.5255                 1.3684
 Frc consts  --      1.2466                 1.6384                 1.4922
 IR Inten    --      1.0439               120.0208                26.0464

                     40                     41                     42
                      A                      A                      A
 Frequencies --   1394.4043              1402.8707              1414.0504
 Red. masses --      1.3420                 1.2725                 1.2717
 Frc consts  --      1.5374                 1.4755                 1.4982
 IR Inten    --     13.6653                64.4113                53.3205

                     43                     44                     45
                      A                      A                      A
 Frequencies --   1433.2997              1448.6789              1461.3346
 Red. masses --      1.3268                 1.6262                 1.6807
 Frc consts  --      1.6060                 2.0108                 2.1147
 IR Inten    --     21.1448                 1.7889                 3.9926

                     46                     47                     48
                      A                      A                      A
 Frequencies --   1490.7174              1505.8249              1523.1329
 Red. masses --      2.5221                 1.1091                 1.0961
 Frc consts  --      3.3022                 1.4818                 1.4983
 IR Inten    --    201.3045                 5.3279                 1.6692

                     49                     50                     51
                      A                      A                      A
 Frequencies --   1537.5155              1710.0708              1813.6715
 Red. masses --      1.1659                 1.0818                 7.3696
 Frc consts  --      1.6239                 1.8640                14.2827
 IR Inten    --     10.6158                15.1918               515.7878

                     52                     53                     54
                      A                      A                      A
 Frequencies --   2985.9764              3029.3635              3041.3457
 Red. masses --      1.0829                 1.0646                 1.0755
 Frc consts  --      5.6888                 5.7560                 5.8611
 IR Inten    --     31.8964                30.9765                16.5047

                     55                     56                     57
                      A                      A                      A
 Frequencies --   3053.4342              3100.9798              3124.7092
 Red. masses --      1.0758                 1.1020                 1.0969
 Frc consts  --      5.9096                 6.2437                 6.3102
 IR Inten    --     59.7976                32.4718                28.4098

                     58                     59                     60
                      A                      A                      A
 Frequencies --   3421.1580              3443.1063              3549.7653
 Red. masses --      1.0696                 1.0559                 1.0916
 Frc consts  --      7.3758                 7.3752                 8.1045
 IR Inten    --     10.4597                 3.3960                 0.4675

                     61                     62                     63
                      A                      A                      A
 Frequencies --   3599.3638              3601.5654              3765.9058
 Red. masses --      1.0742                 1.0759                 1.0668
 Frc consts  --      8.1996                 8.2229                 8.9139
 IR Inten    --     47.2327                 9.8029                24.4853

 - Thermochemistry -
 -------------------
 Temperature   298.150 Kelvin.  Pressure   1.00000 Atm.
 Atom     1 has atomic number  6 and mass  12.00000

 Molecular mass:   160.09603 amu.
 Principal axes and moments of inertia in atomic units:
                           1         2         3
     Eigenvalues --  1012.707062607.616163512.71870
           X            1.00000  -0.00242  -0.00098
           Y            0.00243   0.99997   0.00733
           Z            0.00096  -0.00734   0.99997
 This molecule is an asymmetric top.
 Rotational symmetry number  1.
 Warning -- assumption of classical behavior for rotation
           may cause significant error
 Rotational temperatures (Kelvin)      0.08553     0.03322     0.02466
 Rotational constants (GHZ):           1.78210     0.69210     0.51377
 Zero-point vibrational energy     519119.1 (Joules/Mol)
                                  124.07244 (Kcal/Mol)
 Warning -- explicit consideration of  16 degrees of freedom as
           vibrations may cause significant error
 Vibrational temperatures:    103.58   115.94   168.27   177.43   213.32
          (Kelvin)            285.79   341.11   401.35   430.96   474.29
                              562.66   613.07   665.72   763.39   834.42
                              847.94   913.68   963.99  1000.63  1112.02
                             1150.71  1287.91  1334.49  1370.20  1420.50
                             1456.86  1518.47  1536.29  1586.20  1635.47
                             1655.96  1713.88  1736.32  1769.72  1794.54
                             1872.31  1905.59  1942.55  1957.36  2006.24
                             2018.42  2034.50  2062.20  2084.33  2102.53
                             2144.81  2166.55  2191.45  2212.14  2460.41
                             2609.47  4296.15  4358.58  4375.82  4393.21
                             4461.62  4495.76  4922.28  4953.86  5107.32
                             5178.68  5181.85  5418.30

 Zero-point correction=                           0.197722 (Hartree/Particle)
 Thermal correction to Energy=                    0.208929
 Thermal correction to Enthalpy=                  0.209873
 Thermal correction to Gibbs Free Energy=         0.160594
 Sum of electronic and zero-point Energies=           -567.017436
 Sum of electronic and thermal Energies=              -567.006229
 Sum of electronic and thermal Enthalpies=            -567.005285
 Sum of electronic and thermal Free Energies=         -567.054564

                     E (Thermal)             CV                S
                      KCal/Mol        Cal/Mol-Kelvin    Cal/Mol-Kelvin
 Total                  131.105             41.655            103.716
 Electronic               0.000              0.000              0.000
 Translational            0.889              2.981             41.121
 Rotational               0.889              2.981             30.607
 Vibrational            129.328             35.693             31.989
 Vibration     1          0.598              1.967              4.098
 Vibration     2          0.600              1.962              3.877
 Vibration     3          0.608              1.935              3.150
 Vibration     4          0.610              1.930              3.048
 Vibration     5          0.618              1.905              2.694
 Vibration     6          0.637              1.842              2.146
 Vibration     7          0.656              1.784              1.825
 Vibration     8          0.679              1.712              1.540
 Vibration     9          0.692              1.675              1.420
 Vibration    10          0.712              1.616              1.262
 Vibration    11          0.759              1.489              0.996
 Vibration    12          0.788              1.413              0.871
 Vibration    13          0.820              1.333              0.758
 Vibration    14          0.886              1.182              0.586
 Vibration    15          0.937              1.075              0.485
 Vibration    16          0.947              1.054              0.468

                           ! Non-Optimized Parameters !
 Normal termination of Gaussian 16 at Tue Dec  8 19:59:28 2020.

 ----------------------------------------------------------------------
 # B3LYP/6-311++G(d,p) empiricaldispersion=gd3bj scf=xqc pop=npa geom=c
 heck
 ----------------------------------------------------------------------

 --------------------------------------
 CID_76223131_JID_1328_Energie_neutraal
 --------------------------------------
 Structure from the checkpoint file:  "JID_1328.chk"
 Charge =  0 Multiplicity = 1

 SCF Done:  E(RB3LYP) =  -567.410771594     A.U. after   14 cycles
 Normal termination of Gaussian 16 at Tue Dec  8 20:01:44 2020.

 ----------------------------------------------------------------------
 # B3LYP/6-311++G(d,p) empiricaldispersion=gd3bj scf=xqc pop=npa geom=c
 heck
 ----------------------------------------------------------------------

 ------------------------------------
 CID_76223131_JID_1328_Energie_kation
 ------------------------------------
 Structure from the checkpoint file:  "JID_1328.chk"
 Charge =  1 Multiplicity = 2

 SCF Done:  E(UB3LYP) =  -567.088384714     A.U. after   24 cycles
 Normal termination of Gaussian 16 at Tue Dec  8 20:06:22 2020.
 Gaussian 16:  ES64L-G16RevA.03 25-Dec-2016

 ----------------------------------------------------------------------
 # B3LYP/6-311++G(d,p) empiricaldispersion=gd3bj scf=xqc pop=npa geom=c
 heck
 ----------------------------------------------------------------------

 -----------------------------------
 CID_76223131_JID_1328_Energie_anion
 -----------------------------------
 Structure from the checkpoint file:  "JID_1328.chk"
 Charge = -1 Multiplicity = 2

                         Standard orientation:
 ---------------------------------------------------------------------
 Center     Atomic      Atomic             Coordinates (Angstroms)
 Number     Number       Type             X           Y           Z
 ---------------------------------------------------------------------
      1          6           0       -0.022790   -1.276270   -0.095928
      2          6           0        1.237065   -0.549639    0.364861
      3          7           0        1.180278    0.833853   -0.097480
      4          6           0        0.018952    1.592754   -0.045324
      5          8           0        0.040291    2.816573   -0.067820
      6          7           0       -1.163376    0.871858   -0.042778
      7          6           0       -1.280185   -0.537137    0.347037
      8          7           0       -2.447459   -1.171277   -0.240914
      9          7           0       -3.635597   -0.460414    0.135198
     10          6           0        2.498780   -1.208430   -0.198170
     11          8           0        3.671248   -0.463181    0.116079
     12          1           0       -0.014943   -1.336427   -1.192728
     13          1           0       -0.048084   -2.295659    0.299234
     14          1           0        1.298683   -0.587021    1.465126
     15          1           0        1.988148    1.395399    0.141433
     16          1           0       -1.951506    1.452065    0.217978
     17          1           0       -1.408697   -0.617932    1.434120
     18          1           0       -2.334136   -1.170041   -1.256788
     19          1           0       -3.913284    0.197879   -0.594101
     20          1           0       -4.382612   -1.144479    0.223904
     21          1           0        2.620615   -2.200056    0.250922
     22          1           0        2.389010   -1.334670   -1.284474
     23          1           0        3.816636    0.167997   -0.603737
 ---------------------------------------------------------------------

 SCF Done:  E(UB3LYP) =  -567.401541164     A.U. after   31 cycles

 The electronic state is 2-A.
 Alpha  occ. eigenvalues --  -19.03310 -18.97802 -14.22814 -14.22764 -14.22415
 Alpha  occ. eigenvalues --  -14.22001 -10.19114 -10.13933 -10.12553 -10.12083
 Alpha  occ. eigenvalues --  -10.08424  -0.94617  -0.93450  -0.87795  -0.83543
 Alpha  occ. eigenvalues --   -0.79513  -0.71024  -0.66761  -0.60446  -0.54157
 Alpha  occ. eigenvalues --   -0.52953  -0.47728  -0.44243  -0.43225  -0.41996
 Alpha  occ. eigenvalues --   -0.39881  -0.38820  -0.36816  -0.36272  -0.34031
 Alpha  occ. eigenvalues --   -0.32522  -0.32256  -0.31755  -0.28259  -0.27553
 Alpha  occ. eigenvalues --   -0.26385  -0.24529  -0.19607  -0.17745  -0.16833
 Alpha  occ. eigenvalues --   -0.16310  -0.15683  -0.14102   0.04311
 Alpha virt. eigenvalues --    0.06089   0.07539   0.08010   0.09450   0.09907
 Alpha virt. eigenvalues --    0.10498   0.11507   0.11966   0.12817   0.13735
 Alpha virt. eigenvalues --    0.14452   0.14914   0.15305   0.16684   0.17079

  Beta  occ. eigenvalues --  -19.03264 -18.97788 -14.22799 -14.22731 -14.22404
  Beta  occ. eigenvalues --  -14.21929 -10.19100 -10.13930 -10.12522 -10.12080
  Beta  occ. eigenvalues --  -10.08408  -0.94587  -0.93354  -0.87735  -0.83507
  Beta  occ. eigenvalues --   -0.79476  -0.70959  -0.66669  -0.60358  -0.54105
  Beta  occ. eigenvalues --   -0.52880  -0.47674  -0.44199  -0.43125  -0.41960
  Beta  occ. eigenvalues --   -0.39784  -0.38753  -0.36762  -0.36210  -0.33972
  Beta  occ. eigenvalues --   -0.32475  -0.32223  -0.31690  -0.28230  -0.27518
  Beta  occ. eigenvalues --   -0.26330  -0.24477  -0.19552  -0.17715  -0.16771
  Beta  occ. eigenvalues --   -0.16273  -0.15642  -0.14063
  Beta virt. eigenvalues --    0.06894   0.07710   0.08061   0.08569   0.10090
  Beta virt. eigenvalues --    0.10545   0.11015   0.11675   0.12331   0.13210
  Beta virt. eigenvalues --    0.14005   0.14718   0.15090   0.15705   0.16777

 Mulliken charges and spin densities:
               1          2
     1  C    0.100455  -0.605740
     2  C   -0.897066   1.078319
     3  N   -0.258124   0.007033
     4  C    0.269937  -0.046825
     5  O   -0.384860  -0.001085
     6  N   -0.289443   0.040233
     7  C    0.292663  -0.631120
     8  N   -0.019690   0.051207
     9  N   -0.344652  -0.173996
    10  C    1.506927  -2.090638
    11  O   -0.280202   0.011412
    12  H    0.009276   0.176938
    13  H    0.003834   0.173411
    14  H    0.047708   0.135274
    15  H    0.271415   0.008990
    16  H    0.246515   0.053032
    17  H    0.126803   0.073490
    18  H   -0.278397   0.500971
    19  H   -0.171960   0.399614
    20  H   -0.217581   0.508363
    21  H    0.000576   0.165224
    22  H   -0.501794   0.668203
    23  H   -0.232340   0.497689
 Sum of Mulliken charges =  -1.00000   1.00000

 Dipole moment (field-independent basis, Debye):
    X=              2.1372    Y=             -0.7820    Z=              3.4388  Tot=              4.1236
 Quadrupole moment (field-independent basis, Debye-Ang):
   XX=           -145.1584   YY=           -106.0212   ZZ=            -91.8870
   XY=             -4.2728   XZ=             -0.9070   YZ=             -1.2158

 Summary of Natural Population Analysis:

                                       Natural Population
                Natural  -----------------------------------------------
    Atom  No    Charge         Core      Valence    Rydberg      Total
 -----------------------------------------------------------------------
      C    1   -0.20127      0.99958     2.19151    0.01018     3.20127
      C    2   -0.01781      0.99958     2.00639    0.01183     3.01781
      N    3   -0.34029      0.99966     2.82954    0.01109     3.84029
      C    4    0.41167      0.99970     1.56654    0.02209     2.58833
      O    5   -0.33778      0.99988     3.33242    0.00549     4.33778
      N    6   -0.34412      0.99966     2.83476    0.00970     3.84412
      C    7    0.08881      0.99960     1.89626    0.01533     2.91119
      N    8   -0.25193      0.99972     2.73587    0.01633     3.75193
      N    9   -0.33800      0.99977     2.82514    0.01310     3.83800
      C   10   -0.00757      0.99956     1.99405    0.01396     3.00757
      O   11   -0.37196      0.99990     3.36506    0.00701     4.37196
      H   12    0.10423      0.00000     0.39390    0.00188     0.39577
      H   13    0.11089      0.00000     0.38780    0.00131     0.38911
      H   14    0.08647      0.00000     0.41207    0.00146     0.41353
      H   15    0.19671      0.00000     0.30065    0.00264     0.30329
      H   16    0.19999      0.00000     0.29766    0.00235     0.30001
      H   17    0.08836      0.00000     0.41003    0.00162     0.41164
      H   18    0.16674      0.00000     0.32735    0.00592     0.33326
      H   19    0.17233      0.00000     0.32196    0.00571     0.32767
      H   20    0.17985      0.00000     0.31630    0.00384     0.32015
      H   21    0.08569      0.00000     0.41311    0.00120     0.41431
      H   22    0.08439      0.00000     0.41315    0.00246     0.41561
      H   23    0.23459      0.00000     0.25826    0.00715     0.26541
 =======================================================================
   * Total *   -0.00000     10.99661    31.82977    0.17362    43.00000

 Normal termination of Gaussian 16 at Tue Dec  8 20:12:28 2020.
