 Gaussian 16, Revision A.03,

 -----------------------------------------------------------
 # opt freq B3LYP/6-31G(d) empiricaldispersion=gd3bj scf=xqc
 -----------------------------------------------------------

 -------------------------------
 CID_113841552_JID_8982_neutraal
 -------------------------------
 Symbolic Z-matrix:
 Charge =  0 Multiplicity = 1

 SCF Done:  E(RB3LYP) =  -1524.46402883     A.U. after   15 cycles
 SCF Done:  E(RB3LYP) =  -1524.46925396     A.U. after   13 cycles
 SCF Done:  E(RB3LYP) =  -1524.45754572     A.U. after   14 cycles
 SCF Done:  E(RB3LYP) =  -1524.46682501     A.U. after   13 cycles
 SCF Done:  E(RB3LYP) =  -1524.47210215     A.U. after   11 cycles
 SCF Done:  E(RB3LYP) =  -1524.47272696     A.U. after   13 cycles
 SCF Done:  E(RB3LYP) =  -1524.47267180     A.U. after   12 cycles
 SCF Done:  E(RB3LYP) =  -1524.47310673     A.U. after   12 cycles
 SCF Done:  E(RB3LYP) =  -1524.47325861     A.U. after   11 cycles
 SCF Done:  E(RB3LYP) =  -1524.47326707     A.U. after   11 cycles
 SCF Done:  E(RB3LYP) =  -1524.48418655     A.U. after   10 cycles
 SCF Done:  E(RB3LYP) =  -1524.48418630     A.U. after   10 cycles
 SCF Done:  E(RB3LYP) =  -1524.48418715     A.U. after   10 cycles
 SCF Done:  E(RB3LYP) =  -1524.48418718     A.U. after    7 cycles
 Optimization completed.
    -- Stationary point found.
 Normal termination of Gaussian 16 at Sat Dec 12 00:35:24 2020.

 --------------------------------------------------------------------
 #N Geom=AllCheck Guess=TCheck SCRF=Check GenChk RB3LYP/6-31G(d) Freq
 --------------------------------------------------------------------

 Structure from the checkpoint file:  "JID_8982.chk"
 -------------------------------
 CID_113841552_JID_8982_neutraal
 -------------------------------
 Charge =  0 Multiplicity = 1

 SCF Done:  E(RB3LYP) =  -1524.48418718     A.U. after    1 cycles

  Exact polarizability: 219.018   4.098 183.633 -12.345   5.352 130.446
 Approx polarizability: 292.167  -4.534 312.724 -29.224  23.279 211.528

                      1                      2                      3
                      A                      A                      A
 Frequencies --     17.1968                27.8863                35.1481
 Red. masses --      5.3820                 4.5460                 2.4758
 Frc consts  --      0.0009                 0.0021                 0.0018
 IR Inten    --      0.1088                 2.7748                 0.3522

                      4                      5                      6
                      A                      A                      A
 Frequencies --     50.5310                65.2781                83.8626
 Red. masses --      3.7104                 4.0180                 4.7707
 Frc consts  --      0.0056                 0.0101                 0.0198
 IR Inten    --      1.9002                 0.5982                 3.1435

                      7                      8                      9
                      A                      A                      A
 Frequencies --    105.4269               118.6061               138.2632
 Red. masses --      5.6525                 3.4704                 2.9229
 Frc consts  --      0.0370                 0.0288                 0.0329
 IR Inten    --      4.3973                 0.3631                 1.1447

                     10                     11                     12
                      A                      A                      A
 Frequencies --    143.9536               150.4360               174.1351
 Red. masses --      1.7266                 2.9746                 4.7158
 Frc consts  --      0.0211                 0.0397                 0.0843
 IR Inten    --      3.8524                 0.4894                 2.1326

                     13                     14                     15
                      A                      A                      A
 Frequencies --    181.2557               211.8049               243.5330
 Red. masses --      4.0891                 3.1878                 3.5606
 Frc consts  --      0.0792                 0.0843                 0.1244
 IR Inten    --      1.3533                 1.3914                 7.1425

                     16                     17                     18
                      A                      A                      A
 Frequencies --    278.2242               291.0196               335.5204
 Red. masses --      4.0189                 2.6460                 3.0865
 Frc consts  --      0.1833                 0.1320                 0.2047
 IR Inten    --      2.2662                 1.6876                 9.0622

                     19                     20                     21
                      A                      A                      A
 Frequencies --    350.1376               358.9659               375.7908
 Red. masses --      3.8543                 1.3513                 5.2196
 Frc consts  --      0.2784                 0.1026                 0.4343
 IR Inten    --      2.5380                12.9263                 2.1777

                     22                     23                     24
                      A                      A                      A
 Frequencies --    408.9735               454.6313               488.6860
 Red. masses --      3.7507                 2.2308                 5.2554
 Frc consts  --      0.3696                 0.2717                 0.7395
 IR Inten    --      1.9717                 2.8425                 9.5148

                     25                     26                     27
                      A                      A                      A
 Frequencies --    530.5640               541.9238               582.3863
 Red. masses --      4.7962                 4.3688                 2.2438
 Frc consts  --      0.7955                 0.7559                 0.4484
 IR Inten    --     24.4537                17.7251                 1.2550

                     28                     29                     30
                      A                      A                      A
 Frequencies --    603.6605               639.3851               668.9093
 Red. masses --      4.0518                 3.5795                 1.6933
 Frc consts  --      0.8699                 0.8622                 0.4464
 IR Inten    --     28.7168                25.7442               113.5175

                     31                     32                     33
                      A                      A                      A
 Frequencies --    680.3232               688.9709               717.8992
 Red. masses --      4.5349                 3.8985                 3.8728
 Frc consts  --      1.2367                 1.0903                 1.1760
 IR Inten    --      7.9954                 3.1148                 6.8904

                     34                     35                     36
                      A                      A                      A
 Frequencies --    744.8708               750.4114               759.4590
 Red. masses --      6.6716                 5.9745                 6.1850
 Frc consts  --      2.1809                 1.9822                 2.1018
 IR Inten    --     35.0886                 4.5876                 5.5936

                     37                     38                     39
                      A                      A                      A
 Frequencies --    812.0164               843.3049               866.9421
 Red. masses --      2.1202                 1.4806                 1.4936
 Frc consts  --      0.8237                 0.6204                 0.6614
 IR Inten    --      3.5246                 2.2010                18.5461

                     40                     41                     42
                      A                      A                      A
 Frequencies --    891.2990               899.1638               918.8805
 Red. masses --      2.1641                 2.4626                 1.7268
 Frc consts  --      1.0129                 1.1731                 0.8590
 IR Inten    --     11.7038                36.2336                10.4407

                     43                     44                     45
                      A                      A                      A
 Frequencies --    929.8140               936.4515               949.0348
 Red. masses --      2.1314                 1.6758                 1.9343
 Frc consts  --      1.0857                 0.8659                 1.0265
 IR Inten    --     28.2338               191.5346                 4.9272

                     46                     47                     48
                      A                      A                      A
 Frequencies --   1002.6921              1042.4517              1046.1595
 Red. masses --      2.2474                 3.1407                 3.6353
 Frc consts  --      1.3313                 2.0109                 2.3442
 IR Inten    --     33.4867                32.5005                13.5195

                     49                     50                     51
                      A                      A                      A
 Frequencies --   1071.0980              1078.4298              1128.5374
 Red. masses --      1.4349                 2.2181                 3.6078
 Frc consts  --      0.9699                 1.5199                 2.7073
 IR Inten    --      0.9233                52.2871                63.0676

                     52                     53                     54
                      A                      A                      A
 Frequencies --   1131.5951              1137.9531              1174.8060
 Red. masses --      2.0571                 1.9075                 1.6851
 Frc consts  --      1.5519                 1.4554                 1.3703
 IR Inten    --     11.1248                 7.0840                 2.3011

                     55                     56                     57
                      A                      A                      A
 Frequencies --   1203.3731              1219.6953              1226.1584
 Red. masses --      1.3581                 2.1192                 1.3613
 Frc consts  --      1.1588                 1.8575                 1.2059
 IR Inten    --      9.0394                 3.7359                 1.8622

                     58                     59                     60
                      A                      A                      A
 Frequencies --   1229.4116              1247.8478              1257.2635
 Red. masses --      2.5584                 1.5307                 1.2387
 Frc consts  --      2.2783                 1.4043                 1.1536
 IR Inten    --     14.8721                28.4601                 5.1600

                     61                     62                     63
                      A                      A                      A
 Frequencies --   1267.6245              1283.2509              1299.2455
 Red. masses --      1.1796                 1.2848                 1.2541
 Frc consts  --      1.1168                 1.2466                 1.2473
 IR Inten    --      1.2557                10.4013                 5.5416

                     64                     65                     66
                      A                      A                      A
 Frequencies --   1330.4367              1340.1738              1352.1354
 Red. masses --      1.3419                 1.2284                 1.2673
 Frc consts  --      1.3994                 1.3000                 1.3651
 IR Inten    --      3.6613                29.7403                 2.8538

                     67                     68                     69
                      A                      A                      A
 Frequencies --   1377.6546              1390.6102              1408.7781
 Red. masses --      1.2556                 4.1553                 1.3820
 Frc consts  --      1.4041                 4.7344                 1.6160
 IR Inten    --      2.7454               189.0830                 7.5665

                     70                     71                     72
                      A                      A                      A
 Frequencies --   1420.6912              1421.1290              1449.3018
 Red. masses --      4.1579                 1.5646                 1.2160
 Frc consts  --      4.9445                 1.8617                 1.5048
 IR Inten    --     89.7095                 3.8536                 4.4398

                     73                     74                     75
                      A                      A                      A
 Frequencies --   1459.6470              1480.3347              1499.2144
 Red. masses --      1.3510                 1.1084                 1.1771
 Frc consts  --      1.6959                 1.4311                 1.5588
 IR Inten    --     28.7794                 3.0240                17.3321

                     76                     77                     78
                      A                      A                      A
 Frequencies --   1509.6241              1515.0443              1528.9020
 Red. masses --      1.7921                 1.0904                 1.5578
 Frc consts  --      2.4063                 1.4747                 2.1454
 IR Inten    --     63.6357                 3.1511                44.6643

                     79                     80                     81
                      A                      A                      A
 Frequencies --   1531.8646              1540.3794              1561.6348
 Red. masses --      1.1060                 1.1167                 1.0954
 Frc consts  --      1.5292                 1.5611                 1.5740
 IR Inten    --      6.2364                10.0912                 0.8759

                     82                     83                     84
                      A                      A                      A
 Frequencies --   1613.2037              1726.8804              1740.6740
 Red. masses --      5.7690                 1.0673                 8.1519
 Frc consts  --      8.8456                 1.8753                14.5528
 IR Inten    --     10.7884                39.0231               257.0356

                     85                     86                     87
                      A                      A                      A
 Frequencies --   2998.6176              3043.7687              3045.8691
 Red. masses --      1.0840                 1.0527                 1.0479
 Frc consts  --      5.7430                 5.7462                 5.7281
 IR Inten    --     39.8654                22.5230                68.4460

                     88                     89                     90
                      A                      A                      A
 Frequencies --   3060.5717              3068.2383              3073.6119
 Red. masses --      1.0645                 1.0604                 1.0747
 Frc consts  --      5.8750                 5.8816                 5.9816
 IR Inten    --      8.2427                19.4102                22.6651

                     91                     92                     93
                      A                      A                      A
 Frequencies --   3080.4993              3084.0432              3107.8173
 Red. masses --      1.0680                 1.0957                 1.0954
 Frc consts  --      5.9714                 6.1400                 6.2337
 IR Inten    --     14.5730                43.1384                 8.4619

                     94                     95                     96
                      A                      A                      A
 Frequencies --   3118.7140              3122.7646              3130.5706
 Red. masses --      1.1014                 1.1032                 1.1056
 Frc consts  --      6.3119                 6.3384                 6.3843
 IR Inten    --      9.0633                10.9632                47.8746

                     97                     98                     99
                      A                      A                      A
 Frequencies --   3143.1544              3171.5612              3253.7110
 Red. masses --      1.1023                 1.0970                 1.0915
 Frc consts  --      6.4165                 6.5013                 6.8082
 IR Inten    --      7.5212                 1.1294                 3.8837

                    100                    101                    102
                      A                      A                      A
 Frequencies --   3458.0097              3548.1787              3586.6007
 Red. masses --      1.0459                 1.0977                 1.0767
 Frc consts  --      7.3686                 8.1422                 8.1607
 IR Inten    --      1.5662                 2.4314                40.4938

 - Thermochemistry -
 -------------------
 Temperature   298.150 Kelvin.  Pressure   1.00000 Atm.
 Atom     1 has atomic number  6 and mass  12.00000

 Molecular mass:   286.08097 amu.
 Principal axes and moments of inertia in atomic units:
                           1         2         3
     Eigenvalues --  2810.20938********************
           X            0.99979   0.01941   0.00690
           Y           -0.01926   0.99960  -0.02080
           Z           -0.00730   0.02066   0.99976
 This molecule is an asymmetric top.
 Rotational symmetry number  1.
 Warning -- assumption of classical behavior for rotation
           may cause significant error
 Rotational temperatures (Kelvin)      0.03082     0.00851     0.00754
 Rotational constants (GHZ):           0.64221     0.17726     0.15712
 Zero-point vibrational energy     779888.3 (Joules/Mol)
                                  186.39778 (Kcal/Mol)
 Warning -- explicit consideration of  28 degrees of freedom as
           vibrations may cause significant error
 Vibrational temperatures:     24.74    40.12    50.57    72.70    93.92
          (Kelvin)            120.66   151.69   170.65   198.93   207.12
                              216.44   250.54   260.79   304.74   350.39
                              400.30   418.71   482.74   503.77   516.47
                              540.68   588.42   654.11   703.11   763.36
                              779.71   837.92   868.53   919.93   962.41
                              978.83   991.28  1032.90  1071.70  1079.67
                             1092.69  1168.31  1213.33  1247.34  1282.38
                             1293.70  1322.06  1337.79  1347.34  1365.45
                             1442.65  1499.86  1505.19  1541.07  1551.62
                             1623.71  1628.11  1637.26  1690.28  1731.39
                             1754.87  1764.17  1768.85  1795.37  1808.92
                             1823.83  1846.31  1869.32  1914.20  1928.21
                             1945.42  1982.14  2000.78  2026.92  2044.06
                             2044.69  2085.22  2100.11  2129.87  2157.04
                             2172.01  2179.81  2199.75  2204.01  2216.26
                             2246.84  2321.04  2484.60  2504.44  4314.34
                             4379.30  4382.33  4403.48  4414.51  4422.24
                             4432.15  4437.25  4471.46  4487.13  4492.96
                             4504.19  4522.30  4563.17  4681.36  4975.30
                             5105.04  5160.32

 Zero-point correction=                           0.297044 (Hartree/Particle)
 Thermal correction to Energy=                    0.316247
 Thermal correction to Enthalpy=                  0.317191
 Thermal correction to Gibbs Free Energy=         0.246622
 Sum of electronic and zero-point Energies=          -1524.187143
 Sum of electronic and thermal Energies=             -1524.167940
 Sum of electronic and thermal Enthalpies=           -1524.166996
 Sum of electronic and thermal Free Energies=        -1524.237565

                     E (Thermal)             CV                S
                      KCal/Mol        Cal/Mol-Kelvin    Cal/Mol-Kelvin
 Total                  198.448             70.057            148.524
 Electronic               0.000              0.000              0.000
 Translational            0.889              2.981             42.851
 Rotational               0.889              2.981             34.151
 Vibrational            196.670             64.096             71.522
 Vibration     1          0.593              1.986              6.934
 Vibration     2          0.593              1.984              5.974
 Vibration     3          0.594              1.982              5.515
 Vibration     4          0.595              1.977              4.796
 Vibration     5          0.597              1.971              4.291
 Vibration     6          0.601              1.960              3.798
 Vibration     7          0.605              1.945              3.351
 Vibration     8          0.609              1.934              3.123
 Vibration     9          0.614              1.915              2.828
 Vibration    10          0.616              1.909              2.751
 Vibration    11          0.618              1.902              2.667
 Vibration    12          0.627              1.874              2.390
 Vibration    13          0.630              1.865              2.315
 Vibration    14          0.643              1.823              2.028
 Vibration    15          0.659              1.773              1.777
 Vibration    16          0.679              1.714              1.545
 Vibration    17          0.687              1.690              1.468
 Vibration    18          0.717              1.605              1.233
 Vibration    19          0.727              1.575              1.166
 Vibration    20          0.734              1.557              1.127
 Vibration    21          0.747              1.522              1.056
 Vibration    22          0.773              1.451              0.930
 Vibration    23          0.813              1.351              0.782
 Vibration    24          0.845              1.275              0.687
 Vibration    25          0.886              1.182              0.586
 Vibration    26          0.897              1.157              0.561
 Vibration    27          0.939              1.069              0.481
 Vibration    28          0.962              1.024              0.443

 Optimization completed.
    -- Stationary point found.
 Normal termination of Gaussian 16 at Sat Dec 12 00:51:47 2020.

 ----------------------------------------------------------------------
 # B3LYP/6-311++G(d,p) empiricaldispersion=gd3bj scf=xqc pop=npa geom=c
 heck
 ----------------------------------------------------------------------

 ---------------------------------------
 CID_113841552_JID_8982_Energie_neutraal
 ---------------------------------------
 Structure from the checkpoint file:  "JID_8982.chk"
 Charge =  0 Multiplicity = 1

 SCF Done:  E(RB3LYP) =  -1524.74863593     A.U. after   16 cycles
 Normal termination of Gaussian 16 at Sat Dec 12 01:00:22 2020.

 ----------------------------------------------------------------------
 # B3LYP/6-311++G(d,p) empiricaldispersion=gd3bj scf=xqc pop=npa geom=c
 heck
 ----------------------------------------------------------------------

 -------------------------------------
 CID_113841552_JID_8982_Energie_kation
 -------------------------------------
 Structure from the checkpoint file:  "JID_8982.chk"
 Charge =  1 Multiplicity = 2

 SCF Done:  E(UB3LYP) =  -1524.45577820     A.U. after   33 cycles
 SCF Done:  E(UB3LYP) =  -1524.45577820     a.u. after    1 cycles
 Normal termination of Gaussian 16 at Sat Dec 12 01:25:04 2020.
 Gaussian 16:  ES64L-G16RevA.03 25-Dec-2016

 ----------------------------------------------------------------------
 # B3LYP/6-311++G(d,p) empiricaldispersion=gd3bj scf=xqc pop=npa geom=c
 heck
 ----------------------------------------------------------------------

 ------------------------------------
 CID_113841552_JID_8982_Energie_anion
 ------------------------------------
 Structure from the checkpoint file:  "JID_8982.chk"
 Charge = -1 Multiplicity = 2

                         Standard orientation:
 ---------------------------------------------------------------------
 Center     Atomic      Atomic             Coordinates (Angstroms)
 Number     Number       Type             X           Y           Z
 ---------------------------------------------------------------------
      1          6           0        0.738374    2.261927   -0.869954
      2          6           0       -0.431670    1.345667   -0.663367
      3          6           0       -0.556377    0.021419   -1.034543
      4          6           0       -1.827039   -0.521050   -0.676674
      5          6           0       -2.661372    0.377016   -0.053456
      6         16           0       -1.880968    1.935541    0.095499
      7          6           0       -4.043371    0.317169    0.469297
      8          8           0       -4.635186    1.344359    0.796626
      9          7           0       -4.675121   -0.902935    0.585293
     10          7           0       -4.081135   -2.177831    0.632574
     11          6           0        0.511778   -0.790581   -1.705010
     12         16           0        1.094100   -2.209262   -0.667361
     13          6           0        1.809741   -1.301184    0.752445
     14          6           0        3.239486   -0.825057    0.552247
     15          6           0        3.843345   -0.096141    1.756233
     16          6           0        4.982556    0.700419    1.101986
     17          6           0        4.439313    0.984004   -0.316599
     18          8           0        3.286952    0.147953   -0.499002
     19          1           0        0.736521    2.686976   -1.881878
     20          1           0        0.716920    3.097615   -0.163592
     21          1           0        1.674275    1.713329   -0.731775
     22          1           0       -2.084268   -1.549248   -0.890932
     23          1           0       -5.553499   -0.841201    1.086380
     24          1           0       -3.925350   -2.511689   -0.316119
     25          1           0       -3.176428   -2.124259    1.098446
     26          1           0        0.130839   -1.269402   -2.613370
     27          1           0        1.377564   -0.186993   -1.975180
     28          1           0        1.153771   -0.457279    0.993867
     29          1           0        1.783998   -1.998261    1.596229
     30          1           0        3.870660   -1.685277    0.277259
     31          1           0        3.093102    0.576707    2.189174
     32          1           0        4.186724   -0.778749    2.538901
     33          1           0        5.229736    1.616761    1.644976
     34          1           0        5.890325    0.090197    1.050175
     35          1           0        4.113581    2.022773   -0.441575
     36          1           0        5.182507    0.762759   -1.092881
 ---------------------------------------------------------------------

 SCF Done:  E(UB3LYP) =  -1524.75143022     A.U. after   33 cycles
 SCF Done:  E(UB3LYP) =  -1524.75143022     a.u. after    1 cycles

 The electronic state is 2-A.
 Alpha  occ. eigenvalues --  -88.73855 -88.73836 -19.03584 -18.95444 -14.23877
 Alpha  occ. eigenvalues --  -14.23840 -10.14003 -10.13588 -10.13040 -10.10445
 Alpha  occ. eigenvalues --  -10.09745 -10.08782 -10.08711 -10.07316 -10.06689
 Alpha  occ. eigenvalues --  -10.06306 -10.05928 -10.04790  -7.82472  -7.82466
 Alpha  occ. eigenvalues --   -5.78859  -5.78768  -5.78503  -5.78400  -5.78076
 Alpha  occ. eigenvalues --   -5.77829  -0.95311  -0.91762  -0.86368  -0.76072
 Alpha  occ. eigenvalues --   -0.71744  -0.69972  -0.68718  -0.66989  -0.64939
 Alpha  occ. eigenvalues --   -0.62054  -0.58130  -0.57100  -0.52184  -0.51382
 Alpha  occ. eigenvalues --   -0.49617  -0.48038  -0.44693  -0.41896  -0.41192
 Alpha  occ. eigenvalues --   -0.40965  -0.40182  -0.39961  -0.37685  -0.37166
 Alpha  occ. eigenvalues --   -0.35064  -0.34174  -0.32318  -0.31809  -0.31305
 Alpha  occ. eigenvalues --   -0.31268  -0.30365  -0.29278  -0.28871  -0.28304
 Alpha  occ. eigenvalues --   -0.27355  -0.26570  -0.25605  -0.25272  -0.24561
 Alpha  occ. eigenvalues --   -0.23928  -0.22885  -0.22078  -0.20474  -0.18961
 Alpha  occ. eigenvalues --   -0.17352  -0.14572  -0.13834  -0.13301  -0.12088
 Alpha  occ. eigenvalues --   -0.11170   0.03786
 Alpha virt. eigenvalues --    0.05083   0.06960   0.07325   0.07628   0.08329
 Alpha virt. eigenvalues --    0.09000   0.09496   0.09916   0.10385   0.10669
 Alpha virt. eigenvalues --    0.10948   0.11638   0.12020   0.12228   0.12731

  Beta  occ. eigenvalues --  -88.73858 -88.73797 -19.03581 -18.95262 -14.23874
  Beta  occ. eigenvalues --  -14.23794 -10.13832 -10.13581 -10.13026 -10.10443
  Beta  occ. eigenvalues --  -10.09737 -10.08753 -10.08698 -10.07007 -10.06560
  Beta  occ. eigenvalues --  -10.06327 -10.06021 -10.04581  -7.82469  -7.82437
  Beta  occ. eigenvalues --   -5.78863  -5.78753  -5.78509  -5.78385  -5.77939
  Beta  occ. eigenvalues --   -5.77830  -0.95303  -0.91482  -0.86213  -0.75809
  Beta  occ. eigenvalues --   -0.71722  -0.69938  -0.68603  -0.66950  -0.64605
  Beta  occ. eigenvalues --   -0.61976  -0.57949  -0.56860  -0.52050  -0.51318
  Beta  occ. eigenvalues --   -0.49391  -0.47954  -0.44484  -0.41866  -0.41113
  Beta  occ. eigenvalues --   -0.40885  -0.40073  -0.39840  -0.37651  -0.36982
  Beta  occ. eigenvalues --   -0.34967  -0.34118  -0.32189  -0.31756  -0.31120
  Beta  occ. eigenvalues --   -0.31088  -0.30315  -0.29197  -0.28173  -0.27958
  Beta  occ. eigenvalues --   -0.27308  -0.26500  -0.25470  -0.25223  -0.24461
  Beta  occ. eigenvalues --   -0.23795  -0.22465  -0.21824  -0.20387  -0.18842
  Beta  occ. eigenvalues --   -0.17330  -0.13952  -0.13620  -0.12960  -0.11491
  Beta  occ. eigenvalues --   -0.10059
  Beta virt. eigenvalues --    0.05862   0.07218   0.07498   0.07673   0.08416
  Beta virt. eigenvalues --    0.08433   0.09050   0.09625   0.09954   0.10480
  Beta virt. eigenvalues --    0.10727   0.11011   0.11753   0.12066   0.12347

 Mulliken charges and spin densities:
               1          2
     1  C   -0.629012  -0.024559
     2  C   -0.160768   0.214036
     3  C    0.625787  -0.098091
     4  C    0.026582   0.136956
     5  C    0.136059   0.085832
     6  S   -0.508483   0.099974
     7  C    0.223002   0.151522
     8  O   -0.387311   0.066356
     9  N   -0.322515   0.013854
    10  N   -0.377592   0.002785
    11  C   -0.959296  -0.019793
    12  S    0.245469   0.055230
    13  C   -0.249979  -0.220900
    14  C   -0.395708   0.181714
    15  C   -0.361454  -0.067384
    16  C    0.622435  -1.027322
    17  C   -0.078685  -0.114174
    18  O   -0.056539   0.006365
    19  H    0.164262   0.010224
    20  H    0.031446   0.096352
    21  H    0.247785  -0.193234
    22  H    0.070354  -0.025567
    23  H    0.310456  -0.001119
    24  H    0.218445   0.010302
    25  H    0.222584   0.007121
    26  H    0.211087   0.001314
    27  H    0.223559   0.034260
    28  H    0.139243   0.070075
    29  H    0.230529   0.010125
    30  H   -0.008677   0.160090
    31  H    0.208713  -0.040464
    32  H   -0.191471   0.335854
    33  H   -0.334876   0.493291
    34  H   -0.134969   0.308220
    35  H    0.060764   0.079748
    36  H   -0.061227   0.201005
 Sum of Mulliken charges =  -1.00000   1.00000

 Dipole moment (field-independent basis, Debye):
    X=              2.2069    Y=             -2.8218    Z=             -1.8539  Tot=              4.0336
 Quadrupole moment (field-independent basis, Debye-Ang):
   XX=           -228.2349   YY=           -154.2092   ZZ=           -140.3568
   XY=             13.7821   XZ=             -1.1992   YZ=             -3.9882

 Summary of Natural Population Analysis:

                                       Natural Population
                Natural  -----------------------------------------------
    Atom  No    Charge         Core      Valence    Rydberg      Total
 -----------------------------------------------------------------------
      C    1   -0.31167      0.99961     2.30521    0.00686     3.31167
      C    2   -0.03534      0.99944     2.02401    0.01189     3.03534
      C    3   -0.09592      0.99942     2.08371    0.01279     3.09592
      C    4   -0.06848      0.99946     2.06062    0.00840     3.06848
      C    5   -0.13087      0.99947     2.11965    0.01174     3.13087
      S    6    0.23411      4.99940     2.74492    0.02157     7.76589
      C    7    0.33552      0.99958     1.64167    0.02323     2.66448
      O    8   -0.31363      0.99988     3.30809    0.00566     4.31363
      N    9   -0.23618      0.99967     2.72204    0.01448     3.73618
      N   10   -0.32237      0.99978     2.81165    0.01095     3.82237
      C   11   -0.24441      0.99953     2.23477    0.01011     3.24441
      S   12    0.07446      4.99965     2.90803    0.01786     7.92554
      C   13   -0.26125      0.99954     2.25025    0.01145     3.26125
      C   14    0.06117      0.99954     1.92306    0.01623     2.93883
      C   15   -0.20069      0.99961     2.19221    0.00887     3.20069
      C   16   -0.20572      0.99965     2.19863    0.00745     3.20572
      C   17   -0.00934      0.99960     1.99806    0.01168     3.00934
      O   18   -0.31113      0.99989     3.30126    0.00998     4.31113
      H   19    0.10298      0.00000     0.39618    0.00085     0.39702
      H   20    0.10265      0.00000     0.39656    0.00078     0.39735
      H   21    0.11590      0.00000     0.38232    0.00178     0.38410
      H   22    0.09559      0.00000     0.40284    0.00157     0.40441
      H   23    0.18152      0.00000     0.31590    0.00259     0.31848
      H   24    0.16897      0.00000     0.32918    0.00185     0.33103
      H   25    0.17505      0.00000     0.32292    0.00203     0.32495
      H   26    0.10436      0.00000     0.39476    0.00089     0.39564
      H   27    0.11598      0.00000     0.38275    0.00127     0.38402
      H   28    0.11433      0.00000     0.38394    0.00173     0.38567
      H   29    0.10692      0.00000     0.39213    0.00095     0.39308
      H   30    0.08116      0.00000     0.41672    0.00212     0.41884
      H   31    0.09930      0.00000     0.39944    0.00127     0.40070
      H   32    0.10425      0.00000     0.39470    0.00104     0.39575
      H   33    0.10436      0.00000     0.39437    0.00127     0.39564
      H   34    0.09951      0.00000     0.39860    0.00189     0.40049
      H   35    0.08609      0.00000     0.41273    0.00118     0.41391
      H   36    0.08284      0.00000     0.41590    0.00126     0.41716
 =======================================================================
   * Total *   -0.00000     25.99271    49.75978    0.24752    76.00000

 Normal termination of Gaussian 16 at Sat Dec 12 01:50:06 2020.
