 Gaussian 16, Revision A.03,

 -----------------------------------------------------------
 # opt freq B3LYP/6-31G(d) empiricaldispersion=gd3bj scf=xqc
 -----------------------------------------------------------

 ------------------------------
 CID_146951475_JID_660_neutraal
 ------------------------------
 Symbolic Z-matrix:
 Charge =  0 Multiplicity = 1

 SCF Done:  E(RB3LYP) =  -462.501333937     A.U. after   14 cycles
 SCF Done:  E(RB3LYP) =  -462.503984754     A.U. after   12 cycles
 SCF Done:  E(RB3LYP) =  -462.504791413     A.U. after   11 cycles
 SCF Done:  E(RB3LYP) =  -462.505163546     A.U. after   12 cycles
 SCF Done:  E(RB3LYP) =  -462.505305111     A.U. after   12 cycles
 SCF Done:  E(RB3LYP) =  -462.505373363     A.U. after   10 cycles
 SCF Done:  E(RB3LYP) =  -462.505392990     A.U. after   10 cycles
 SCF Done:  E(RB3LYP) =  -462.505399431     A.U. after    9 cycles
 SCF Done:  E(RB3LYP) =  -462.505400684     A.U. after    8 cycles
 SCF Done:  E(RB3LYP) =  -462.505400873     A.U. after    7 cycles
 Optimization completed.
    -- Stationary point found.

 1\1\GINC-NODE308\FOpt\RB3LYP\6-31G(d)\C8H12O2\VSC10255\08-Dec-2020\0\\
 # opt freq B3LYP/6-31G(d) empiricaldispersion=gd3bj scf=xqc\\CID_14695
 1475_JID_660_neutraal\\0,1\C,1.0557546323,0.044552586,0.0119508529\C,0
 .2515460837,-0.8044696186,1.0016326365\C,-1.2370277519,-0.5816394442,0
 .9104339317\C,-2.1020076145,-1.498324658,1.3676325123\C,-1.6079870951,
 -2.7764906899,1.877928126\C,-0.3233641674,-3.1566007738,1.7241208822\C
 ,0.6437302103,-2.3027112938,0.9475487645\O,0.8662153473,-2.7995396163,
 -0.3824350303\C,-0.266419441,-2.8723081026,-1.2282505411\O,-2.57571451

 Normal termination of Gaussian 16 at Tue Dec  8 12:19:07 2020.

 --------------------------------------------------------------------
 #N Geom=AllCheck Guess=TCheck SCRF=Check GenChk RB3LYP/6-31G(d) Freq
 --------------------------------------------------------------------

 Structure from the checkpoint file:  "JID_660.chk"
 ------------------------------
 CID_146951475_JID_660_neutraal
 ------------------------------
 Charge =  0 Multiplicity = 1

 SCF Done:  E(RB3LYP) =  -462.505400873     A.U. after    1 cycles

  Exact polarizability: 102.041  -4.028  82.369  -3.096  -9.470  73.225
 Approx polarizability: 150.001  -2.277 123.863 -10.068 -22.466 113.592

                      1                      2                      3
                      A                      A                      A
 Frequencies --    105.3752               130.4318               161.8866
 Red. masses --      3.0991                 4.1578                 2.5414
 Frc consts  --      0.0203                 0.0417                 0.0392
 IR Inten    --      0.4263                 0.2009                 2.4402

                      4                      5                      6
                      A                      A                      A
 Frequencies --    203.7481               216.8486               262.4044
 Red. masses --      1.2363                 1.0734                 2.9541
 Frc consts  --      0.0302                 0.0297                 0.1198
 IR Inten    --      0.0242                 0.3220                 9.6932

                      7                      8                      9
                      A                      A                      A
 Frequencies --    278.1843               327.6233               363.5143
 Red. masses --      2.6648                 2.8180                 3.5616
 Frc consts  --      0.1215                 0.1782                 0.2773
 IR Inten    --      2.5039                 0.9672                19.5665

                     10                     11                     12
                      A                      A                      A
 Frequencies --    416.9269               422.3270               457.9983
 Red. masses --      4.9061                 2.3721                 1.3739
 Frc consts  --      0.5025                 0.2493                 0.1698
 IR Inten    --      8.1455                27.8821                77.9554

                     13                     14                     15
                      A                      A                      A
 Frequencies --    465.2409               569.0548               644.2461
 Red. masses --      3.0186                 2.6625                 5.2997
 Frc consts  --      0.3850                 0.5080                 1.2960
 IR Inten    --      2.4588                 0.9193                 0.5402

                     16                     17                     18
                      A                      A                      A
 Frequencies --    684.4361               735.3227               763.9535
 Red. masses --      3.5002                 2.6134                 1.7735
 Frc consts  --      0.9661                 0.8325                 0.6098
 IR Inten    --      3.0743                 2.9731                 4.8197

                     19                     20                     21
                      A                      A                      A
 Frequencies --    800.0642               838.2033               887.2184
 Red. masses --      1.9596                 4.0205                 2.3751
 Frc consts  --      0.7390                 1.6643                 1.1015
 IR Inten    --     52.4551                18.4629                21.7220

                     22                     23                     24
                      A                      A                      A
 Frequencies --    953.3251               973.9428               977.2334
 Red. masses --      1.9058                 1.2608                 2.8807
 Frc consts  --      1.0205                 0.7047                 1.6209
 IR Inten    --     23.9425                 1.2613                13.7279

                     25                     26                     27
                      A                      A                      A
 Frequencies --   1038.6296              1074.8947              1113.1887
 Red. masses --      1.8661                 1.7353                 4.5110
 Frc consts  --      1.1861                 1.1813                 3.2936
 IR Inten    --     13.3497                25.4559                96.7253

                     28                     29                     30
                      A                      A                      A
 Frequencies --   1131.0411              1166.7792              1192.5753
 Red. masses --      2.4240                 1.5486                 1.2872
 Frc consts  --      1.8270                 1.2421                 1.0786
 IR Inten    --     25.3173                22.5664                 1.8150

                     31                     32                     33
                      A                      A                      A
 Frequencies --   1211.1300              1212.8897              1229.7231
 Red. masses --      1.7183                 1.2123                 1.4360
 Frc consts  --      1.4850                 1.0507                 1.2795
 IR Inten    --    206.1192                11.8661                 7.5020

                     34                     35                     36
                      A                      A                      A
 Frequencies --   1269.5705              1318.4944              1335.0313
 Red. masses --      2.0338                 1.3330                 1.8518
 Frc consts  --      1.9314                 1.3653                 1.9445
 IR Inten    --     14.4072                11.1419                21.1115

                     37                     38                     39
                      A                      A                      A
 Frequencies --   1353.0231              1398.9280              1413.8060
 Red. masses --      1.3379                 1.6163                 1.2249
 Frc consts  --      1.4430                 1.8636                 1.4425
 IR Inten    --     23.1026                 4.4353                 7.1836

                     40                     41                     42
                      A                      A                      A
 Frequencies --   1442.7498              1487.2229              1498.7428
 Red. masses --      1.2452                 2.0667                 1.1474
 Frc consts  --      1.5271                 2.6933                 1.5185
 IR Inten    --      3.6994                 7.4621                 0.7075

                     43                     44                     45
                      A                      A                      A
 Frequencies --   1516.6124              1525.5886              1528.1495
 Red. masses --      1.0528                 1.0460                 1.0572
 Frc consts  --      1.4268                 1.4344                 1.4545
 IR Inten    --      5.6159                 7.2308                 3.6562

                     46                     47                     48
                      A                      A                      A
 Frequencies --   1541.0882              1669.7349              1731.7077
 Red. masses --      1.0548                 7.5983                 6.5909
 Frc consts  --      1.4760                12.4814                11.6451
 IR Inten    --      2.1733                27.6923                97.4168

                     49                     50                     51
                      A                      A                      A
 Frequencies --   2971.7581              3020.2687              3057.9417
 Red. masses --      1.0812                 1.0373                 1.0379
 Frc consts  --      5.6259                 5.5751                 5.7182
 IR Inten    --     17.6762                40.4975                30.1295

                     52                     53                     54
                      A                      A                      A
 Frequencies --   3076.8311              3078.2434              3121.4471
 Red. masses --      1.0882                 1.0965                 1.1014
 Frc consts  --      6.0698                 6.1216                 6.3227
 IR Inten    --     47.6453                32.8758                24.3306

                     55                     56                     57
                      A                      A                      A
 Frequencies --   3129.5222              3143.2655              3168.2649
 Red. masses --      1.1017                 1.1009                 1.0904
 Frc consts  --      6.3573                 6.4086                 6.4489
 IR Inten    --     41.9795                22.9187                25.3453

                     58                     59                     60
                      A                      A                      A
 Frequencies --   3175.2084              3211.6372              3736.2064
 Red. masses --      1.0877                 1.0953                 1.0654
 Frc consts  --      6.4610                 6.6565                 8.7627
 IR Inten    --      6.7574                12.5021                27.2231

 - Thermochemistry -
 -------------------
 Temperature   298.150 Kelvin.  Pressure   1.00000 Atm.
 Atom     1 has atomic number  6 and mass  12.00000

 Molecular mass:   140.08373 amu.
 Principal axes and moments of inertia in atomic units:
                           1         2         3
     Eigenvalues --   880.568361626.662521978.11644
           X            0.99917  -0.04041   0.00493
           Y            0.04033   0.99909   0.01383
           Z           -0.00549  -0.01362   0.99989
 This molecule is an asymmetric top.
 Rotational symmetry number  1.
 Warning -- assumption of classical behavior for rotation
           may cause significant error
 Rotational temperatures (Kelvin)      0.09836     0.05325     0.04379
 Rotational constants (GHZ):           2.04952     1.10947     0.91235
 Zero-point vibrational energy     496040.0 (Joules/Mol)
                                  118.55640 (Kcal/Mol)
 Warning -- explicit consideration of  14 degrees of freedom as
           vibrations may cause significant error
 Vibrational temperatures:    151.61   187.66   232.92   293.15   312.00
          (Kelvin)            377.54   400.25   471.38   523.02   599.86
                              607.63   658.96   669.38   818.74   926.93
                              984.75  1057.97  1099.16  1151.11  1205.99
                             1276.51  1371.62  1401.29  1406.02  1494.36
                             1546.53  1601.63  1627.32  1678.74  1715.85
                             1742.55  1745.08  1769.30  1826.63  1897.02
                             1920.81  1946.70  2012.75  2034.15  2075.80
                             2139.78  2156.36  2182.07  2194.98  2198.67
                             2217.28  2402.38  2491.54  4275.70  4345.49
                             4399.70  4426.87  4428.91  4491.07  4502.68
                             4522.46  4558.43  4568.42  4620.83  5375.57

 Zero-point correction=                           0.188932 (Hartree/Particle)
 Thermal correction to Energy=                    0.198853
 Thermal correction to Enthalpy=                  0.199797
 Thermal correction to Gibbs Free Energy=         0.154566
 Sum of electronic and zero-point Energies=           -462.316469
 Sum of electronic and thermal Energies=              -462.306548
 Sum of electronic and thermal Enthalpies=            -462.305603
 Sum of electronic and thermal Free Energies=         -462.350835

                     E (Thermal)             CV                S
                      KCal/Mol        Cal/Mol-Kelvin    Cal/Mol-Kelvin
 Total                  124.782             38.426             95.198
 Electronic               0.000              0.000              0.000
 Translational            0.889              2.981             40.723
 Rotational               0.889              2.981             29.428
 Vibrational            123.005             32.465             25.047
 Vibration     1          0.605              1.945              3.352
 Vibration     2          0.612              1.923              2.940
 Vibration     3          0.622              1.889              2.528
 Vibration     4          0.639              1.835              2.099
 Vibration     5          0.646              1.815              1.985
 Vibration     6          0.670              1.742              1.646
 Vibration     7          0.679              1.714              1.545
 Vibration     8          0.711              1.620              1.272
 Vibration     9          0.737              1.547              1.107
 Vibration    10          0.780              1.433              0.902
 Vibration    11          0.785              1.422              0.884
 Vibration    12          0.816              1.343              0.772
 Vibration    13          0.823              1.327              0.751
 Vibration    14          0.925              1.098              0.506

 Optimization completed.
    -- Stationary point found.

 1\1\GINC-NODE308\Freq\RB3LYP\6-31G(d)\C8H12O2\VSC10255\08-Dec-2020\0\\
 #N Geom=AllCheck Guess=TCheck SCRF=Check GenChk RB3LYP/6-31G(d) Freq\\
 CID_146951475_JID_660_neutraal\\0,1\C,1.0557546323,0.044552586,0.01195
 08529\C,0.2515460837,-0.8044696186,1.0016326365\C,-1.2370277519,-0.581
 6394442,0.9104339317\C,-2.1020076145,-1.498324658,1.3676325123\C,-1.60
 79870951,-2.7764906899,1.877928126\C,-0.3233641674,-3.1566007738,1.724
 1208822\C,0.6437302103,-2.3027112938,0.9475487645\O,0.8662153473,-2.79
 95396163,-0.3824350303\C,-0.266419441,-2.8723081026,-1.2282505411\O,-2

 Normal termination of Gaussian 16 at Tue Dec  8 12:24:43 2020.

 ----------------------------------------------------------------------
 # B3LYP/6-311++G(d,p) empiricaldispersion=gd3bj scf=xqc pop=npa geom=c
 heck
 ----------------------------------------------------------------------

 --------------------------------------
 CID_146951475_JID_660_Energie_neutraal
 --------------------------------------
 Structure from the checkpoint file:  "JID_660.chk"
 Charge =  0 Multiplicity = 1

 SCF Done:  E(RB3LYP) =  -462.646970867     A.U. after   15 cycles
 Normal termination of Gaussian 16 at Tue Dec  8 12:26:22 2020.

 ----------------------------------------------------------------------
 # B3LYP/6-311++G(d,p) empiricaldispersion=gd3bj scf=xqc pop=npa geom=c
 heck
 ----------------------------------------------------------------------

 ------------------------------------
 CID_146951475_JID_660_Energie_kation
 ------------------------------------
 Structure from the checkpoint file:  "JID_660.chk"
 Charge =  1 Multiplicity = 2

 SCF Done:  E(UB3LYP) =  -462.350769730     A.U. after   20 cycles
 Normal termination of Gaussian 16 at Tue Dec  8 12:29:26 2020.
 Gaussian 16:  ES64L-G16RevA.03 25-Dec-2016

 -----------------------------------
 CID_146951475_JID_660_Energie_anion
 -----------------------------------
 Structure from the checkpoint file:  "JID_660.chk"
 Charge = -1 Multiplicity = 2

                         Standard orientation:
 ---------------------------------------------------------------------
 Center     Atomic      Atomic             Coordinates (Angstroms)
 Number     Number       Type             X           Y           Z
 ---------------------------------------------------------------------
      1          6           0        2.506942   -1.015560   -0.227349
      2          6           0        1.005234   -0.913687   -0.512922
      3          6           0        0.147416   -1.523317    0.567042
      4          6           0       -1.138473   -1.171310    0.708863
      5          6           0       -1.701719   -0.113768   -0.129305
      6          6           0       -0.926135    0.666889   -0.908689
      7          6           0        0.572961    0.526276   -0.888566
      8          8           0        1.207866    1.549093   -0.103751
      9          6           0        0.860397    1.601481    1.267410
     10          8           0       -3.060086   -0.003556   -0.017864
     11          1           0        2.795193   -2.059550   -0.059489
     12          1           0        2.787662   -0.436252    0.656159
     13          1           0        3.090053   -0.632833   -1.071038
     14          1           0        0.795735   -1.503211   -1.422697
     15          1           0        0.583004   -2.297447    1.195289
     16          1           0       -1.796561   -1.634951    1.437326
     17          1           0       -1.352936    1.496953   -1.468421
     18          1           0        0.972764    0.728100   -1.887338
     19          1           0       -0.224486    1.666244    1.416996
     20          1           0        1.231353    0.728272    1.822607
     21          1           0        1.331455    2.503042    1.668836
     22          1           0       -3.355206    0.735315   -0.574208
 ---------------------------------------------------------------------

 SCF Done:  E(UB3LYP) =  -462.634675496     A.U. after   33 cycles
 SCF Done:  E(UB3LYP) =  -462.634675496     a.u. after    1 cycles

 The electronic state is 2-A.
 Alpha  occ. eigenvalues --  -19.02770 -18.99542 -10.10105 -10.09635 -10.08329
 Alpha  occ. eigenvalues --  -10.05587 -10.04120 -10.04079 -10.03776 -10.02238
 Alpha  occ. eigenvalues --   -0.93694  -0.90424  -0.71187  -0.64052  -0.62257
 Alpha  occ. eigenvalues --   -0.57174  -0.53950  -0.48842  -0.46637  -0.41406
 Alpha  occ. eigenvalues --   -0.38481  -0.36140  -0.34322  -0.34040  -0.31653
 Alpha  occ. eigenvalues --   -0.30438  -0.29598  -0.27916  -0.27410  -0.26336
 Alpha  occ. eigenvalues --   -0.24865  -0.24582  -0.22256  -0.20882  -0.18370
 Alpha  occ. eigenvalues --   -0.15781  -0.13330  -0.09046   0.05148
 Alpha virt. eigenvalues --    0.07351   0.08483   0.08981   0.09342   0.10164
 Alpha virt. eigenvalues --    0.11041   0.11381   0.12511   0.12862   0.13255
 Alpha virt. eigenvalues --    0.14210   0.15519   0.16835   0.17808   0.18323

  Beta  occ. eigenvalues --  -19.02714 -18.99517 -10.10039 -10.09623 -10.08305
  Beta  occ. eigenvalues --  -10.05603 -10.04082 -10.03887 -10.03715 -10.02141
  Beta  occ. eigenvalues --   -0.93569  -0.90374  -0.70982  -0.63917  -0.62055
  Beta  occ. eigenvalues --   -0.57062  -0.53769  -0.48647  -0.46527  -0.41207
  Beta  occ. eigenvalues --   -0.38346  -0.36057  -0.34219  -0.33944  -0.31562
  Beta  occ. eigenvalues --   -0.30308  -0.29513  -0.27842  -0.27132  -0.26250
  Beta  occ. eigenvalues --   -0.24743  -0.24491  -0.22159  -0.20748  -0.18264
  Beta  occ. eigenvalues --   -0.15275  -0.13163  -0.08402
  Beta virt. eigenvalues --    0.07768   0.08615   0.09280   0.09364   0.09950
  Beta virt. eigenvalues --    0.10598   0.11450   0.11715   0.12685   0.13047
  Beta virt. eigenvalues --    0.13680   0.14606   0.15678   0.16883   0.18149

 Mulliken charges and spin densities:
               1          2
     1  C    1.354315  -2.056470
     2  C   -1.547330   1.658885
     3  C   -0.738644   0.361929
     4  C    0.888540  -0.550413
     5  C    1.442636  -2.042562
     6  C   -1.552374   1.760203
     7  C    1.296114  -1.577333
     8  O   -0.159465   0.077405
     9  C    0.091503  -0.404743
    10  O   -0.259034   0.042662
    11  H   -0.291425   0.408453
    12  H    0.073799   0.080435
    13  H   -0.281164   0.428190
    14  H   -0.276715   0.456562
    15  H   -0.079386   0.220752
    16  H    0.055739   0.117324
    17  H   -0.696798   0.839771
    18  H    0.032520   0.165001
    19  H   -0.054069   0.205553
    20  H    0.006395   0.103668
    21  H   -0.042048   0.182463
    22  H   -0.263107   0.522266
 Sum of Mulliken charges =  -1.00000   1.00000

 Dipole moment (field-independent basis, Debye):
    X=              0.9841    Y=             -0.9236    Z=              2.1763  Tot=              2.5608
 Quadrupole moment (field-independent basis, Debye-Ang):
   XX=           -110.9358   YY=            -92.8378   ZZ=            -83.8346
   XY=              5.1797   XZ=              1.1438   YZ=              0.7904

 Summary of Natural Population Analysis:

                                       Natural Population
                Natural  -----------------------------------------------
    Atom  No    Charge         Core      Valence    Rydberg      Total
 -----------------------------------------------------------------------
      C    1   -0.28163      0.99965     2.27418    0.00780     3.28163
      C    2   -0.14531      0.99957     2.13392    0.01182     3.14531
      C    3   -0.03614      0.99953     2.02684    0.00978     3.03614
      C    4   -0.12558      0.99949     2.11598    0.01011     3.12558
      C    5    0.16805      0.99935     1.81841    0.01419     2.83195
      C    6   -0.16345      0.99947     2.15179    0.01219     3.16345
      C    7    0.06262      0.99952     1.92000    0.01786     2.93738
      O    8   -0.30305      0.99989     3.29281    0.01036     4.30305
      C    9   -0.10026      0.99960     2.09211    0.00855     3.10026
      O   10   -0.34485      0.99988     3.33721    0.00777     4.34485
      H   11    0.09449      0.00000     0.40456    0.00094     0.40551
      H   12    0.09985      0.00000     0.39898    0.00116     0.40015
      H   13    0.10077      0.00000     0.39796    0.00128     0.39923
      H   14    0.11250      0.00000     0.38551    0.00199     0.38750
      H   15    0.09067      0.00000     0.40833    0.00100     0.40933
      H   16    0.09970      0.00000     0.39900    0.00129     0.40030
      H   17    0.09602      0.00000     0.40246    0.00152     0.40398
      H   18    0.09472      0.00000     0.40336    0.00192     0.40528
      H   19    0.08555      0.00000     0.41276    0.00170     0.41445
      H   20    0.07793      0.00000     0.42031    0.00176     0.42207
      H   21    0.08231      0.00000     0.41639    0.00130     0.41769
      H   22    0.23510      0.00000     0.25778    0.00712     0.26490
 =======================================================================
   * Total *   -0.00000      9.99594    27.87064    0.13342    38.00000

 Normal termination of Gaussian 16 at Tue Dec  8 12:40:05 2020.
