 Gaussian 16, Revision A.03,

 -----------------------------------------------------------
 # opt freq B3LYP/6-31G(d) empiricaldispersion=gd3bj scf=xqc
 -----------------------------------------------------------

 ------------------------------
 CID_61258177_JID_9068_neutraal
 ------------------------------
 Symbolic Z-matrix:
 Charge =  0 Multiplicity = 1

 SCF Done:  E(RB3LYP) =  -826.416251067     A.U. after   14 cycles
 SCF Done:  E(RB3LYP) =  -826.414556401     A.U. after   13 cycles
 SCF Done:  E(RB3LYP) =  -826.422018304     A.U. after   12 cycles
 SCF Done:  E(RB3LYP) =  -826.422090833     A.U. after   12 cycles
 SCF Done:  E(RB3LYP) =  -826.423149184     A.U. after   12 cycles
 SCF Done:  E(RB3LYP) =  -826.423291757     A.U. after   12 cycles
 SCF Done:  E(RB3LYP) =  -826.423427761     A.U. after   12 cycles
 SCF Done:  E(RB3LYP) =  -826.423456664     A.U. after   10 cycles
 SCF Done:  E(RB3LYP) =  -826.423464216     A.U. after   10 cycles
 SCF Done:  E(RB3LYP) =  -826.423466436     A.U. after    9 cycles
 SCF Done:  E(RB3LYP) =  -826.423844284     A.U. after   10 cycles
 SCF Done:  E(RB3LYP) =  -826.423845803     A.U. after    9 cycles
 SCF Done:  E(RB3LYP) =  -826.423846094     A.U. after    9 cycles
 SCF Done:  E(RB3LYP) =  -826.423846994     A.U. after    7 cycles
 SCF Done:  E(RB3LYP) =  -826.423847125     A.U. after    7 cycles
 Optimization completed.
    -- Stationary point found.
 Normal termination of Gaussian 16 at Sat Dec 12 09:43:55 2020.

 --------------------------------------------------------------------
 #N Geom=AllCheck Guess=TCheck SCRF=Check GenChk RB3LYP/6-31G(d) Freq
 --------------------------------------------------------------------

 Structure from the checkpoint file:  "JID_9068.chk"
 ------------------------------
 CID_61258177_JID_9068_neutraal
 ------------------------------
 Charge =  0 Multiplicity = 1

 SCF Done:  E(RB3LYP) =  -826.423847125     A.U. after    1 cycles

  Exact polarizability: 227.867  17.370 154.566  -7.801  -5.921 140.689
 Approx polarizability: 321.998  34.011 248.199 -11.884  -4.428 240.163

                      1                      2                      3
                      A                      A                      A
 Frequencies --     28.1705                54.2187                61.0866
 Red. masses --      3.9337                 2.9849                 2.4184
 Frc consts  --      0.0018                 0.0052                 0.0053
 IR Inten    --      0.2411                 0.2576                 0.7807

                      4                      5                      6
                      A                      A                      A
 Frequencies --     64.9215                85.5595               114.0643
 Red. masses --      1.5380                 3.8368                 3.5684
 Frc consts  --      0.0038                 0.0165                 0.0274
 IR Inten    --      1.0351                 0.1763                 0.6187

                      7                      8                      9
                      A                      A                      A
 Frequencies --    119.1300               142.5859               175.0027
 Red. masses --      3.0489                 3.7595                 1.3129
 Frc consts  --      0.0255                 0.0450                 0.0237
 IR Inten    --      0.8724                 2.9262                 0.5707

                     10                     11                     12
                      A                      A                      A
 Frequencies --    185.4770               195.9421               214.0127
 Red. masses --      1.5372                 1.3746                 3.9699
 Frc consts  --      0.0312                 0.0311                 0.1071
 IR Inten    --      0.4536                 0.9973                 0.7288

                     13                     14                     15
                      A                      A                      A
 Frequencies --    221.0740               249.0728               251.6546
 Red. masses --      4.2195                 4.9085                 3.4472
 Frc consts  --      0.1215                 0.1794                 0.1286
 IR Inten    --      1.5344                 2.1108                 1.0216

                     16                     17                     18
                      A                      A                      A
 Frequencies --    299.4355               325.3123               344.2960
 Red. masses --      2.9573                 3.5495                 2.4062
 Frc consts  --      0.1562                 0.2213                 0.1681
 IR Inten    --      1.8816                 3.9824                 4.0684

                     19                     20                     21
                      A                      A                      A
 Frequencies --    358.9149               404.8399               416.1215
 Red. masses --      2.4639                 3.4706                 3.4197
 Frc consts  --      0.1870                 0.3351                 0.3489
 IR Inten    --      4.3667                 2.4585                 3.4284

                     22                     23                     24
                      A                      A                      A
 Frequencies --    421.4105               481.0970               510.0334
 Red. masses --      1.3067                 3.5658                 4.1666
 Frc consts  --      0.1367                 0.4863                 0.6386
 IR Inten    --     63.4337                 5.8555                 2.0147

                     25                     26                     27
                      A                      A                      A
 Frequencies --    524.0042               543.3119               559.2428
 Red. masses --      4.9180                 3.7031                 4.7994
 Frc consts  --      0.7956                 0.6440                 0.8844
 IR Inten    --      2.6787                 3.4977                 3.5268

                     28                     29                     30
                      A                      A                      A
 Frequencies --    581.5017               583.4522               632.2102
 Red. masses --      3.9312                 3.9986                 4.5158
 Frc consts  --      0.7832                 0.8020                 1.0634
 IR Inten    --      1.0065                 1.7287                 1.6581

                     31                     32                     33
                      A                      A                      A
 Frequencies --    642.2667               669.7895               738.3397
 Red. masses --      7.1017                 4.3168                 4.1055
 Frc consts  --      1.7260                 1.1410                 1.3186
 IR Inten    --      0.7699                 2.7103                 4.8743

                     34                     35                     36
                      A                      A                      A
 Frequencies --    754.0121               770.3702               782.6133
 Red. masses --      4.0991                 2.5627                 1.7484
 Frc consts  --      1.3731                 0.8961                 0.6309
 IR Inten    --      8.2514                 6.1121                37.6045

                     37                     38                     39
                      A                      A                      A
 Frequencies --    806.4630               817.9852               862.2049
 Red. masses --      1.4125                 3.1973                 3.8969
 Frc consts  --      0.5413                 1.2605                 1.7068
 IR Inten    --      3.8133                 7.0854                10.0241

                     40                     41                     42
                      A                      A                      A
 Frequencies --    876.6267               882.7149               926.5415
 Red. masses --      1.2642                 1.5197                 2.0862
 Frc consts  --      0.5724                 0.6977                 1.0552
 IR Inten    --      5.1225                 2.6017                 7.9279

                     43                     44                     45
                      A                      A                      A
 Frequencies --    953.6229               980.5576               983.9688
 Red. masses --      1.3584                 1.2833                 2.3208
 Frc consts  --      0.7278                 0.7270                 1.3239
 IR Inten    --      1.8301                 0.2238                 0.6935

                     46                     47                     48
                      A                      A                      A
 Frequencies --   1000.4517              1014.0055              1043.1384
 Red. masses --      3.7792                 1.7174                 4.2066
 Frc consts  --      2.2286                 1.0404                 2.6969
 IR Inten    --     19.2165                24.4166                37.3574

                     49                     50                     51
                      A                      A                      A
 Frequencies --   1056.2533              1060.7193              1071.5713
 Red. masses --      1.8652                 1.8192                 1.5903
 Frc consts  --      1.2261                 1.2060                 1.0759
 IR Inten    --      8.0913                 1.2336                13.4632

                     52                     53                     54
                      A                      A                      A
 Frequencies --   1077.3073              1087.0415              1089.1244
 Red. masses --      1.5739                 1.7911                 2.2320
 Frc consts  --      1.0762                 1.2470                 1.5599
 IR Inten    --      1.8899                 2.3209                42.1106

                     55                     56                     57
                      A                      A                      A
 Frequencies --   1097.0457              1153.0223              1176.6493
 Red. masses --      1.8582                 1.6502                 2.9430
 Frc consts  --      1.3177                 1.2926                 2.4007
 IR Inten    --      4.4979                28.9052                 7.8382

                     58                     59                     60
                      A                      A                      A
 Frequencies --   1190.5076              1216.3670              1220.8157
 Red. masses --      1.1174                 2.0110                 1.3959
 Frc consts  --      0.9331                 1.7531                 1.2258
 IR Inten    --      0.2103                10.9519                86.4471

                     61                     62                     63
                      A                      A                      A
 Frequencies --   1256.8703              1261.0468              1287.5271
 Red. masses --      1.9448                 2.5495                 1.5212
 Frc consts  --      1.8101                 2.3887                 1.4858
 IR Inten    --     85.5958               124.2572                56.7671

                     64                     65                     66
                      A                      A                      A
 Frequencies --   1321.2177              1330.5764              1350.4400
 Red. masses --      1.8449                 4.7795                 4.7111
 Frc consts  --      1.8974                 4.9856                 5.0620
 IR Inten    --      3.5909                 3.0397                89.2531

                     67                     68                     69
                      A                      A                      A
 Frequencies --   1360.8667              1383.9031              1396.0917
 Red. masses --      2.5411                 1.6047                 1.3596
 Frc consts  --      2.7727                 1.8108                 1.5613
 IR Inten    --     37.9225                 3.5921                59.5516

                     70                     71                     72
                      A                      A                      A
 Frequencies --   1418.5632              1433.4193              1438.6437
 Red. masses --      2.8924                 1.2990                 1.2994
 Frc consts  --      3.4293                 1.5726                 1.5845
 IR Inten    --    111.7688                24.9791                 1.3153

                     73                     74                     75
                      A                      A                      A
 Frequencies --   1441.5155              1442.5182              1494.0731
 Red. masses --      1.2414                 1.2666                 2.4246
 Frc consts  --      1.5198                 1.5528                 3.1889
 IR Inten    --      1.7901                 9.4630                14.0346

                     76                     77                     78
                      A                      A                      A
 Frequencies --   1498.9399              1506.0166              1513.1286
 Red. masses --      2.5641                 1.0491                 1.1160
 Frc consts  --      3.3944                 1.4019                 1.5054
 IR Inten    --     46.0143                 5.0841                30.0315

                     79                     80                     81
                      A                      A                      A
 Frequencies --   1522.1039              1527.1285              1527.4646
 Red. masses --      1.2258                 1.0789                 1.1576
 Frc consts  --      1.6732                 1.4824                 1.5913
 IR Inten    --     16.1452                13.3174                19.2976

                     82                     83                     84
                      A                      A                      A
 Frequencies --   1529.2279              1537.3521              1546.8041
 Red. masses --      1.1162                 1.9032                 1.1050
 Frc consts  --      1.5380                 2.6502                 1.5577
 IR Inten    --      1.3076                67.8598                14.3945

                     85                     86                     87
                      A                      A                      A
 Frequencies --   1548.7229              1612.7620              1635.0955
 Red. masses --      1.1045                 5.8482                 6.0781
 Frc consts  --      1.5608                 8.9622                 9.5742
 IR Inten    --     11.9597                90.9976                 3.4084

                     88                     89                     90
                      A                      A                      A
 Frequencies --   1654.8156              1665.8907              3049.7909
 Red. masses --      6.6796                 6.2778                 1.0420
 Frc consts  --     10.7771                10.2649                 5.7101
 IR Inten    --    120.3707                 9.2732                15.7789

                     91                     92                     93
                      A                      A                      A
 Frequencies --   3050.8578              3055.5313              3057.0339
 Red. masses --      1.0704                 1.0394                 1.0362
 Frc consts  --      5.8703                 5.7175                 5.7055
 IR Inten    --     26.5683                29.3878                19.8034

                     94                     95                     96
                      A                      A                      A
 Frequencies --   3083.4160              3112.9699              3113.1432
 Red. masses --      1.0591                 1.0988                 1.0949
 Frc consts  --      5.9330                 6.2736                 6.2522
 IR Inten    --     35.7387                12.7492                18.1693

                     97                     98                     99
                      A                      A                      A
 Frequencies --   3116.2851              3123.7313              3140.0926
 Red. masses --      1.1005                 1.1055                 1.0933
 Frc consts  --      6.2970                 6.3557                 6.3512
 IR Inten    --     11.7299                31.4607                 8.4087

                    100                    101                    102
                      A                      A                      A
 Frequencies --   3140.4021              3144.7175              3151.6943
 Red. masses --      1.1025                 1.1038                 1.0999
 Frc consts  --      6.4064                 6.4313                 6.4374
 IR Inten    --     17.8441                 8.4691                14.9458

                    103                    104                    105
                      A                      A                      A
 Frequencies --   3179.1214              3196.9595              3197.2343
 Red. masses --      1.0877                 1.0879                 1.0911
 Frc consts  --      6.4769                 6.5510                 6.5718
 IR Inten    --      7.7944                 7.1319                16.4453

                    106                    107                    108
                      A                      A                      A
 Frequencies --   3210.1952              3220.1575              3717.6624
 Red. masses --      1.0927                 1.0969                 1.0658
 Frc consts  --      6.6344                 6.7018                 8.6793
 IR Inten    --     22.6754                11.6632                69.9360

 - Thermochemistry -
 -------------------
 Temperature   298.150 Kelvin.  Pressure   1.00000 Atm.
 Atom     1 has atomic number  6 and mass  12.00000

 Molecular mass:   257.14158 amu.
 Principal axes and moments of inertia in atomic units:
                           1         2         3
     Eigenvalues --  2771.976516135.213446868.20647
           X            0.99998   0.00510  -0.00375
           Y           -0.00526   0.99907  -0.04275
           Z            0.00352   0.04276   0.99908
 This molecule is an asymmetric top.
 Rotational symmetry number  1.
 Warning -- assumption of classical behavior for rotation
           may cause significant error
 Rotational temperatures (Kelvin)      0.03125     0.01412     0.01261
 Rotational constants (GHZ):           0.65107     0.29416     0.26277
 Zero-point vibrational energy     841291.6 (Joules/Mol)
                                  201.07352 (Kcal/Mol)
 Warning -- explicit consideration of  29 degrees of freedom as
           vibrations may cause significant error
 Vibrational temperatures:     40.53    78.01    87.89    93.41   123.10
          (Kelvin)            164.11   171.40   205.15   251.79   266.86
                              281.92   307.92   318.08   358.36   362.07
                              430.82   468.05   495.37   516.40   582.47
                              598.71   606.32   692.19   733.82   753.93
                              781.70   804.63   836.65   839.46   909.61
                              924.08   963.68  1062.31  1084.86  1108.39
                             1126.01  1160.32  1176.90  1240.52  1261.27
                             1270.03  1333.09  1372.05  1410.80  1415.71
                             1439.43  1458.93  1500.84  1519.71  1526.14
                             1541.75  1550.00  1564.01  1567.01  1578.40
                             1658.94  1692.94  1712.87  1750.08  1756.48
                             1808.36  1814.37  1852.46  1900.94  1914.40
                             1942.98  1957.98  1991.13  2008.66  2041.00
                             2062.37  2069.89  2074.02  2075.46  2149.64
                             2156.64  2166.82  2177.05  2189.97  2197.20
                             2197.68  2200.22  2211.91  2225.51  2228.27
                             2320.40  2352.54  2380.91  2396.85  4387.97
                             4389.50  4396.23  4398.39  4436.35  4478.87
                             4479.12  4483.64  4494.35  4517.89  4518.34
                             4524.55  4534.59  4574.05  4599.71  4600.11
                             4618.75  4633.09  5348.89

 Zero-point correction=                           0.320431 (Hartree/Particle)
 Thermal correction to Energy=                    0.338835
 Thermal correction to Enthalpy=                  0.339780
 Thermal correction to Gibbs Free Energy=         0.273922
 Sum of electronic and zero-point Energies=           -826.103416
 Sum of electronic and thermal Energies=              -826.085012
 Sum of electronic and thermal Enthalpies=            -826.084067
 Sum of electronic and thermal Free Energies=         -826.149925

                     E (Thermal)             CV                S
                      KCal/Mol        Cal/Mol-Kelvin    Cal/Mol-Kelvin
 Total                  212.622             70.329            138.610
 Electronic               0.000              0.000              0.000
 Translational            0.889              2.981             42.533
 Rotational               0.889              2.981             33.124
 Vibrational            210.845             64.368             62.953
 Vibration     1          0.593              1.984              5.954
 Vibration     2          0.596              1.976              4.657
 Vibration     3          0.597              1.973              4.422
 Vibration     4          0.597              1.971              4.302
 Vibration     5          0.601              1.959              3.759
 Vibration     6          0.607              1.938              3.199
 Vibration     7          0.609              1.933              3.114
 Vibration     8          0.616              1.911              2.769
 Vibration     9          0.627              1.873              2.381
 Vibration    10          0.632              1.860              2.273
 Vibration    11          0.636              1.846              2.171
 Vibration    12          0.644              1.820              2.009
 Vibration    13          0.648              1.809              1.950
 Vibration    14          0.662              1.764              1.737
 Vibration    15          0.664              1.760              1.719
 Vibration    16          0.692              1.675              1.420
 Vibration    17          0.709              1.625              1.283
 Vibration    18          0.723              1.587              1.192
 Vibration    19          0.734              1.557              1.127
 Vibration    20          0.770              1.460              0.945
 Vibration    21          0.779              1.435              0.905
 Vibration    22          0.784              1.424              0.887
 Vibration    23          0.837              1.292              0.707
 Vibration    24          0.865              1.228              0.634
 Vibration    25          0.879              1.197              0.601
 Vibration    26          0.898              1.154              0.558
 Vibration    27          0.915              1.120              0.525
 Vibration    28          0.938              1.071              0.483
 Vibration    29          0.940              1.067              0.479

 Optimization completed.
    -- Stationary point found.
 Normal termination of Gaussian 16 at Sat Dec 12 10:05:01 2020.

 ----------------------------------------------------------------------
 # B3LYP/6-311++G(d,p) empiricaldispersion=gd3bj scf=xqc pop=npa geom=c
 heck
 ----------------------------------------------------------------------

 --------------------------------------
 CID_61258177_JID_9068_Energie_neutraal
 --------------------------------------
 Structure from the checkpoint file:  "JID_9068.chk"
 Charge =  0 Multiplicity = 1

 SCF Done:  E(RB3LYP) =  -826.649650550     A.U. after   15 cycles
 Normal termination of Gaussian 16 at Sat Dec 12 10:12:34 2020.

 ----------------------------------------------------------------------
 # B3LYP/6-311++G(d,p) empiricaldispersion=gd3bj scf=xqc pop=npa geom=c
 heck
 ----------------------------------------------------------------------

 ------------------------------------
 CID_61258177_JID_9068_Energie_kation
 ------------------------------------
 Structure from the checkpoint file:  "JID_9068.chk"
 Charge =  1 Multiplicity = 2

 SCF Done:  E(UB3LYP) =  -826.352285409     A.U. after   25 cycles
 Normal termination of Gaussian 16 at Sat Dec 12 10:30:05 2020.
 Gaussian 16:  ES64L-G16RevA.03 25-Dec-2016

 ----------------------------------------------------------------------
 # B3LYP/6-311++G(d,p) empiricaldispersion=gd3bj scf=xqc pop=npa geom=c
 heck
 ----------------------------------------------------------------------

 -----------------------------------
 CID_61258177_JID_9068_Energie_anion
 -----------------------------------
 Structure from the checkpoint file:  "JID_9068.chk"
 Charge = -1 Multiplicity = 2

                         Standard orientation:
 ---------------------------------------------------------------------
 Center     Atomic      Atomic             Coordinates (Angstroms)
 Number     Number       Type             X           Y           Z
 ---------------------------------------------------------------------
      1          6           0        0.108576   -0.977846    2.366003
      2          6           0        0.760762   -1.791384    1.235310
      3          6           0        1.802599   -1.011830    0.460256
      4          6           0        3.064460   -0.790143    1.036525
      5          6           0        4.088217   -0.134925    0.357348
      6          6           0        3.871404    0.309474   -0.948436
      7          6           0        2.627516    0.120691   -1.540990
      8          6           0        1.596926   -0.508431   -0.836706
      9          8           0        0.402752   -0.666748   -1.522489
     10          6           0       -0.793897   -0.284843   -0.941600
     11          6           0       -0.987319    1.013878   -0.441655
     12          6           0       -2.227113    1.267926    0.171947
     13          6           0       -3.190289    0.256958    0.180684
     14          6           0       -2.911924   -0.974197   -0.413647
     15          7           0       -1.712747   -1.238897   -0.954336
     16          6           0       -3.927631   -2.084326   -0.466008
     17          6           0       -2.512798    2.602898    0.812039
     18          6           0        0.073309    2.091157   -0.501553
     19          8           0        0.801254    2.231467    0.718468
     20          1           0        0.855893   -0.669812    3.106353
     21          1           0       -0.651560   -1.574620    2.881514
     22          1           0       -0.368120   -0.072488    1.981993
     23          1           0        1.255498   -2.668517    1.671339
     24          1           0       -0.005074   -2.173088    0.557460
     25          1           0        3.241808   -1.168588    2.040525
     26          1           0        5.051106    0.013623    0.836453
     27          1           0        4.662410    0.808367   -1.500137
     28          1           0        2.422950    0.463536   -2.550004
     29          1           0       -4.155880    0.429763    0.646581
     30          1           0       -4.853705   -1.808826    0.046388
     31          1           0       -4.164712   -2.333346   -1.506639
     32          1           0       -3.524121   -2.991846   -0.004174
     33          1           0       -2.631276    3.390263    0.056666
     34          1           0       -3.435073    2.564716    1.398089
     35          1           0       -1.689218    2.902239    1.467130
     36          1           0        0.743973    1.917066   -1.348197
     37          1           0       -0.402611    3.061448   -0.663240
     38          1           0        1.348117    1.434291    0.817303
 ---------------------------------------------------------------------

 SCF Done:  E(UB3LYP) =  -826.640407661     A.U. after   33 cycles
 SCF Done:  E(UB3LYP) =  -826.640407661     a.u. after    1 cycles

 The electronic state is 2-A.
 Alpha  occ. eigenvalues --  -19.04252 -19.00705 -14.17055 -10.14244 -10.12814
 Alpha  occ. eigenvalues --  -10.10750 -10.08850 -10.07703 -10.07054 -10.06635
 Alpha  occ. eigenvalues --  -10.06470 -10.06453 -10.06206 -10.06171 -10.06145
 Alpha  occ. eigenvalues --  -10.06144 -10.05738 -10.05194 -10.05020  -0.96773
 Alpha  occ. eigenvalues --   -0.90756  -0.82150  -0.75329  -0.70641  -0.68210
 Alpha  occ. eigenvalues --   -0.67264  -0.63623  -0.61832  -0.61678  -0.59106
 Alpha  occ. eigenvalues --   -0.55621  -0.53301  -0.51778  -0.49278  -0.47326
 Alpha  occ. eigenvalues --   -0.46638  -0.42292  -0.40881  -0.38942  -0.38664
 Alpha  occ. eigenvalues --   -0.37558  -0.36112  -0.34045  -0.33372  -0.32668
 Alpha  occ. eigenvalues --   -0.32184  -0.31845  -0.31674  -0.30980  -0.30941
 Alpha  occ. eigenvalues --   -0.29567  -0.29158  -0.28788  -0.27518  -0.26831
 Alpha  occ. eigenvalues --   -0.26324  -0.25628  -0.25086  -0.24146  -0.23397
 Alpha  occ. eigenvalues --   -0.23242  -0.22661  -0.21021  -0.17178  -0.15581
 Alpha  occ. eigenvalues --   -0.14813  -0.14230  -0.13744  -0.12066   0.04825
 Alpha virt. eigenvalues --    0.06704   0.07025   0.07572   0.08163   0.08268
 Alpha virt. eigenvalues --    0.08958   0.09297   0.09456   0.10221   0.10436
 Alpha virt. eigenvalues --    0.10707   0.10956   0.11484   0.11613   0.12684

  Beta  occ. eigenvalues --  -19.04258 -19.00675 -14.16810 -10.14251 -10.12816
  Beta  occ. eigenvalues --  -10.10747 -10.08699 -10.07705 -10.07029 -10.06620
  Beta  occ. eigenvalues --  -10.06377 -10.06372 -10.06225 -10.06157 -10.06136
  Beta  occ. eigenvalues --  -10.05845 -10.05711 -10.05254 -10.05008  -0.96760
  Beta  occ. eigenvalues --   -0.90682  -0.81803  -0.75233  -0.70238  -0.68145
  Beta  occ. eigenvalues --   -0.67095  -0.63479  -0.61733  -0.61563  -0.59052
  Beta  occ. eigenvalues --   -0.55551  -0.53250  -0.51669  -0.49175  -0.47062
  Beta  occ. eigenvalues --   -0.46515  -0.42204  -0.40740  -0.38860  -0.38573
  Beta  occ. eigenvalues --   -0.37479  -0.36037  -0.33965  -0.33136  -0.32590
  Beta  occ. eigenvalues --   -0.32087  -0.31683  -0.31546  -0.30894  -0.30688
  Beta  occ. eigenvalues --   -0.29496  -0.29100  -0.28740  -0.27440  -0.26662
  Beta  occ. eigenvalues --   -0.26179  -0.25568  -0.24942  -0.23981  -0.23316
  Beta  occ. eigenvalues --   -0.23137  -0.22497  -0.20833  -0.17083  -0.14592
  Beta  occ. eigenvalues --   -0.14311  -0.13842  -0.13447  -0.11735
  Beta virt. eigenvalues --    0.06890   0.07290   0.07883   0.08171   0.08713
  Beta virt. eigenvalues --    0.08900   0.09235   0.09525   0.09582   0.10371
  Beta virt. eigenvalues --    0.10540   0.10943   0.11078   0.11563   0.11809

 Mulliken charges and spin densities:
               1          2
     1  C   -0.086620  -0.527796
     2  C   -0.019532  -0.309491
     3  C    0.946076   0.096798
     4  C   -0.514505   0.276693
     5  C    0.522482  -0.905206
     6  C    0.435297  -0.719480
     7  C   -0.475402   0.566416
     8  C   -1.039037   0.249416
     9  O    0.019166  -0.014571
    10  C   -0.078301  -0.281928
    11  C    0.226340   0.283315
    12  C    0.361613   0.318277
    13  C   -0.449950   0.090969
    14  C   -0.275947   0.151410
    15  N   -0.026135   0.144264
    16  C   -0.227095  -0.260755
    17  C   -0.489699  -0.062335
    18  C   -0.466621  -0.422422
    19  O   -0.216367   0.002709
    20  H    0.032220   0.097667
    21  H   -0.016424   0.137794
    22  H    0.220320  -0.039623
    23  H   -0.127688   0.304761
    24  H    0.231002   0.008342
    25  H   -0.324804   0.492591
    26  H   -0.495977   0.658649
    27  H   -0.090283   0.244029
    28  H    0.075605   0.091231
    29  H    0.080328   0.057127
    30  H    0.076965   0.051798
    31  H    0.083437   0.067018
    32  H    0.155777  -0.007952
    33  H    0.159953  -0.011927
    34  H    0.051643   0.080791
    35  H    0.075978   0.113743
    36  H    0.196928  -0.041182
    37  H    0.131441   0.023558
    38  H    0.337814  -0.004700
 Sum of Mulliken charges =  -1.00000   1.00000

 Dipole moment (field-independent basis, Debye):
    X=             -4.3038    Y=              1.4429    Z=             -1.6535  Tot=              4.8311
 Quadrupole moment (field-independent basis, Debye-Ang):
   XX=           -173.7734   YY=           -145.5641   ZZ=           -143.3244
   XY=             -1.4220   XZ=             -8.8319   YZ=             -4.8838

 Summary of Natural Population Analysis:

                                       Natural Population
                Natural  -----------------------------------------------
    Atom  No    Charge         Core      Valence    Rydberg      Total
 -----------------------------------------------------------------------
      C    1   -0.28325      0.99965     2.27831    0.00528     3.28325
      C    2   -0.20613      0.99960     2.19729    0.00924     3.20613
      C    3   -0.04354      0.99945     2.03306    0.01103     3.04354
      C    4   -0.08347      0.99952     2.07382    0.01013     3.08347
      C    5   -0.10962      0.99956     2.09969    0.01037     3.10962
      C    6   -0.09810      0.99956     2.08839    0.01015     3.09810
      C    7   -0.10904      0.99950     2.09889    0.01064     3.10904
      C    8    0.14819      0.99929     1.83758    0.01493     2.85181
      O    9   -0.27857      0.99983     3.26919    0.00955     4.27857
      C   10    0.27127      0.99934     1.71201    0.01737     2.72873
      C   11   -0.07725      0.99939     2.07011    0.00775     3.07725
      C   12    0.06882      0.99949     1.92231    0.00938     2.93118
      C   13   -0.14794      0.99947     2.14006    0.00841     3.14794
      C   14    0.13712      0.99955     1.85157    0.01176     2.86288
      N   15   -0.23100      0.99961     2.72059    0.01080     3.73100
      C   16   -0.29671      0.99964     2.29155    0.00552     3.29671
      C   17   -0.30176      0.99964     2.29751    0.00461     3.30176
      C   18   -0.02302      0.99955     2.00930    0.01417     3.02302
      O   19   -0.37155      0.99990     3.36593    0.00572     4.37155
      H   20    0.09354      0.00000     0.40541    0.00105     0.40646
      H   21    0.09594      0.00000     0.40327    0.00079     0.40406
      H   22    0.10676      0.00000     0.39195    0.00130     0.39324
      H   23    0.09879      0.00000     0.40006    0.00115     0.40121
      H   24    0.11425      0.00000     0.38380    0.00195     0.38575
      H   25    0.10019      0.00000     0.39844    0.00137     0.39981
      H   26    0.10086      0.00000     0.39788    0.00126     0.39914
      H   27    0.09881      0.00000     0.40036    0.00084     0.40119
      H   28    0.10382      0.00000     0.39514    0.00103     0.39618
      H   29    0.09477      0.00000     0.40423    0.00099     0.40523
      H   30    0.09447      0.00000     0.40478    0.00074     0.40553
      H   31    0.10427      0.00000     0.39422    0.00151     0.39573
      H   32    0.10507      0.00000     0.39373    0.00120     0.39493
      H   33    0.10195      0.00000     0.39713    0.00092     0.39805
      H   34    0.09846      0.00000     0.40076    0.00078     0.40154
      H   35    0.11439      0.00000     0.38457    0.00104     0.38561
      H   36    0.08675      0.00000     0.41183    0.00142     0.41325
      H   37    0.08681      0.00000     0.41212    0.00107     0.41319
      H   38    0.23565      0.00000     0.26086    0.00349     0.26435
 =======================================================================
   * Total *    0.00000     18.99156    49.79772    0.21073    69.00000

 Normal termination of Gaussian 16 at Sat Dec 12 10:53:18 2020.
