 Gaussian 16, Revision A.03,

 -----------------------------------------------------------
 # opt freq B3LYP/6-31G(d) empiricaldispersion=gd3bj scf=xqc
 -----------------------------------------------------------

 -------------------------------
 CID_117058642_JID_5682_neutraal
 -------------------------------
 Symbolic Z-matrix:
 Charge =  0 Multiplicity = 1

 SCF Done:  E(RB3LYP) =  -1427.50419524     A.U. after   15 cycles
 SCF Done:  E(RB3LYP) =  -1427.50737398     A.U. after   15 cycles
 SCF Done:  E(RB3LYP) =  -1427.50170490     A.U. after   15 cycles
 SCF Done:  E(RB3LYP) =  -1427.51019237     A.U. after   13 cycles
 SCF Done:  E(RB3LYP) =  -1427.51239552     A.U. after   13 cycles
 SCF Done:  E(RB3LYP) =  -1427.50907836     A.U. after   13 cycles
 SCF Done:  E(RB3LYP) =  -1427.51376613     A.U. after   12 cycles
 SCF Done:  E(RB3LYP) =  -1427.51442811     A.U. after   11 cycles
 SCF Done:  E(RB3LYP) =  -1427.51464561     A.U. after   12 cycles
 SCF Done:  E(RB3LYP) =  -1427.51472169     A.U. after   11 cycles
 SCF Done:  E(RB3LYP) =  -1427.51844317     A.U. after   12 cycles
 SCF Done:  E(RB3LYP) =  -1427.51848648     A.U. after   11 cycles
 SCF Done:  E(RB3LYP) =  -1427.51849180     A.U. after    9 cycles
 SCF Done:  E(RB3LYP) =  -1427.51849273     A.U. after    8 cycles
 SCF Done:  E(RB3LYP) =  -1427.51849292     A.U. after    8 cycles
 SCF Done:  E(RB3LYP) =  -1427.51849295     A.U. after    7 cycles
 Optimization completed.
    -- Stationary point found.
 Normal termination of Gaussian 16 at Thu Dec 10 16:55:44 2020.

 --------------------------------------------------------------------
 #N Geom=AllCheck Guess=TCheck SCRF=Check GenChk RB3LYP/6-31G(d) Freq
 --------------------------------------------------------------------

 Structure from the checkpoint file:  "JID_5682.chk"
 -------------------------------
 CID_117058642_JID_5682_neutraal
 -------------------------------
 Charge =  0 Multiplicity = 1

 SCF Done:  E(RB3LYP) =  -1427.51849295     A.U. after    1 cycles

  Exact polarizability: 163.609  12.055 159.922   3.319  -0.032 100.467
 Approx polarizability: 246.074  19.048 261.521  11.945  -9.962 164.038

                      1                      2                      3
                      A                      A                      A
 Frequencies --     50.8188                64.6045                88.0289
 Red. masses --      4.4142                 3.7013                 4.3549
 Frc consts  --      0.0067                 0.0091                 0.0199
 IR Inten    --      1.4226                 2.8812                 1.0293

                      4                      5                      6
                      A                      A                      A
 Frequencies --     98.7825               125.6041               160.9080
 Red. masses --      3.3271                 2.4082                 5.0123
 Frc consts  --      0.0191                 0.0224                 0.0765
 IR Inten    --      0.2482                 6.2824                 0.2134

                      7                      8                      9
                      A                      A                      A
 Frequencies --    178.0879               181.3231               202.6354
 Red. masses --      2.9585                 6.3606                 1.1682
 Frc consts  --      0.0553                 0.1232                 0.0283
 IR Inten    --      3.7923                 4.4689                 1.6410

                     10                     11                     12
                      A                      A                      A
 Frequencies --    213.6902               217.7726               241.4745
 Red. masses --      1.4166                 1.5274                 2.2558
 Frc consts  --      0.0381                 0.0427                 0.0775
 IR Inten    --      0.4815                 2.0266                 3.4343

                     13                     14                     15
                      A                      A                      A
 Frequencies --    255.7793               278.5171               308.0821
 Red. masses --      5.5258                 4.5987                 5.1481
 Frc consts  --      0.2130                 0.2102                 0.2879
 IR Inten    --      0.7692                 1.2048                 4.1157

                     16                     17                     18
                      A                      A                      A
 Frequencies --    331.4223               350.4169               358.9989
 Red. masses --      4.9031                 6.0327                 3.0051
 Frc consts  --      0.3173                 0.4364                 0.2282
 IR Inten    --      2.5792                 6.0215                 4.2654

                     19                     20                     21
                      A                      A                      A
 Frequencies --    387.2293               443.9618               462.3738
 Red. masses --      6.2446                 4.5626                 6.1475
 Frc consts  --      0.5517                 0.5299                 0.7743
 IR Inten    --      9.8250                 2.5876                 7.0879

                     22                     23                     24
                      A                      A                      A
 Frequencies --    495.2083               515.9164               540.2182
 Red. masses --      4.3490                 6.9859                 4.3982
 Frc consts  --      0.6284                 1.0955                 0.7562
 IR Inten    --     24.1019                22.5707                 5.6620

                     25                     26                     27
                      A                      A                      A
 Frequencies --    578.9964               655.6937               661.6929
 Red. masses --     10.0928                 6.0499                 5.5445
 Frc consts  --      1.9935                 1.5325                 1.4303
 IR Inten    --     75.2178                 0.1859                25.8975

                     28                     29                     30
                      A                      A                      A
 Frequencies --    694.7923               721.6085               757.3591
 Red. masses --      6.5084                 5.2816                 6.4016
 Frc consts  --      1.8511                 1.6204                 2.1634
 IR Inten    --     78.4862                 8.6965                63.8532

                     31                     32                     33
                      A                      A                      A
 Frequencies --    781.9793               900.6771               959.1054
 Red. masses --      1.2441                 1.2921                 3.1327
 Frc consts  --      0.4482                 0.6176                 1.6979
 IR Inten    --     22.1549                 0.2350               164.1078

                     34                     35                     36
                      A                      A                      A
 Frequencies --    975.5115               976.8410               996.9044
 Red. masses --      1.3504                 1.4038                 1.3029
 Frc consts  --      0.7571                 0.7892                 0.7629
 IR Inten    --      1.0409                 6.6522                36.4621

                     37                     38                     39
                      A                      A                      A
 Frequencies --   1007.3691              1045.9608              1068.0468
 Red. masses --      1.2930                 7.3683                 4.4309
 Frc consts  --      0.7731                 4.7495                 2.9780
 IR Inten    --      0.5034                15.2621                 1.8598

                     40                     41                     42
                      A                      A                      A
 Frequencies --   1087.5673              1107.6658              1109.2622
 Red. masses --      1.5249                 3.6168                 7.6301
 Frc consts  --      1.0627                 2.6146                 5.5316
 IR Inten    --     12.4833                59.4713               146.1965

                     43                     44                     45
                      A                      A                      A
 Frequencies --   1133.2920              1140.9591              1162.8899
 Red. masses --      1.2354                 2.9972                 1.9128
 Frc consts  --      0.9348                 2.2988                 1.5241
 IR Inten    --      9.5170                97.3517                13.3957

                     46                     47                     48
                      A                      A                      A
 Frequencies --   1177.7630              1201.0986              1239.2616
 Red. masses --      1.3464                 1.0999                 4.1251
 Frc consts  --      1.1004                 0.9349                 3.7326
 IR Inten    --      0.6991                 1.0362                23.1442

                     49                     50                     51
                      A                      A                      A
 Frequencies --   1291.2638              1296.3498              1313.4604
 Red. masses --      1.4622                 2.0318                 7.7689
 Frc consts  --      1.4365                 2.0118                 7.8967
 IR Inten    --      8.8012                32.7745               164.3406

                     52                     53                     54
                      A                      A                      A
 Frequencies --   1344.6428              1360.6460              1466.5853
 Red. masses --      7.1403                 1.2610                 1.1400
 Frc consts  --      7.6064                 1.3755                 1.4446
 IR Inten    --      2.8341                 8.6954                 0.3718

                     55                     56                     57
                      A                      A                      A
 Frequencies --   1474.5942              1475.8275              1493.2948
 Red. masses --      1.3855                 1.3586                 1.1545
 Frc consts  --      1.7750                 1.7435                 1.5169
 IR Inten    --     14.6144                 1.0099                 0.6328

                     58                     59                     60
                      A                      A                      A
 Frequencies --   1498.4956              1507.9704              1508.4044
 Red. masses --      2.2083                 1.0546                 1.0679
 Frc consts  --      2.9216                 1.4129                 1.4316
 IR Inten    --      2.4733                 7.0620                 7.7642

                     61                     62                     63
                      A                      A                      A
 Frequencies --   1519.9462              1523.8598              1539.2519
 Red. masses --      1.0457                 1.0545                 1.0522
 Frc consts  --      1.4233                 1.4427                 1.4689
 IR Inten    --     15.1622                15.2443                 2.3132

                     64                     65                     66
                      A                      A                      A
 Frequencies --   1626.3459              1638.0660              3027.3519
 Red. masses --      5.5326                 5.3088                 1.0502
 Frc consts  --      8.6219                 8.3928                 5.6709
 IR Inten    --      1.0937                 0.9031                71.5129

                     67                     68                     69
                      A                      A                      A
 Frequencies --   3041.0165              3072.6872              3116.6187
 Red. masses --      1.0408                 1.0295                 1.0962
 Frc consts  --      5.6708                 5.7270                 6.2736
 IR Inten    --     61.7349                13.5539                18.1864

                     70                     71                     72
                      A                      A                      A
 Frequencies --   3122.0042              3147.8178              3165.1163
 Red. masses --      1.0922                 1.1039                 1.1059
 Frc consts  --      6.2722                 6.4445                 6.5275
 IR Inten    --     19.4608                15.6283                 5.5139

                     73                     74                     75
                      A                      A                      A
 Frequencies --   3186.3102              3202.8586              3204.6728
 Red. masses --      1.0877                 1.0892                 1.1062
 Frc consts  --      6.5065                 6.5833                 6.6934
 IR Inten    --      0.6089                 6.0549                 5.2165

                     76                     77                     78
                      A                      A                      A
 Frequencies --   3217.0804              3221.6863              3236.4070
 Red. masses --      1.0953                 1.0964                 1.0925
 Frc consts  --      6.6788                 6.7047                 6.7421
 IR Inten    --     17.8216                 0.2387                 4.4218

 - Thermochemistry -
 -------------------
 Temperature   298.150 Kelvin.  Pressure   1.00000 Atm.
 Atom     1 has atomic number  6 and mass  12.00000

 Molecular mass:   247.03369 amu.
 Principal axes and moments of inertia in atomic units:
                           1         2         3
     Eigenvalues --  2877.870853519.145045002.50283
           X            0.99920   0.02478  -0.03148
           Y           -0.02356   0.99898   0.03850
           Z            0.03240  -0.03772   0.99876
 This molecule is an asymmetric top.
 Rotational symmetry number  1.
 Warning -- assumption of classical behavior for rotation
           may cause significant error
 Rotational temperatures (Kelvin)      0.03010     0.02461     0.01731
 Rotational constants (GHZ):           0.62711     0.51284     0.36077
 Zero-point vibrational energy     571424.9 (Joules/Mol)
                                  136.57383 (Kcal/Mol)
 Warning -- explicit consideration of  25 degrees of freedom as
           vibrations may cause significant error
 Vibrational temperatures:     73.12    92.95   126.65   142.13   180.72
          (Kelvin)            231.51   256.23   260.88   291.55   307.45
                              313.33   347.43   368.01   400.72   443.26
                              476.84   504.17   516.52   557.14   638.76
                              665.25   712.49   742.29   777.25   833.05
                              943.40   952.03   999.65  1038.23  1089.67
                             1125.09  1295.87  1379.94  1403.54  1405.46
                             1434.32  1449.38  1504.90  1536.68  1564.77
                             1593.68  1595.98  1630.55  1641.59  1673.14
                             1694.54  1728.11  1783.02  1857.84  1865.16
                             1889.78  1934.64  1957.67  2110.09  2121.61
                             2123.39  2148.52  2156.00  2169.63  2170.26
                             2186.86  2192.49  2214.64  2339.95  2356.81
                             4355.68  4375.34  4420.91  4484.12  4491.87
                             4529.01  4553.90  4584.39  4608.20  4610.81
                             4628.66  4635.29  4656.47

 Zero-point correction=                           0.217644 (Hartree/Particle)
 Thermal correction to Energy=                    0.233577
 Thermal correction to Enthalpy=                  0.234521
 Thermal correction to Gibbs Free Energy=         0.174913
 Sum of electronic and zero-point Energies=          -1427.300849
 Sum of electronic and thermal Energies=             -1427.284916
 Sum of electronic and thermal Enthalpies=           -1427.283972
 Sum of electronic and thermal Free Energies=        -1427.343580

                     E (Thermal)             CV                S
                      KCal/Mol        Cal/Mol-Kelvin    Cal/Mol-Kelvin
 Total                  146.572             59.083            125.455
 Electronic               0.000              0.000              0.000
 Translational            0.889              2.981             42.414
 Rotational               0.889              2.981             32.294
 Vibrational            144.794             53.122             50.748
 Vibration     1          0.595              1.977              4.785
 Vibration     2          0.597              1.971              4.311
 Vibration     3          0.601              1.958              3.703
 Vibration     4          0.604              1.950              3.478
 Vibration     5          0.611              1.927              3.012
 Vibration     6          0.622              1.890              2.539
 Vibration     7          0.629              1.869              2.348
 Vibration     8          0.630              1.865              2.315
 Vibration     9          0.639              1.836              2.109
 Vibration    10          0.644              1.820              2.012
 Vibration    11          0.646              1.814              1.978
 Vibration    12          0.658              1.777              1.792
 Vibration    13          0.666              1.753              1.690
 Vibration    14          0.679              1.713              1.543
 Vibration    15          0.698              1.658              1.373
 Vibration    16          0.714              1.613              1.253
 Vibration    17          0.727              1.574              1.164
 Vibration    18          0.734              1.557              1.126
 Vibration    19          0.756              1.497              1.011
 Vibration    20          0.803              1.374              0.814
 Vibration    21          0.820              1.334              0.759
 Vibration    22          0.851              1.261              0.670
 Vibration    23          0.871              1.215              0.620
 Vibration    24          0.895              1.161              0.565
 Vibration    25          0.936              1.077              0.487

                           ! Non-Optimized Parameters !
 Normal termination of Gaussian 16 at Thu Dec 10 17:06:06 2020.

 ----------------------------------------------------------------------
 # B3LYP/6-311++G(d,p) empiricaldispersion=gd3bj scf=xqc pop=npa geom=c
 heck
 ----------------------------------------------------------------------

 ---------------------------------------
 CID_117058642_JID_5682_Energie_neutraal
 ---------------------------------------
 Structure from the checkpoint file:  "JID_5682.chk"
 Charge =  0 Multiplicity = 1

 SCF Done:  E(RB3LYP) =  -1427.74990784     A.U. after   16 cycles
 Normal termination of Gaussian 16 at Thu Dec 10 17:12:54 2020.

 ----------------------------------------------------------------------
 # B3LYP/6-311++G(d,p) empiricaldispersion=gd3bj scf=xqc pop=npa geom=c
 heck
 ----------------------------------------------------------------------

 -------------------------------------
 CID_117058642_JID_5682_Energie_kation
 -------------------------------------
 Structure from the checkpoint file:  "JID_5682.chk"
 Charge =  1 Multiplicity = 2

 SCF Done:  E(UB3LYP) =  -1427.44252841     A.U. after   28 cycles
 Normal termination of Gaussian 16 at Thu Dec 10 17:26:11 2020.
 Gaussian 16:  ES64L-G16RevA.03 25-Dec-2016

 ----------------------------------------------------------------------
 # B3LYP/6-311++G(d,p) empiricaldispersion=gd3bj scf=xqc pop=npa geom=c
 heck
 ----------------------------------------------------------------------

 ------------------------------------
 CID_117058642_JID_5682_Energie_anion
 ------------------------------------
 Structure from the checkpoint file:  "JID_5682.chk"
 Charge = -1 Multiplicity = 2

                         Standard orientation:
 ---------------------------------------------------------------------
 Center     Atomic      Atomic             Coordinates (Angstroms)
 Number     Number       Type             X           Y           Z
 ---------------------------------------------------------------------
      1          6           0       -2.314628    1.367784    1.507232
      2          7           0       -1.939410    0.188885    0.727748
      3          6           0       -2.903545   -0.915083    0.731946
      4         16           0       -1.185741    0.526595   -0.727880
      5          8           0       -1.231811   -0.673606   -1.566103
      6          8           0       -1.665420    1.807615   -1.266410
      7          6           0        0.521365    0.821507   -0.206802
      8          6           0        0.952889    2.147182   -0.288183
      9          6           0        2.253898    2.494967    0.076411
     10          6           0        3.129874    1.514011    0.530557
     11          6           0        2.697268    0.190239    0.620346
     12          6           0        1.404897   -0.177217    0.238640
     13         16           0        1.121739   -1.987100    0.450767
     14          8           0       -0.285656   -2.318816    0.871722
     15          6           0        1.306385   -2.428786   -1.320482
     16          1           0       -2.536526    1.032868    2.524342
     17          1           0       -3.188392    1.889443    1.095132
     18          1           0       -1.476796    2.067840    1.554546
     19          1           0       -3.874148   -0.618984    0.309196
     20          1           0       -2.482924   -1.752378    0.181630
     21          1           0       -3.039012   -1.221463    1.772593
     22          1           0        0.256452    2.893335   -0.652787
     23          1           0        2.573291    3.530190    0.006771
     24          1           0        4.142438    1.772664    0.825365
     25          1           0        3.371089   -0.575911    0.995273
     26          1           0        1.221657   -3.517354   -1.373055
     27          1           0        0.509263   -1.952894   -1.891806
     28          1           0        2.296193   -2.110637   -1.659283
 ---------------------------------------------------------------------

 SCF Done:  E(UB3LYP) =  -1427.76226839     A.U. after   25 cycles

 The electronic state is 2-A.
 Alpha  occ. eigenvalues --  -88.92066 -88.81294 -18.97925 -18.97701 -18.94669
 Alpha  occ. eigenvalues --  -14.21302 -10.08973 -10.07452 -10.05873 -10.05172
 Alpha  occ. eigenvalues --  -10.04704 -10.04609 -10.04071 -10.02663 -10.02381
 Alpha  occ. eigenvalues --   -7.98188  -7.88838  -5.94489  -5.94477  -5.94236
 Alpha  occ. eigenvalues --   -5.85123  -5.84981  -5.84450  -0.98154  -0.88002
 Alpha  occ. eigenvalues --   -0.87142  -0.81014  -0.72581  -0.64961  -0.63103
 Alpha  occ. eigenvalues --   -0.60566  -0.60344  -0.57728  -0.51657  -0.48544
 Alpha  occ. eigenvalues --   -0.46295  -0.43642  -0.40188  -0.38393  -0.35940
 Alpha  occ. eigenvalues --   -0.35073  -0.33558  -0.32784  -0.32432  -0.31585
 Alpha  occ. eigenvalues --   -0.30709  -0.30204  -0.29445  -0.29090  -0.28927
 Alpha  occ. eigenvalues --   -0.27710  -0.25970  -0.24446  -0.23631  -0.22946
 Alpha  occ. eigenvalues --   -0.22190  -0.21579  -0.18853  -0.17501  -0.17213
 Alpha  occ. eigenvalues --   -0.14735  -0.13602  -0.13150  -0.11695  -0.09715
 Alpha  occ. eigenvalues --    0.04465
 Alpha virt. eigenvalues --    0.08251   0.08905   0.09401   0.10341   0.10623
 Alpha virt. eigenvalues --    0.11269   0.11369   0.12072   0.12651   0.13466
 Alpha virt. eigenvalues --    0.13817   0.14149   0.14439   0.15416   0.15647

  Beta  occ. eigenvalues --  -88.92060 -88.81294 -18.97883 -18.97671 -18.94636
  Beta  occ. eigenvalues --  -14.21263 -10.08971 -10.07429 -10.05806 -10.04835
  Beta  occ. eigenvalues --  -10.04719 -10.04297 -10.04121 -10.02450 -10.02036
  Beta  occ. eigenvalues --   -7.98181  -7.88836  -5.94484  -5.94439  -5.94242
  Beta  occ. eigenvalues --   -5.85108  -5.84983  -5.84456  -0.98039  -0.87895
  Beta  occ. eigenvalues --   -0.87057  -0.80936  -0.72046  -0.64581  -0.62493
  Beta  occ. eigenvalues --   -0.60384  -0.60171  -0.57474  -0.51195  -0.48291
  Beta  occ. eigenvalues --   -0.46145  -0.43322  -0.39982  -0.38260  -0.35864
  Beta  occ. eigenvalues --   -0.34959  -0.33366  -0.32572  -0.32300  -0.31497
  Beta  occ. eigenvalues --   -0.30550  -0.29890  -0.29338  -0.28996  -0.28865
  Beta  occ. eigenvalues --   -0.27600  -0.25909  -0.24139  -0.22981  -0.22358
  Beta  occ. eigenvalues --   -0.22037  -0.21449  -0.18750  -0.17313  -0.17009
  Beta  occ. eigenvalues --   -0.14222  -0.12724  -0.12077  -0.10577  -0.09310
  Beta virt. eigenvalues --    0.08085   0.08800   0.09311   0.10154   0.10544
  Beta virt. eigenvalues --    0.10931   0.11230   0.11633   0.12049   0.12574
  Beta virt. eigenvalues --    0.13390   0.13743   0.14089   0.14538   0.15332

 Mulliken charges and spin densities:
               1          2
     1  C   -0.302556  -0.054907
     2  N    0.066124   0.052440
     3  C   -0.272228  -0.048830
     4  S   -0.050515  -0.056543
     5  O   -0.239143  -0.013451
     6  O   -0.176197   0.014246
     7  C   -0.176639   0.309205
     8  C    0.040190  -0.042374
     9  C   -0.400861   0.176666
    10  C   -0.551169   0.306853
    11  C   -0.374773  -0.112225
    12  C    0.349221   0.299166
    13  S    0.336711   0.033103
    14  O   -0.396115  -0.017332
    15  C   -0.682309  -0.001737
    16  H    0.104437   0.035370
    17  H    0.145999   0.021497
    18  H    0.148925   0.008979
    19  H    0.087237   0.018894
    20  H    0.201163   0.017179
    21  H    0.083478   0.043931
    22  H    0.214902   0.005656
    23  H    0.118176  -0.014096
    24  H    0.097766  -0.020451
    25  H    0.137440   0.005709
    26  H    0.112154   0.027913
    27  H    0.255500   0.000271
    28  H    0.123082   0.004866
 Sum of Mulliken charges =  -1.00000   1.00000

 Dipole moment (field-independent basis, Debye):
    X=             -0.1819    Y=             -0.3845    Z=              1.4383  Tot=              1.4999
 Quadrupole moment (field-independent basis, Debye-Ang):
   XX=           -125.0277   YY=           -129.1063   ZZ=           -121.4145
   XY=             -4.8288   XZ=             -7.1332   YZ=              6.6600

 Summary of Natural Population Analysis:

                                       Natural Population
                Natural  -----------------------------------------------
    Atom  No    Charge         Core      Valence    Rydberg      Total
 -----------------------------------------------------------------------
      C    1   -0.17756      0.99965     2.17043    0.00749     3.17756
      N    2   -0.36364      0.99975     2.85103    0.01286     3.86364
      C    3   -0.17708      0.99964     2.16996    0.00748     3.17708
      S    4    1.12341      4.99914     1.77778    0.09967     6.87659
      O    5   -0.47077      0.99990     3.46403    0.00684     4.47077
      O    6   -0.47805      0.99991     3.47235    0.00580     4.47805
      C    7   -0.07358      0.99927     2.05550    0.01881     3.07358
      C    8   -0.10602      0.99952     2.09763    0.00887     3.10602
      C    9   -0.06904      0.99957     2.06035    0.00912     3.06904
      C   10   -0.04121      0.99957     2.03239    0.00925     3.04121
      C   11   -0.13070      0.99951     2.12163    0.00956     3.13070
      C   12   -0.05283      0.99928     2.03610    0.01744     3.05283
      S   13    0.59356      4.99941     2.34509    0.06194     7.40644
      O   14   -0.48932      0.99993     3.48083    0.00856     4.48932
      C   15   -0.37460      0.99961     2.36717    0.00781     3.37460
      H   16    0.09241      0.00000     0.40644    0.00115     0.40759
      H   17    0.08726      0.00000     0.41096    0.00178     0.41274
      H   18    0.10631      0.00000     0.39251    0.00117     0.39369
      H   19    0.07681      0.00000     0.42114    0.00205     0.42319
      H   20    0.12481      0.00000     0.37348    0.00171     0.37519
      H   21    0.09309      0.00000     0.40563    0.00128     0.40691
      H   22    0.11106      0.00000     0.38791    0.00103     0.38894
      H   23    0.08909      0.00000     0.40989    0.00102     0.41091
      H   24    0.08630      0.00000     0.41224    0.00146     0.41370
      H   25    0.09583      0.00000     0.40229    0.00187     0.40417
      H   26    0.09611      0.00000     0.40179    0.00210     0.40389
      H   27    0.12602      0.00000     0.37290    0.00109     0.37398
      H   28    0.10235      0.00000     0.39611    0.00154     0.39765
 =======================================================================
   * Total *    0.00000     22.99364    41.69558    0.31078    65.00000

 Normal termination of Gaussian 16 at Thu Dec 10 17:38:05 2020.
