 Gaussian 16, Revision A.03,

 -----------------------------------------------------------
 # opt freq B3LYP/6-31G(d) empiricaldispersion=gd3bj scf=xqc
 -----------------------------------------------------------

 -------------------------------
 CID_116823105_JID_1862_neutraal
 -------------------------------
 Symbolic Z-matrix:
 Charge =  0 Multiplicity = 1

 SCF Done:  E(RB3LYP) =  -491.739001391     A.U. after   14 cycles
 SCF Done:  E(RB3LYP) =  -491.749000130     A.U. after   13 cycles
 SCF Done:  E(RB3LYP) =  -491.751252148     A.U. after   13 cycles
 SCF Done:  E(RB3LYP) =  -491.752512415     A.U. after   12 cycles
 SCF Done:  E(RB3LYP) =  -491.752773003     A.U. after   12 cycles
 SCF Done:  E(RB3LYP) =  -491.752917134     A.U. after   11 cycles
 SCF Done:  E(RB3LYP) =  -491.752964074     A.U. after   11 cycles
 SCF Done:  E(RB3LYP) =  -491.752974971     A.U. after   10 cycles
 SCF Done:  E(RB3LYP) =  -491.752981272     A.U. after   10 cycles
 SCF Done:  E(RB3LYP) =  -491.752982543     A.U. after    9 cycles
 SCF Done:  E(RB3LYP) =  -491.752983001     A.U. after    8 cycles
 SCF Done:  E(RB3LYP) =  -491.752983087     A.U. after    8 cycles
 Optimization completed.
    -- Stationary point found.

 1\1\GINC-NODE307\FOpt\RB3LYP\6-31G(d)\C7H10N4\VSC10255\08-Dec-2020\0\\
 # opt freq B3LYP/6-31G(d) empiricaldispersion=gd3bj scf=xqc\\CID_11682
 3105_JID_1862_neutraal\\0,1\C,0.2994850358,0.9759059193,-0.0855378663\
 C,1.0096818696,-0.1630106577,0.689322169\C,0.0344587043,-1.1748744983,
 -0.0019002148\C,-0.8940660405,0.0183782285,-0.3373195359\C,-0.50661882
 49,-2.3121367128,0.8114490967\C,0.3404457405,-3.3733113903,1.259556268
 3\N,-0.1601994662,-4.3749850743,1.9807529674\C,-1.4703017585,-4.276450
 6317,2.2459828895\N,-2.3051039014,-3.3132948177,1.8720221246\N,-1.7892

 Normal termination of Gaussian 16 at Tue Dec  8 21:21:35 2020.

 --------------------------------------------------------------------
 #N Geom=AllCheck Guess=TCheck SCRF=Check GenChk RB3LYP/6-31G(d) Freq
 --------------------------------------------------------------------

 Structure from the checkpoint file:  "JID_1862.chk"
 -------------------------------
 CID_116823105_JID_1862_neutraal
 -------------------------------
 Charge =  0 Multiplicity = 1

 SCF Done:  E(RB3LYP) =  -491.752983087     A.U. after    1 cycles

  Exact polarizability: 120.100   6.856 101.808   5.509   2.214  58.511
 Approx polarizability: 168.156  16.429 184.062  12.366   6.812  89.907

                      1                      2                      3
                      A                      A                      A
 Frequencies --     53.4166                87.6152               133.6765
 Red. masses --      3.0273                 3.4120                 2.5679
 Frc consts  --      0.0051                 0.0154                 0.0270
 IR Inten    --      1.0673                 0.9721                 0.6485

                      4                      5                      6
                      A                      A                      A
 Frequencies --    160.3580               216.6413               235.0000
 Red. masses --      3.8329                 1.5561                 2.0830
 Frc consts  --      0.0581                 0.0430                 0.0678
 IR Inten    --      2.5512               194.5133                37.6256

                      7                      8                      9
                      A                      A                      A
 Frequencies --    312.4970               341.9437               430.1349
 Red. masses --      3.7171                 4.2861                 3.4618
 Frc consts  --      0.2139                 0.2953                 0.3774
 IR Inten    --      3.0733                 7.6318                 2.1986

                     10                     11                     12
                      A                      A                      A
 Frequencies --    476.9242               525.5259               559.5337
 Red. masses --      2.1058                 2.0200                 2.3153
 Frc consts  --      0.2822                 0.3287                 0.4271
 IR Inten    --     15.9372                 9.8824                16.5237

                     13                     14                     15
                      A                      A                      A
 Frequencies --    598.8388               619.4238               681.4998
 Red. masses --      5.7645                 3.3727                 3.2695
 Frc consts  --      1.2180                 0.7624                 0.8947
 IR Inten    --      4.3456                 2.6712                 0.0494

                     16                     17                     18
                      A                      A                      A
 Frequencies --    752.1787               793.0034               819.7866
 Red. masses --      2.2940                 1.3102                 4.7549
 Frc consts  --      0.7647                 0.4855                 1.8827
 IR Inten    --      3.8776                 3.4146                 6.6300

                     19                     20                     21
                      A                      A                      A
 Frequencies --    869.8685               917.5329               946.2755
 Red. masses --      2.7523                 2.4172                 2.2425
 Frc consts  --      1.2270                 1.1989                 1.1831
 IR Inten    --      5.8002                 0.3455                 3.1222

                     22                     23                     24
                      A                      A                      A
 Frequencies --    957.1173               970.6128               973.3170
 Red. masses --      5.0013                 1.5884                 1.4098
 Frc consts  --      2.6994                 0.8817                 0.7869
 IR Inten    --      7.3603                 1.9642                 0.8066

                     25                     26                     27
                      A                      A                      A
 Frequencies --   1015.8164              1050.1147              1052.3731
 Red. masses --      2.8143                 2.1641                 1.8025
 Frc consts  --      1.7110                 1.4061                 1.1761
 IR Inten    --      9.5012                 2.8994                 9.6472

                     28                     29                     30
                      A                      A                      A
 Frequencies --   1105.5629              1136.2407              1212.5595
 Red. masses --      4.9816                 2.2111                 1.5240
 Frc consts  --      3.5875                 1.6819                 1.3202
 IR Inten    --     12.0225                 1.9582                11.9353

                     31                     32                     33
                      A                      A                      A
 Frequencies --   1227.4549              1247.0073              1254.6727
 Red. masses --      1.7073                 2.3727                 1.7876
 Frc consts  --      1.5156                 2.1739                 1.6580
 IR Inten    --     14.1963                 5.6280                36.5916

                     34                     35                     36
                      A                      A                      A
 Frequencies --   1270.5644              1273.9484              1296.1969
 Red. masses --      1.2956                 1.2345                 1.5221
 Frc consts  --      1.2323                 1.1804                 1.5067
 IR Inten    --      1.3279                 2.5779                 3.4168

                     37                     38                     39
                      A                      A                      A
 Frequencies --   1299.7019              1356.3611              1398.4046
 Red. masses --      1.4090                 1.9240                 2.5125
 Frc consts  --      1.4023                 2.0855                 2.8948
 IR Inten    --      2.9503                18.5216                 7.8336

                     40                     41                     42
                      A                      A                      A
 Frequencies --   1424.5882              1490.4380              1508.8076
 Red. masses --      2.5924                 3.3000                 1.0891
 Frc consts  --      3.0997                 4.3191                 1.4608
 IR Inten    --     33.7088                60.8499                 1.1529

                     43                     44                     45
                      A                      A                      A
 Frequencies --   1517.9660              1542.2647              1584.8749
 Red. masses --      1.0841                 1.1367                 5.0925
 Frc consts  --      1.4718                 1.5929                 7.5366
 IR Inten    --      2.3488                 0.2887                88.6508

                     46                     47                     48
                      A                      A                      A
 Frequencies --   1603.2209              1670.6949              3013.3919
 Red. masses --      5.6573                 1.4768                 1.0836
 Frc consts  --      8.5673                 2.4287                 5.7972
 IR Inten    --     23.3029               273.7422                22.2452

                     49                     50                     51
                      A                      A                      A
 Frequencies --   3067.3172              3074.5525              3097.3302
 Red. masses --      1.0584                 1.0614                 1.0612
 Frc consts  --      5.8669                 5.9113                 5.9982
 IR Inten    --     38.3222                46.8978                25.9469

                     52                     53                     54
                      A                      A                      A
 Frequencies --   3114.7905              3129.7008              3155.3082
 Red. masses --      1.1073                 1.1082                 1.1064
 Frc consts  --      6.3295                 6.3952                 6.4901
 IR Inten    --     11.9697                35.6958                25.6234

                     55                     56                     57
                      A                      A                      A
 Frequencies --   3199.0208              3600.3922              3728.2798
 Red. masses --      1.0914                 1.0466                 1.1026
 Frc consts  --      6.5804                 7.9932                 9.0298
 IR Inten    --     29.3706                56.2691                40.6701

 - Thermochemistry -
 -------------------
 Temperature   298.150 Kelvin.  Pressure   1.00000 Atm.
 Atom     1 has atomic number  6 and mass  12.00000

 Molecular mass:   150.09055 amu.
 Principal axes and moments of inertia in atomic units:
                           1         2         3
     Eigenvalues --   814.202762148.396542798.64367
           X            0.99997  -0.00745  -0.00101
           Y            0.00745   0.99997   0.00242
           Z            0.00099  -0.00243   1.00000
 This molecule is an asymmetric top.
 Rotational symmetry number  1.
 Warning -- assumption of classical behavior for rotation
           may cause significant error
 Rotational temperatures (Kelvin)      0.10638     0.04032     0.03095
 Rotational constants (GHZ):           2.21657     0.84004     0.64486
 Zero-point vibrational energy     455493.9 (Joules/Mol)
                                  108.86567 (Kcal/Mol)
 Warning -- explicit consideration of  14 degrees of freedom as
           vibrations may cause significant error
 Vibrational temperatures:     76.85   126.06   192.33   230.72   311.70
          (Kelvin)            338.11   449.61   491.98   618.87   686.19
                              756.11   805.04   861.60   891.21   980.53
                             1082.22  1140.96  1179.49  1251.55  1320.13
                             1361.48  1377.08  1396.50  1400.39  1461.53
                             1510.88  1514.13  1590.66  1634.80  1744.60
                             1766.03  1794.17  1805.19  1828.06  1832.93
                             1864.94  1869.98  1951.50  2011.99  2049.66
                             2144.41  2170.84  2184.01  2218.97  2280.28
                             2306.68  2403.76  4335.60  4413.19  4423.60
                             4456.37  4481.49  4502.94  4539.78  4602.68
                             5180.16  5364.16

 Zero-point correction=                           0.173488 (Hartree/Particle)
 Thermal correction to Energy=                    0.183192
 Thermal correction to Enthalpy=                  0.184136
 Thermal correction to Gibbs Free Energy=         0.137988
 Sum of electronic and zero-point Energies=           -491.579495
 Sum of electronic and thermal Energies=              -491.569791
 Sum of electronic and thermal Enthalpies=            -491.568847
 Sum of electronic and thermal Free Energies=         -491.614996

                     E (Thermal)             CV                S
                      KCal/Mol        Cal/Mol-Kelvin    Cal/Mol-Kelvin
 Total                  114.955             36.826             97.128
 Electronic               0.000              0.000              0.000
 Translational            0.889              2.981             40.928
 Rotational               0.889              2.981             29.972
 Vibrational            113.177             30.865             26.228
 Vibration     1          0.596              1.976              4.687
 Vibration     2          0.601              1.958              3.713
 Vibration     3          0.613              1.920              2.892
 Vibration     4          0.622              1.891              2.546
 Vibration     5          0.645              1.816              1.987
 Vibration     6          0.655              1.787              1.840
 Vibration     7          0.701              1.650              1.349
 Vibration     8          0.721              1.592              1.203
 Vibration     9          0.791              1.405              0.858
 Vibration    10          0.833              1.301              0.718
 Vibration    11          0.880              1.193              0.597
 Vibration    12          0.915              1.119              0.525
 Vibration    13          0.957              1.034              0.452
 Vibration    14          0.979              0.991              0.417

                           ! Non-Optimized Parameters !

 1\1\GINC-NODE307\Freq\RB3LYP\6-31G(d)\C7H10N4\VSC10255\08-Dec-2020\0\\
 #N Geom=AllCheck Guess=TCheck SCRF=Check GenChk RB3LYP/6-31G(d) Freq\\
 CID_116823105_JID_1862_neutraal\\0,1\C,0.2994850358,0.9759059193,-0.08
 55378663\C,1.0096818696,-0.1630106577,0.689322169\C,0.0344587043,-1.17
 48744983,-0.0019002148\C,-0.8940660405,0.0183782285,-0.3373195359\C,-0
 .5066188249,-2.3121367128,0.8114490967\C,0.3404457405,-3.3733113903,1.
 2595562683\N,-0.1601994662,-4.3749850743,1.9807529674\C,-1.4703017585,
 -4.2764506317,2.2459828895\N,-2.3051039014,-3.3132948177,1.8720221246\

 Normal termination of Gaussian 16 at Tue Dec  8 21:26:08 2020.

 ----------------------------------------------------------------------
 # B3LYP/6-311++G(d,p) empiricaldispersion=gd3bj scf=xqc pop=npa geom=c
 heck
 ----------------------------------------------------------------------

 ---------------------------------------
 CID_116823105_JID_1862_Energie_neutraal
 ---------------------------------------
 Structure from the checkpoint file:  "JID_1862.chk"
 Charge =  0 Multiplicity = 1

 SCF Done:  E(RB3LYP) =  -491.888571671     A.U. after   15 cycles
 Normal termination of Gaussian 16 at Tue Dec  8 21:28:29 2020.

 ----------------------------------------------------------------------
 # B3LYP/6-311++G(d,p) empiricaldispersion=gd3bj scf=xqc pop=npa geom=c
 heck
 ----------------------------------------------------------------------

 -------------------------------------
 CID_116823105_JID_1862_Energie_kation
 -------------------------------------
 Structure from the checkpoint file:  "JID_1862.chk"
 Charge =  1 Multiplicity = 2

 SCF Done:  E(UB3LYP) =  -491.572827136     A.U. after   25 cycles
 Normal termination of Gaussian 16 at Tue Dec  8 21:34:28 2020.
 Gaussian 16:  ES64L-G16RevA.03 25-Dec-2016

 ------------------------------------
 CID_116823105_JID_1862_Energie_anion
 ------------------------------------
 Structure from the checkpoint file:  "JID_1862.chk"
 Charge = -1 Multiplicity = 2

                         Standard orientation:
 ---------------------------------------------------------------------
 Center     Atomic      Atomic             Coordinates (Angstroms)
 Number     Number       Type             X           Y           Z
 ---------------------------------------------------------------------
      1          6           0        3.246742   -0.174501   -0.306042
      2          6           0        2.076454    0.774461   -0.669104
      3          6           0        1.238168    0.095090    0.465994
      4          6           0        2.235064   -1.089612    0.431452
      5          6           0       -0.216253   -0.169824    0.216698
      6          6           0       -1.157754    0.900713    0.107447
      7          7           0       -2.445890    0.643932   -0.113665
      8          6           0       -2.746466   -0.656340   -0.237645
      9          7           0       -1.919203   -1.692736   -0.160637
     10          7           0       -0.620986   -1.420332    0.077979
     11          7           0       -0.771982    2.202552    0.193815
     12          1           0        3.951904    0.299393    0.384809
     13          1           0        3.811017   -0.610905   -1.134875
     14          1           0        2.252355    1.853366   -0.603781
     15          1           0        1.652878    0.548196   -1.652398
     16          1           0        1.354063    0.664055    1.400595
     17          1           0        1.851187   -1.890511   -0.203616
     18          1           0        2.532063   -1.516621    1.392945
     19          1           0       -3.790263   -0.899501   -0.422210
     20          1           0       -1.504382    2.895915    0.255422
     21          1           0        0.139879    2.442771    0.547864
 ---------------------------------------------------------------------

 SCF Done:  E(UB3LYP) =  -491.887522108     A.U. after   32 cycles

 The electronic state is 2-A.
 Alpha  occ. eigenvalues --  -14.20491 -14.18554 -14.18259 -14.16652 -10.11815
 Alpha  occ. eigenvalues --  -10.09124 -10.06675 -10.06044 -10.05760 -10.05429
 Alpha  occ. eigenvalues --  -10.04944  -0.88307  -0.81981  -0.75947  -0.73285
 Alpha  occ. eigenvalues --   -0.67649  -0.57386  -0.54733  -0.52798  -0.50494
 Alpha  occ. eigenvalues --   -0.43765  -0.43060  -0.40683  -0.37046  -0.36717
 Alpha  occ. eigenvalues --   -0.35362  -0.31423  -0.30879  -0.28431  -0.27344
 Alpha  occ. eigenvalues --   -0.24525  -0.23224  -0.22030  -0.20797  -0.19843
 Alpha  occ. eigenvalues --   -0.17336  -0.16993  -0.16296  -0.10979  -0.08926
 Alpha  occ. eigenvalues --    0.04795
 Alpha virt. eigenvalues --    0.07394   0.08484   0.09476   0.10011   0.10593
 Alpha virt. eigenvalues --    0.11258   0.11772   0.12239   0.12947   0.13941
 Alpha virt. eigenvalues --    0.15315   0.16425   0.16513   0.17275   0.17614

  Beta  occ. eigenvalues --  -14.20438 -14.18543 -14.17763 -14.16362 -10.11746
  Beta  occ. eigenvalues --  -10.09092 -10.06616 -10.06044 -10.05748 -10.05389
  Beta  occ. eigenvalues --  -10.04943  -0.87882  -0.81707  -0.75553  -0.73200
  Beta  occ. eigenvalues --   -0.67365  -0.57120  -0.54673  -0.52480  -0.50340
  Beta  occ. eigenvalues --   -0.43664  -0.42959  -0.40498  -0.36952  -0.36657
  Beta  occ. eigenvalues --   -0.35179  -0.30987  -0.30433  -0.28252  -0.27315
  Beta  occ. eigenvalues --   -0.24431  -0.22417  -0.21908  -0.20622  -0.19801
  Beta  occ. eigenvalues --   -0.16789  -0.16225  -0.15642  -0.10331  -0.08532
  Beta virt. eigenvalues --    0.07959   0.08969   0.09708   0.10100   0.10403
  Beta virt. eigenvalues --    0.10908   0.11329   0.12173   0.12645   0.13391
  Beta virt. eigenvalues --    0.13935   0.15695   0.16381   0.16545   0.17212

 Mulliken charges and spin densities:
               1          2
     1  C   -0.110754  -0.037734
     2  C    0.252154  -0.795614
     3  C    0.131843   0.271716
     4  C    0.005656  -0.675102
     5  C    0.615724  -0.756874
     6  C   -0.799867   0.551729
     7  N   -0.186419   0.096823
     8  C    0.012387  -0.013831
     9  N   -0.103911   0.001968
    10  N   -0.083176   0.228268
    11  N   -0.327316  -0.024222
    12  H   -0.129680   0.254122
    13  H    0.131124  -0.019598
    14  H   -0.050766   0.167584
    15  H    0.080433   0.080187
    16  H   -0.465060   0.670390
    17  H    0.159679   0.013269
    18  H    0.161204  -0.035630
    19  H    0.158605   0.005313
    20  H   -0.164475   0.443225
    21  H   -0.287385   0.574012
 Sum of Mulliken charges =  -1.00000   1.00000

 Dipole moment (field-independent basis, Debye):
    X=              1.4248    Y=             -2.1306    Z=             -1.7712  Tot=              3.1155
 Quadrupole moment (field-independent basis, Debye-Ang):
   XX=            -98.2829   YY=           -107.4840   ZZ=            -81.2754
   XY=             -8.1742   XZ=             -3.8030   YZ=             -5.1435

 Summary of Natural Population Analysis:

                                       Natural Population
                Natural  -----------------------------------------------
    Atom  No    Charge         Core      Valence    Rydberg      Total
 -----------------------------------------------------------------------
      C    1   -0.19260      0.99965     2.18505    0.00790     3.19260
      C    2   -0.18262      0.99963     2.17430    0.00869     3.18262
      C    3   -0.12745      0.99959     2.11404    0.01382     3.12745
      C    4   -0.18403      0.99964     2.17505    0.00934     3.18403
      C    5    0.06007      0.99949     1.92363    0.01681     2.93993
      C    6    0.20829      0.99952     1.77572    0.01646     2.79171
      N    7   -0.23691      0.99967     2.72594    0.01130     3.73691
      C    8    0.12354      0.99968     1.85858    0.01819     2.87646
      N    9   -0.17321      0.99973     2.65838    0.01510     3.67321
      N   10   -0.05660      0.99967     2.54378    0.01316     3.55660
      N   11   -0.38875      0.99970     2.87906    0.00999     3.88875
      H   12    0.09425      0.00000     0.40451    0.00125     0.40575
      H   13    0.08967      0.00000     0.40955    0.00077     0.41033
      H   14    0.09790      0.00000     0.40054    0.00156     0.40210
      H   15    0.09605      0.00000     0.40288    0.00108     0.40395
      H   16    0.10393      0.00000     0.39314    0.00293     0.39607
      H   17    0.10795      0.00000     0.39066    0.00139     0.39205
      H   18    0.09360      0.00000     0.40561    0.00079     0.40640
      H   19    0.07569      0.00000     0.42285    0.00147     0.42431
      H   20    0.19280      0.00000     0.30381    0.00340     0.30720
      H   21    0.19842      0.00000     0.29434    0.00724     0.30158
 =======================================================================
   * Total *    0.00000     10.99597    28.84139    0.16264    40.00000

 Normal termination of Gaussian 16 at Tue Dec  8 21:43:00 2020.
