 Gaussian 16, Revision A.03,

 -----------------------------------------------------------
 # opt freq B3LYP/6-31G(d) empiricaldispersion=gd3bj scf=xqc
 -----------------------------------------------------------

 ------------------------------
 CID_68219020_JID_2468_neutraal
 ------------------------------
 Symbolic Z-matrix:
 Charge =  0 Multiplicity = 1

 SCF Done:  E(RB3LYP) =  -522.556325527     A.U. after   14 cycles
 SCF Done:  E(RB3LYP) =  -522.559501194     A.U. after   12 cycles
 SCF Done:  E(RB3LYP) =  -522.558711990     A.U. after   12 cycles
 SCF Done:  E(RB3LYP) =  -522.559799773     A.U. after   11 cycles
 SCF Done:  E(RB3LYP) =  -522.560201473     A.U. after   11 cycles
 SCF Done:  E(RB3LYP) =  -522.560255666     A.U. after    9 cycles
 SCF Done:  E(RB3LYP) =  -522.560274926     A.U. after    9 cycles
 SCF Done:  E(RB3LYP) =  -522.560281577     A.U. after    9 cycles
 SCF Done:  E(RB3LYP) =  -522.560283311     A.U. after    8 cycles
 SCF Done:  E(RB3LYP) =  -522.560283867     A.U. after    8 cycles
 Optimization completed.
    -- Stationary point found.
 Normal termination of Gaussian 16 at Wed Dec  9 17:25:51 2020.

 --------------------------------------------------------------------
 #N Geom=AllCheck Guess=TCheck SCRF=Check GenChk RB3LYP/6-31G(d) Freq
 --------------------------------------------------------------------

 Structure from the checkpoint file:  "JID_2468.chk"
 ------------------------------
 CID_68219020_JID_2468_neutraal
 ------------------------------
 Charge =  0 Multiplicity = 1

 SCF Done:  E(RB3LYP) =  -522.560283867     A.U. after    1 cycles

  Exact polarizability: 128.929  -0.968 113.652   0.170  -0.761  91.787
 Approx polarizability: 162.536  -7.550 165.438  -0.942   1.068 139.536

                      1                      2                      3
                      A                      A                      A
 Frequencies --     43.4024                85.3202               130.0168
 Red. masses --      3.0258                 4.0235                 1.8142
 Frc consts  --      0.0034                 0.0173                 0.0181
 IR Inten    --      0.3067                 3.0726                 0.1518

                      4                      5                      6
                      A                      A                      A
 Frequencies --    154.4793               182.2721               219.7851
 Red. masses --      2.2728                 2.4356                 1.8912
 Frc consts  --      0.0320                 0.0477                 0.0538
 IR Inten    --      0.4629                 0.2858                 1.8158

                      7                      8                      9
                      A                      A                      A
 Frequencies --    230.9897               246.8153               264.2128
 Red. masses --      1.2456                 1.4349                 1.1157
 Frc consts  --      0.0392                 0.0515                 0.0459
 IR Inten    --      0.4542                 1.1518                 0.3951

                     10                     11                     12
                      A                      A                      A
 Frequencies --    299.2744               323.9791               330.4870
 Red. masses --      2.9881                 2.3583                 2.7532
 Frc consts  --      0.1577                 0.1458                 0.1772
 IR Inten    --      0.2090                 4.0868                 0.7313

                     13                     14                     15
                      A                      A                      A
 Frequencies --    361.5030               385.4287               417.2777
 Red. masses --      2.2475                 2.5033                 2.8903
 Frc consts  --      0.1731                 0.2191                 0.2965
 IR Inten    --      6.2331                 9.2600                 0.8009

                     16                     17                     18
                      A                      A                      A
 Frequencies --    449.3152               482.2025               495.6045
 Red. masses --      2.6426                 2.7264                 2.7688
 Frc consts  --      0.3143                 0.3735                 0.4007
 IR Inten    --      3.2288                 3.1807                 1.8144

                     19                     20                     21
                      A                      A                      A
 Frequencies --    544.4089               589.5902               646.3304
 Red. masses --      2.2478                 2.4991                 3.0557
 Frc consts  --      0.3925                 0.5118                 0.7521
 IR Inten    --      2.3437                 6.6265                 6.4589

                     22                     23                     24
                      A                      A                      A
 Frequencies --    699.0153               783.9922               829.1661
 Red. masses --      3.6929                 2.6706                 1.5603
 Frc consts  --      1.0631                 0.9671                 0.6320
 IR Inten    --      0.4805                 1.0864                 2.5466

                     25                     26                     27
                      A                      A                      A
 Frequencies --    845.2402               884.1753               917.4144
 Red. masses --      1.4223                 2.2503                 1.7640
 Frc consts  --      0.5987                 1.0365                 0.8748
 IR Inten    --      7.9069                 0.8920                 0.4378

                     28                     29                     30
                      A                      A                      A
 Frequencies --    927.8017               939.3076               957.6360
 Red. masses --      2.1493                 2.1262                 1.4943
 Frc consts  --      1.0901                 1.1052                 0.8074
 IR Inten    --      5.8368                 1.3283                 1.5415

                     31                     32                     33
                      A                      A                      A
 Frequencies --   1012.6063              1017.5987              1037.1816
 Red. masses --      1.6971                 2.1321                 1.4219
 Frc consts  --      1.0252                 1.3008                 0.9012
 IR Inten    --      3.2689                24.0699                 0.3752

                     34                     35                     36
                      A                      A                      A
 Frequencies --   1040.6642              1087.8045              1092.8520
 Red. masses --      1.6968                 1.7213                 1.5936
 Frc consts  --      1.0827                 1.2001                 1.1214
 IR Inten    --      4.0834                 6.6335                 1.2738

                     37                     38                     39
                      A                      A                      A
 Frequencies --   1105.7846              1109.8826              1163.1729
 Red. masses --      1.8392                 1.7972                 3.2249
 Frc consts  --      1.3250                 1.3044                 2.5707
 IR Inten    --      3.8228                 2.0249                21.5080

                     40                     41                     42
                      A                      A                      A
 Frequencies --   1189.3923              1192.5278              1248.1977
 Red. masses --      1.7464                 1.8612                 2.0383
 Frc consts  --      1.4556                 1.5595                 1.8711
 IR Inten    --     52.8423                49.1116                 3.3060

                     43                     44                     45
                      A                      A                      A
 Frequencies --   1264.8674              1276.9471              1295.6664
 Red. masses --      2.3905                 2.0767                 1.6822
 Frc consts  --      2.2533                 1.9951                 1.6639
 IR Inten    --     24.6588                14.1951               141.9698

                     46                     47                     48
                      A                      A                      A
 Frequencies --   1313.1852              1333.8465              1354.3428
 Red. masses --      1.1765                 1.3542                 1.4332
 Frc consts  --      1.1954                 1.4196                 1.5489
 IR Inten    --      2.0081                 9.7031                10.6327

                     49                     50                     51
                      A                      A                      A
 Frequencies --   1387.1349              1408.1474              1413.2593
 Red. masses --      1.4104                 1.4815                 1.7384
 Frc consts  --      1.5990                 1.7308                 2.0458
 IR Inten    --      0.1278                15.5253                24.8267

                     52                     53                     54
                      A                      A                      A
 Frequencies --   1415.5286              1424.3793              1435.3277
 Red. masses --      1.5232                 1.2767                 1.5099
 Frc consts  --      1.7982                 1.5261                 1.8328
 IR Inten    --     29.8040                14.7953                69.3594

                     55                     56                     57
                      A                      A                      A
 Frequencies --   1440.8664              1445.0720              1502.6427
 Red. masses --      1.2649                 1.2309                 1.0793
 Frc consts  --      1.5473                 1.5144                 1.4359
 IR Inten    --      3.0296                15.3352                 1.0678

                     58                     59                     60
                      A                      A                      A
 Frequencies --   1503.3605              1510.9739              1514.9330
 Red. masses --      1.0866                 1.0675                 1.0785
 Frc consts  --      1.4469                 1.4359                 1.4583
 IR Inten    --      7.0121                 0.9627                 3.8483

                     61                     62                     63
                      A                      A                      A
 Frequencies --   1521.9149              1523.8407              1529.8646
 Red. masses --      1.0466                 1.0770                 1.0572
 Frc consts  --      1.4283                 1.4734                 1.4579
 IR Inten    --      8.8099                 5.4652                 4.2263

                     64                     65                     66
                      A                      A                      A
 Frequencies --   1530.0279              1532.9940              1541.0836
 Red. masses --      1.0758                 1.0563                 1.0785
 Frc consts  --      1.4838                 1.4626                 1.5091
 IR Inten    --      8.2414                 3.3963                 1.7610

                     67                     68                     69
                      A                      A                      A
 Frequencies --   1549.0560              1755.4446              2986.8946
 Red. masses --      1.0567                10.1138                 1.0750
 Frc consts  --      1.4939                18.3627                 5.6509
 IR Inten    --      6.7416               206.5351                35.1562

                     70                     71                     72
                      A                      A                      A
 Frequencies --   3036.0597              3036.6837              3040.1199
 Red. masses --      1.0655                 1.0623                 1.0633
 Frc consts  --      5.7866                 5.7719                 5.7903
 IR Inten    --     10.5803                24.5276                13.9383

                     73                     74                     75
                      A                      A                      A
 Frequencies --   3043.0899              3054.7556              3059.1200
 Red. masses --      1.0602                 1.0405                 1.0423
 Frc consts  --      5.7845                 5.7206                 5.7470
 IR Inten    --     27.3711                36.6691                23.2004

                     76                     77                     78
                      A                      A                      A
 Frequencies --   3065.8424              3076.8938              3082.3391
 Red. masses --      1.0387                 1.0983                 1.0958
 Frc consts  --      5.7524                 6.1263                 6.1341
 IR Inten    --     32.3739                13.8135                51.0597

                     79                     80                     81
                      A                      A                      A
 Frequencies --   3086.1188              3092.2814              3115.2863
 Red. masses --      1.1003                 1.1045                 1.1012
 Frc consts  --      6.1742                 6.2224                 6.2968
 IR Inten    --     31.1767                53.0526                24.8531

                     82                     83                     84
                      A                      A                      A
 Frequencies --   3117.7594              3132.0050              3150.9578
 Red. masses --      1.1009                 1.1018                 1.1009
 Frc consts  --      6.3049                 6.3680                 6.4402
 IR Inten    --     56.2778                27.7892                11.0752

                     85                     86                     87
                      A                      A                      A
 Frequencies --   3154.2516              3170.1528              3209.8827
 Red. masses --      1.1017                 1.0866                 1.0952
 Frc consts  --      6.4583                 6.4339                 6.6487
 IR Inten    --     19.6726                19.0972                 4.7136

 - Thermochemistry -
 -------------------
 Temperature   298.150 Kelvin.  Pressure   1.00000 Atm.
 Atom     1 has atomic number  6 and mass  12.00000

 Molecular mass:   169.14666 amu.
 Principal axes and moments of inertia in atomic units:
                           1         2         3
     Eigenvalues --  1226.629592604.864693335.40566
           X            0.99975   0.02192   0.00329
           Y           -0.02191   0.99974  -0.00563
           Z           -0.00342   0.00556   0.99998
 This molecule is an asymmetric top.
 Rotational symmetry number  1.
 Warning -- assumption of classical behavior for rotation
           may cause significant error
 Rotational temperatures (Kelvin)      0.07061     0.03325     0.02597
 Rotational constants (GHZ):           1.47130     0.69283     0.54109
 Zero-point vibrational energy     744073.1 (Joules/Mol)
                                  177.83774 (Kcal/Mol)
 Warning -- explicit consideration of  20 degrees of freedom as
           vibrations may cause significant error
 Vibrational temperatures:     62.45   122.76   187.07   222.26   262.25
          (Kelvin)            316.22   332.34   355.11   380.14   430.59
                              466.13   475.50   520.12   554.55   600.37
                              646.46   693.78   713.06   783.28   848.29
                              929.93  1005.73  1127.99  1192.99  1216.11
                             1272.13  1319.95  1334.90  1351.45  1377.82
                             1456.91  1464.10  1492.27  1497.28  1565.11
                             1572.37  1590.98  1596.87  1673.55  1711.27
                             1715.78  1795.88  1819.86  1837.24  1864.17
                             1889.38  1919.11  1948.60  1995.78  2026.01
                             2033.36  2036.63  2049.36  2065.12  2073.09
                             2079.14  2161.97  2163.00  2173.95  2179.65
                             2189.70  2192.47  2201.13  2201.37  2205.64
                             2217.28  2228.75  2525.69  4297.48  4368.21
                             4369.11  4374.05  4378.33  4395.11  4401.39
                             4411.06  4426.96  4434.80  4440.24  4449.10
                             4482.20  4485.76  4506.26  4533.53  4538.26
                             4561.14  4618.31

 Zero-point correction=                           0.283402 (Hartree/Particle)
 Thermal correction to Energy=                    0.296189
 Thermal correction to Enthalpy=                  0.297134
 Thermal correction to Gibbs Free Energy=         0.245230
 Sum of electronic and zero-point Energies=           -522.276881
 Sum of electronic and thermal Energies=              -522.264094
 Sum of electronic and thermal Enthalpies=            -522.263150
 Sum of electronic and thermal Free Energies=         -522.315054

                     E (Thermal)             CV                S
                      KCal/Mol        Cal/Mol-Kelvin    Cal/Mol-Kelvin
 Total                  185.862             49.980            109.241
 Electronic               0.000              0.000              0.000
 Translational            0.889              2.981             41.285
 Rotational               0.889              2.981             30.745
 Vibrational            184.084             44.019             37.212
 Vibration     1          0.595              1.980              5.097
 Vibration     2          0.601              1.959              3.765
 Vibration     3          0.612              1.923              2.946
 Vibration     4          0.620              1.898              2.616
 Vibration     5          0.630              1.864              2.305
 Vibration     6          0.647              1.811              1.961
 Vibration     7          0.653              1.794              1.871
 Vibration     8          0.661              1.768              1.753
 Vibration     9          0.671              1.739              1.634
 Vibration    10          0.692              1.675              1.421
 Vibration    11          0.709              1.627              1.290
 Vibration    12          0.713              1.615              1.258
 Vibration    13          0.736              1.552              1.116
 Vibration    14          0.754              1.501              1.018
 Vibration    15          0.780              1.433              0.901
 Vibration    16          0.808              1.362              0.798
 Vibration    17          0.838              1.290              0.704
 Vibration    18          0.851              1.260              0.669
 Vibration    19          0.900              1.152              0.556
 Vibration    20          0.947              1.054              0.468

                           ! Non-Optimized Parameters !
 Normal termination of Gaussian 16 at Wed Dec  9 17:34:51 2020.

 ----------------------------------------------------------------------
 # B3LYP/6-311++G(d,p) empiricaldispersion=gd3bj scf=xqc pop=npa geom=c
 heck
 ----------------------------------------------------------------------

 --------------------------------------
 CID_68219020_JID_2468_Energie_neutraal
 --------------------------------------
 Structure from the checkpoint file:  "JID_2468.chk"
 Charge =  0 Multiplicity = 1

 SCF Done:  E(RB3LYP) =  -522.706159931     A.U. after   13 cycles
 Normal termination of Gaussian 16 at Wed Dec  9 17:38:39 2020.

 ----------------------------------------------------------------------
 # B3LYP/6-311++G(d,p) empiricaldispersion=gd3bj scf=xqc pop=npa geom=c
 heck
 ----------------------------------------------------------------------

 ------------------------------------
 CID_68219020_JID_2468_Energie_kation
 ------------------------------------
 Structure from the checkpoint file:  "JID_2468.chk"
 Charge =  1 Multiplicity = 2

 SCF Done:  E(UB3LYP) =  -522.394991333     A.U. after   22 cycles
 Normal termination of Gaussian 16 at Wed Dec  9 17:47:54 2020.
 Gaussian 16:  ES64L-G16RevA.03 25-Dec-2016

 ----------------------------------------------------------------------
 # B3LYP/6-311++G(d,p) empiricaldispersion=gd3bj scf=xqc pop=npa geom=c
 heck
 ----------------------------------------------------------------------

 -----------------------------------
 CID_68219020_JID_2468_Energie_anion
 -----------------------------------
 Structure from the checkpoint file:  "JID_2468.chk"
 Charge = -1 Multiplicity = 2

                         Standard orientation:
 ---------------------------------------------------------------------
 Center     Atomic      Atomic             Coordinates (Angstroms)
 Number     Number       Type             X           Y           Z
 ---------------------------------------------------------------------
      1          6           0       -3.861765   -0.429701   -0.198475
      2          6           0       -2.447643   -0.977774   -0.014777
      3          6           0       -1.411341    0.152869    0.050130
      4          8           0       -1.796360    1.309895    0.185291
      5          7           0       -0.075764   -0.191398   -0.086257
      6          6           0        0.333475   -1.530927    0.375626
      7          6           0        1.629903   -2.020108   -0.259207
      8          6           0        2.743293   -1.009978   -0.005979
      9          6           0        2.305417    0.338467   -0.569911
     10          6           0        0.965049    0.891617   -0.024189
     11          6           0        0.602528    2.070049   -0.947921
     12          6           0        1.115872    1.381164    1.426424
     13          1           0       -4.120858    0.254044    0.613015
     14          1           0       -4.586758   -1.250463   -0.216700
     15          1           0       -3.946360    0.129745   -1.134749
     16          1           0       -2.396963   -1.565997    0.911678
     17          1           0       -2.196170   -1.667408   -0.829861
     18          1           0        0.454730   -1.526859    1.471581
     19          1           0       -0.463579   -2.235879    0.149094
     20          1           0        1.480843   -2.146148   -1.339814
     21          1           0        1.874050   -3.005172    0.156382
     22          1           0        3.680899   -1.327603   -0.477062
     23          1           0        2.939328   -0.936773    1.072286
     24          1           0        2.211795    0.241156   -1.659913
     25          1           0        3.069592    1.102440   -0.386647
     26          1           0       -0.202131    2.680078   -0.546588
     27          1           0        1.495199    2.691881   -1.083291
     28          1           0        0.297995    1.697445   -1.931870
     29          1           0        1.436416    0.577340    2.098017
     30          1           0        1.863427    2.180425    1.482097
     31          1           0        0.161038    1.774324    1.783490
 ---------------------------------------------------------------------

 SCF Done:  E(UB3LYP) =  -522.691902751     A.U. after   30 cycles

 The electronic state is 2-A.
 Alpha  occ. eigenvalues --  -18.98366 -14.23291 -10.16592 -10.11794 -10.09790
 Alpha  occ. eigenvalues --  -10.07463 -10.06485 -10.06178 -10.06114 -10.05960
 Alpha  occ. eigenvalues --  -10.05675 -10.05218  -0.93496  -0.83117  -0.71080
 Alpha  occ. eigenvalues --   -0.68975  -0.66820  -0.60468  -0.58787  -0.55561
 Alpha  occ. eigenvalues --   -0.54376  -0.49380  -0.46865  -0.41449  -0.39909
 Alpha  occ. eigenvalues --   -0.37115  -0.36613  -0.35732  -0.33739  -0.33542
 Alpha  occ. eigenvalues --   -0.32764  -0.32509  -0.31671  -0.29379  -0.27946
 Alpha  occ. eigenvalues --   -0.27448  -0.27080  -0.26081  -0.25917  -0.25559
 Alpha  occ. eigenvalues --   -0.24404  -0.24034  -0.22592  -0.21917  -0.21489
 Alpha  occ. eigenvalues --   -0.15202  -0.13894   0.04545
 Alpha virt. eigenvalues --    0.06650   0.07581   0.07749   0.08741   0.09505
 Alpha virt. eigenvalues --    0.09814   0.10058   0.10283   0.11328   0.11473
 Alpha virt. eigenvalues --    0.11737   0.12761   0.12968   0.13336   0.13558

  Beta  occ. eigenvalues --  -18.98359 -14.23287 -10.16591 -10.11794 -10.09766
  Beta  occ. eigenvalues --  -10.07433 -10.06470 -10.06146 -10.06088 -10.05944
  Beta  occ. eigenvalues --  -10.05653 -10.05209  -0.93484  -0.83103  -0.71055
  Beta  occ. eigenvalues --   -0.68935  -0.66784  -0.60425  -0.58757  -0.55519
  Beta  occ. eigenvalues --   -0.54320  -0.49319  -0.46803  -0.41405  -0.39868
  Beta  occ. eigenvalues --   -0.37085  -0.36583  -0.35701  -0.33704  -0.33494
  Beta  occ. eigenvalues --   -0.32733  -0.32486  -0.31637  -0.29348  -0.27922
  Beta  occ. eigenvalues --   -0.27427  -0.27046  -0.26045  -0.25884  -0.25525
  Beta  occ. eigenvalues --   -0.24364  -0.24003  -0.22557  -0.21871  -0.21456
  Beta  occ. eigenvalues --   -0.15182  -0.13877
  Beta virt. eigenvalues --    0.06858   0.07438   0.08352   0.08386   0.09318
  Beta virt. eigenvalues --    0.09981   0.10261   0.10359   0.10763   0.11469
  Beta virt. eigenvalues --    0.11735   0.12175   0.12994   0.13352   0.13716

 Mulliken charges and spin densities:
               1          2
     1  C    0.774324  -1.517259
     2  C    0.054102  -0.178652
     3  C   -0.186359   0.137727
     4  O   -0.270557  -0.004373
     5  N    0.298950   0.091736
     6  C    0.772097  -1.078741
     7  C    0.036269  -0.374290
     8  C    0.321932  -0.695620
     9  C   -0.154494   0.072000
    10  C   -0.941141   0.699483
    11  C   -0.112483  -0.298804
    12  C    0.906682  -1.432321
    13  H    0.105725   0.054869
    14  H   -0.219538   0.353463
    15  H    0.032927   0.118691
    16  H   -0.287544   0.458798
    17  H   -0.146385   0.307990
    18  H   -0.162262   0.345897
    19  H   -0.554230   0.758308
    20  H   -0.081240   0.224025
    21  H   -0.504626   0.681750
    22  H   -0.848925   1.048400
    23  H    0.003340   0.128687
    24  H   -0.055765   0.217793
    25  H   -0.027966   0.178252
    26  H    0.122809   0.060078
    27  H    0.025452   0.113990
    28  H    0.060852   0.089730
    29  H   -0.061105   0.183814
    30  H   -0.116146   0.271474
    31  H    0.215303  -0.016897
 Sum of Mulliken charges =  -1.00000   1.00000

 Dipole moment (field-independent basis, Debye):
    X=             -1.4523    Y=              4.9337    Z=             -0.4708  Tot=              5.1645
 Quadrupole moment (field-independent basis, Debye-Ang):
   XX=           -141.6351   YY=           -129.2934   ZZ=           -107.0939
   XY=              4.2906   XZ=              1.0433   YZ=              0.3471

 Summary of Natural Population Analysis:

                                       Natural Population
                Natural  -----------------------------------------------
    Atom  No    Charge         Core      Valence    Rydberg      Total
 -----------------------------------------------------------------------
      C    1   -0.28279      0.99967     2.27647    0.00664     3.28279
      C    2   -0.23494      0.99961     2.22766    0.00768     3.23494
      C    3    0.35549      0.99965     1.62183    0.02302     2.64451
      O    4   -0.32819      0.99988     3.32283    0.00548     4.32819
      N    5   -0.26922      0.99962     2.75769    0.01191     3.76922
      C    6   -0.08359      0.99958     2.07262    0.01139     3.08359
      C    7   -0.19093      0.99962     2.18233    0.00898     3.19093
      C    8   -0.19091      0.99962     2.18229    0.00900     3.19091
      C    9   -0.19099      0.99958     2.18035    0.01107     3.19099
      C   10    0.07186      0.99956     1.91415    0.01442     2.92814
      C   11   -0.28806      0.99961     2.28252    0.00593     3.28806
      C   12   -0.29739      0.99960     2.29088    0.00691     3.29739
      H   13    0.10335      0.00000     0.39574    0.00091     0.39665
      H   14    0.09642      0.00000     0.40270    0.00088     0.40358
      H   15    0.09897      0.00000     0.40021    0.00082     0.40103
      H   16    0.10829      0.00000     0.39020    0.00151     0.39171
      H   17    0.10693      0.00000     0.39150    0.00156     0.39307
      H   18    0.08787      0.00000     0.41024    0.00190     0.41213
      H   19    0.10669      0.00000     0.39065    0.00267     0.39331
      H   20    0.09561      0.00000     0.40266    0.00173     0.40439
      H   21    0.10538      0.00000     0.39220    0.00242     0.39462
      H   22    0.10253      0.00000     0.39576    0.00171     0.39747
      H   23    0.09494      0.00000     0.40342    0.00164     0.40506
      H   24    0.09831      0.00000     0.40015    0.00154     0.40169
      H   25    0.10162      0.00000     0.39729    0.00109     0.39838
      H   26    0.11589      0.00000     0.38319    0.00092     0.38411
      H   27    0.09534      0.00000     0.40383    0.00083     0.40466
      H   28    0.10162      0.00000     0.39745    0.00093     0.39838
      H   29    0.10069      0.00000     0.39830    0.00101     0.39931
      H   30    0.09932      0.00000     0.39985    0.00083     0.40068
      H   31    0.10990      0.00000     0.38924    0.00086     0.39010
 =======================================================================
   * Total *    0.00000     11.99561    34.85617    0.14821    47.00000

 Normal termination of Gaussian 16 at Wed Dec  9 17:59:30 2020.
