 Gaussian 16, Revision A.03,

 -----------------------------------------------------------
 # opt freq B3LYP/6-31G(d) empiricaldispersion=gd3bj scf=xqc
 -----------------------------------------------------------

 -------------------------------
 CID_105707084_JID_7161_neutraal
 -------------------------------
 Symbolic Z-matrix:
 Charge =  0 Multiplicity = 1

 SCF Done:  E(RB3LYP) =  -782.260490019     A.U. after   15 cycles
 SCF Done:  E(RB3LYP) =  -782.267279943     A.U. after   12 cycles
 SCF Done:  E(RB3LYP) =  -782.268889528     A.U. after   12 cycles
 SCF Done:  E(RB3LYP) =  -782.269258482     A.U. after   13 cycles
 SCF Done:  E(RB3LYP) =  -782.270584606     A.U. after   12 cycles
 SCF Done:  E(RB3LYP) =  -782.270818456     A.U. after   12 cycles
 SCF Done:  E(RB3LYP) =  -782.270986280     A.U. after   12 cycles
 SCF Done:  E(RB3LYP) =  -782.271004235     A.U. after   10 cycles
 SCF Done:  E(RB3LYP) =  -782.271017644     A.U. after   10 cycles
 SCF Done:  E(RB3LYP) =  -782.271020184     A.U. after    9 cycles
 SCF Done:  E(RB3LYP) =  -782.271020796     A.U. after    8 cycles
 SCF Done:  E(RB3LYP) =  -782.271020869     A.U. after    7 cycles
 Optimization completed.
    -- Stationary point found.
 Normal termination of Gaussian 16 at Mon Dec 14 18:48:12 2020.

 --------------------------------------------------------------------
 #N Geom=AllCheck Guess=TCheck SCRF=Check GenChk RB3LYP/6-31G(d) Freq
 --------------------------------------------------------------------

 Structure from the checkpoint file:  "JID_7161.chk"
 -------------------------------
 CID_105707084_JID_7161_neutraal
 -------------------------------
 Charge =  0 Multiplicity = 1

 SCF Done:  E(RB3LYP) =  -782.271020869     A.U. after    1 cycles

  Exact polarizability: 187.323  15.264 160.558 -20.233  12.901 106.580
 Approx polarizability: 265.773  36.271 267.181 -38.083  34.992 170.989

                      1                      2                      3
                      A                      A                      A
 Frequencies --     26.0157                43.0505                44.4140
 Red. masses --      3.7738                 5.3884                 8.0688
 Frc consts  --      0.0015                 0.0059                 0.0094
 IR Inten    --      0.5302                 0.6920                 1.0633

                      4                      5                      6
                      A                      A                      A
 Frequencies --     66.3120               109.4106               124.0447
 Red. masses --      4.1791                 4.5017                 2.8682
 Frc consts  --      0.0108                 0.0317                 0.0260
 IR Inten    --      0.0938                 0.5099                 0.5722

                      7                      8                      9
                      A                      A                      A
 Frequencies --    149.3442               180.2891               200.1768
 Red. masses --      4.2352                 2.8080                 2.2088
 Frc consts  --      0.0557                 0.0538                 0.0521
 IR Inten    --      3.3212                 1.4501                 0.3907

                     10                     11                     12
                      A                      A                      A
 Frequencies --    220.0652               226.1606               279.1985
 Red. masses --      2.1901                 3.0478                 2.0585
 Frc consts  --      0.0625                 0.0918                 0.0945
 IR Inten    --      0.6610                 4.0929                 0.9029

                     13                     14                     15
                      A                      A                      A
 Frequencies --    315.5210               331.3021               356.7443
 Red. masses --      3.0811                 3.9461                 2.1347
 Frc consts  --      0.1807                 0.2552                 0.1601
 IR Inten    --      3.4320                 3.8894                 0.6433

                     16                     17                     18
                      A                      A                      A
 Frequencies --    362.8697               383.4226               407.5285
 Red. masses --      5.7406                 2.4831                 4.2198
 Frc consts  --      0.4454                 0.2151                 0.4129
 IR Inten    --      1.2611                 1.6494                 2.1678

                     19                     20                     21
                      A                      A                      A
 Frequencies --    438.6693               440.9572               491.5357
 Red. masses --      1.1205                 3.0757                 2.8961
 Frc consts  --      0.1270                 0.3524                 0.4123
 IR Inten    --     39.6487                 6.4156                 4.6461

                     22                     23                     24
                      A                      A                      A
 Frequencies --    526.8234               555.8676               565.4745
 Red. masses --      3.1168                 3.4067                 2.2759
 Frc consts  --      0.5097                 0.6202                 0.4288
 IR Inten    --     24.7995                14.5148                10.7453

                     25                     26                     27
                      A                      A                      A
 Frequencies --    590.9062               616.8449               651.1238
 Red. masses --      3.3302                 5.2094                 2.0721
 Frc consts  --      0.6851                 1.1678                 0.5176
 IR Inten    --     28.5415               100.3109                44.8657

                     28                     29                     30
                      A                      A                      A
 Frequencies --    679.0810               705.3421               724.8506
 Red. masses --      1.8036                 2.1540                 4.1196
 Frc consts  --      0.4900                 0.6314                 1.2753
 IR Inten    --    153.1621               113.5879                76.8983

                     31                     32                     33
                      A                      A                      A
 Frequencies --    766.9937               788.8363               796.8485
 Red. masses --      3.6958                 1.6669                 1.7460
 Frc consts  --      1.2810                 0.6111                 0.6532
 IR Inten    --     30.4109                 2.0663                13.9472

                     34                     35                     36
                      A                      A                      A
 Frequencies --    798.2715               806.4466               841.7675
 Red. masses --      4.0491                 1.4281                 1.7385
 Frc consts  --      1.5202                 0.5472                 0.7258
 IR Inten    --     31.7084                 9.7712                94.7966

                     37                     38                     39
                      A                      A                      A
 Frequencies --    853.1086               897.0709               925.8696
 Red. masses --      1.6311                 2.5862                 3.2127
 Frc consts  --      0.6994                 1.2262                 1.6226
 IR Inten    --     17.6383                 4.3408                 8.6857

                     40                     41                     42
                      A                      A                      A
 Frequencies --    936.2909               950.3979               953.7514
 Red. masses --      1.5546                 1.4294                 1.3275
 Frc consts  --      0.8029                 0.7607                 0.7115
 IR Inten    --     10.6879                 2.7575                 0.9685

                     43                     44                     45
                      A                      A                      A
 Frequencies --    956.5633              1026.0423              1040.8697
 Red. masses --      2.6085                 1.7098                 2.6306
 Frc consts  --      1.4062                 1.0606                 1.6792
 IR Inten    --      1.6580                 3.7296                 7.2005

                     46                     47                     48
                      A                      A                      A
 Frequencies --   1057.1310              1083.1128              1095.4859
 Red. masses --      1.3086                 1.4150                 1.7487
 Frc consts  --      0.8616                 0.9781                 1.2365
 IR Inten    --      2.4018                 6.5421                27.6400

                     49                     50                     51
                      A                      A                      A
 Frequencies --   1098.5297              1111.3412              1137.4668
 Red. masses --      2.6359                 2.1597                 1.8270
 Frc consts  --      1.8742                 1.5716                 1.3927
 IR Inten    --     97.8454                96.0205                15.7136

                     52                     53                     54
                      A                      A                      A
 Frequencies --   1160.0104              1179.9673              1199.7936
 Red. masses --      2.7496                 1.2973                 1.3220
 Frc consts  --      2.1799                 1.0643                 1.1212
 IR Inten    --    197.6927                16.0783                 0.2414

                     55                     56                     57
                      A                      A                      A
 Frequencies --   1217.5209              1252.0897              1292.0553
 Red. masses --      1.9440                 1.6723                 1.5984
 Frc consts  --      1.6979                 1.5447                 1.5722
 IR Inten    --     99.3881                58.3179                 5.9196

                     58                     59                     60
                      A                      A                      A
 Frequencies --   1310.7737              1334.4553              1353.3004
 Red. masses --      2.8780                 2.7869                 1.5550
 Frc consts  --      2.9134                 2.9240                 1.6779
 IR Inten    --     39.0323                84.5291                13.7804

                     61                     62                     63
                      A                      A                      A
 Frequencies --   1369.1444              1376.1165              1393.2132
 Red. masses --      1.5396                 2.3203                 1.6191
 Frc consts  --      1.7004                 2.5889                 1.8516
 IR Inten    --      0.2960                79.3712                12.0692

                     64                     65                     66
                      A                      A                      A
 Frequencies --   1407.0968              1431.1423              1441.4624
 Red. masses --      3.1987                 1.6149                 1.2866
 Frc consts  --      3.7314                 1.9487                 1.5750
 IR Inten    --     50.8588                 7.5308                 4.0938

                     67                     68                     69
                      A                      A                      A
 Frequencies --   1448.1508              1494.7971              1515.2125
 Red. masses --      2.1675                 1.0880                 1.7553
 Frc consts  --      2.6782                 1.4323                 2.3744
 IR Inten    --     20.2036                 2.6402               119.2261

                     70                     71                     72
                      A                      A                      A
 Frequencies --   1524.8859              1526.7388              1532.0884
 Red. masses --      1.1847                 1.2561                 1.7414
 Frc consts  --      1.6231                 1.7251                 2.4084
 IR Inten    --     27.2731                51.7340                 9.1360

                     73                     74                     75
                      A                      A                      A
 Frequencies --   1536.2314              1537.2822              1546.1987
 Red. masses --      1.2524                 1.2381                 1.1619
 Frc consts  --      1.7415                 1.7240                 1.6366
 IR Inten    --     23.3659                25.8307                15.9620

                     76                     77                     78
                      A                      A                      A
 Frequencies --   1628.5319              1636.4107              1681.9709
 Red. masses --      3.6901                 4.0515                 1.4251
 Frc consts  --      5.7661                 6.3922                 2.3754
 IR Inten    --     16.6003                46.2846               153.6825

                     79                     80                     81
                      A                      A                      A
 Frequencies --   1838.5506              3042.2522              3047.3998
 Red. masses --      9.9178                 1.0666                 1.0600
 Frc consts  --     19.7523                 5.8161                 5.8000
 IR Inten    --    284.5050                32.3234                46.4499

                     82                     83                     84
                      A                      A                      A
 Frequencies --   3048.9187              3090.2383              3115.3631
 Red. masses --      1.0465                 1.0963                 1.1015
 Frc consts  --      5.7316                 6.1685                 6.2987
 IR Inten    --     23.7703                 0.8855                31.2037

                     85                     86                     87
                      A                      A                      A
 Frequencies --   3119.5906              3127.3352              3137.8198
 Red. masses --      1.1006                 1.0956                 1.0514
 Frc consts  --      6.3109                 6.3130                 6.0994
 IR Inten    --     32.6550                13.1684                19.5588

                     88                     89                     90
                      A                      A                      A
 Frequencies --   3142.2486              3185.9877              3211.9433
 Red. masses --      1.0584                 1.0903                 1.1187
 Frc consts  --      6.1569                 6.5208                 6.7997
 IR Inten    --     20.6585                17.6142                 0.1253

                     91                     92                     93
                      A                      A                      A
 Frequencies --   3225.0716              3247.0498              3516.2522
 Red. masses --      1.1158                 1.0928                 1.0731
 Frc consts  --      6.8379                 6.7883                 7.8169
 IR Inten    --     23.1409                 1.1676                10.0073

                     94                     95                     96
                      A                      A                      A
 Frequencies --   3523.0777              3632.5024              3705.3798
 Red. masses --      1.0482                 1.0982                 1.0642
 Frc consts  --      7.6654                 8.5374                 8.6087
 IR Inten    --     20.0639                16.1650                74.5283

 - Thermochemistry -
 -------------------
 Temperature   298.150 Kelvin.  Pressure   1.00000 Atm.
 Atom     1 has atomic number  6 and mass  12.00000

 Molecular mass:   235.13208 amu.
 Principal axes and moments of inertia in atomic units:
                           1         2         3
     Eigenvalues --  2565.495515746.768457036.59056
           X            0.99980  -0.01974  -0.00277
           Y            0.01972   0.99976  -0.00922
           Z            0.00295   0.00916   0.99995
 This molecule is an asymmetric top.
 Rotational symmetry number  1.
 Warning -- assumption of classical behavior for rotation
           may cause significant error
 Rotational temperatures (Kelvin)      0.03376     0.01507     0.01231
 Rotational constants (GHZ):           0.70347     0.31404     0.25648
 Zero-point vibrational energy     753762.0 (Joules/Mol)
                                  180.15344 (Kcal/Mol)
 Warning -- explicit consideration of  26 degrees of freedom as
           vibrations may cause significant error
 Vibrational temperatures:     37.43    61.94    63.90    95.41   157.42
          (Kelvin)            178.47   214.87   259.40   288.01   316.62
                              325.39   401.70   453.96   476.67   513.28
                              522.09   551.66   586.34   631.15   634.44
                              707.21   757.98   799.77   813.59   850.18
                              887.50   936.82   977.05  1014.83  1042.90
                             1103.53  1134.96  1146.49  1148.53  1160.30
                             1211.12  1227.43  1290.69  1332.12  1347.11
                             1367.41  1372.24  1376.28  1476.25  1497.58
                             1520.98  1558.36  1576.16  1580.54  1598.97
                             1636.56  1669.00  1697.71  1726.24  1751.74
                             1801.48  1858.98  1885.91  1919.98  1947.10
                             1969.89  1979.92  2004.52  2024.50  2059.09
                             2073.94  2083.57  2150.68  2180.05  2193.97
                             2196.64  2204.33  2210.29  2211.81  2224.64
                             2343.09  2354.43  2419.98  2645.26  4377.12
                             4384.53  4386.71  4446.16  4482.31  4488.40
                             4499.54  4514.62  4520.99  4583.93  4621.27
                             4640.16  4671.78  5059.10  5068.92  5226.36
                             5331.22

 Zero-point correction=                           0.287093 (Hartree/Particle)
 Thermal correction to Energy=                    0.303510
 Thermal correction to Enthalpy=                  0.304454
 Thermal correction to Gibbs Free Energy=         0.242295
 Sum of electronic and zero-point Energies=           -781.983928
 Sum of electronic and thermal Energies=              -781.967511
 Sum of electronic and thermal Enthalpies=            -781.966567
 Sum of electronic and thermal Free Energies=         -782.028726

                     E (Thermal)             CV                S
                      KCal/Mol        Cal/Mol-Kelvin    Cal/Mol-Kelvin
 Total                  190.455             63.481            130.825
 Electronic               0.000              0.000              0.000
 Translational            0.889              2.981             42.267
 Rotational               0.889              2.981             33.006
 Vibrational            188.678             57.519             55.552
 Vibration     1          0.593              1.985              6.112
 Vibration     2          0.595              1.980              5.114
 Vibration     3          0.595              1.980              5.052
 Vibration     4          0.598              1.970              4.260
 Vibration     5          0.606              1.942              3.279
 Vibration     6          0.610              1.929              3.036
 Vibration     7          0.618              1.903              2.681
 Vibration     8          0.629              1.866              2.325
 Vibration     9          0.638              1.840              2.131
 Vibration    10          0.647              1.811              1.959
 Vibration    11          0.650              1.801              1.909
 Vibration    12          0.680              1.712              1.539
 Vibration    13          0.703              1.644              1.333
 Vibration    14          0.714              1.613              1.254
 Vibration    15          0.732              1.561              1.136
 Vibration    16          0.737              1.549              1.110
 Vibration    17          0.753              1.506              1.026
 Vibration    18          0.772              1.454              0.935
 Vibration    19          0.799              1.386              0.831
 Vibration    20          0.801              1.381              0.824
 Vibration    21          0.847              1.269              0.680
 Vibration    22          0.882              1.191              0.594
 Vibration    23          0.911              1.127              0.532
 Vibration    24          0.921              1.106              0.513
 Vibration    25          0.948              1.051              0.466
 Vibration    26          0.977              0.996              0.422

 Optimization completed.
    -- Stationary point found.
 Normal termination of Gaussian 16 at Mon Dec 14 19:00:40 2020.

 ----------------------------------------------------------------------
 # B3LYP/6-311++G(d,p) empiricaldispersion=gd3bj scf=xqc pop=npa geom=c
 heck
 ----------------------------------------------------------------------

 ---------------------------------------
 CID_105707084_JID_7161_Energie_neutraal
 ---------------------------------------
 Structure from the checkpoint file:  "JID_7161.chk"
 Charge =  0 Multiplicity = 1

 SCF Done:  E(RB3LYP) =  -782.503521385     A.U. after   16 cycles
 Normal termination of Gaussian 16 at Mon Dec 14 19:07:05 2020.

 ----------------------------------------------------------------------
 # B3LYP/6-311++G(d,p) empiricaldispersion=gd3bj scf=xqc pop=npa geom=c
 heck
 ----------------------------------------------------------------------

 -------------------------------------
 CID_105707084_JID_7161_Energie_kation
 -------------------------------------
 Structure from the checkpoint file:  "JID_7161.chk"
 Charge =  1 Multiplicity = 2

 SCF Done:  E(UB3LYP) =  -782.221987343     A.U. after   22 cycles
 Normal termination of Gaussian 16 at Mon Dec 14 19:20:00 2020.
 Gaussian 16:  ES64L-G16RevA.03 25-Dec-2016

 ----------------------------------------------------------------------
 # B3LYP/6-311++G(d,p) empiricaldispersion=gd3bj scf=xqc pop=npa geom=c
 heck
 ----------------------------------------------------------------------

 ------------------------------------
 CID_105707084_JID_7161_Energie_anion
 ------------------------------------
 Structure from the checkpoint file:  "JID_7161.chk"
 Charge = -1 Multiplicity = 2

                         Standard orientation:
 ---------------------------------------------------------------------
 Center     Atomic      Atomic             Coordinates (Angstroms)
 Number     Number       Type             X           Y           Z
 ---------------------------------------------------------------------
      1          6           0        1.346656   -0.574617    2.207636
      2          6           0        1.700278   -1.354588    0.937530
      3          6           0        2.696775   -0.639826    0.032650
      4          6           0        4.168730   -0.849117    0.301104
      5          6           0        3.522652   -1.494149   -0.903163
      6          6           0        2.300705    0.735915   -0.481087
      7          7           0        1.084054    0.736614   -1.324589
      8          6           0       -0.163144    0.822929   -0.678933
      9          6           0       -0.527376    2.050848   -0.050652
     10          6           0       -1.764462    2.099574    0.591070
     11          6           0       -2.607119    0.990445    0.550770
     12          6           0       -2.188941   -0.139692   -0.151785
     13          7           0       -0.981626   -0.214571   -0.742158
     14          6           0       -3.038797   -1.354595   -0.275998
     15          8           0       -2.742200   -2.375946   -0.855333
     16          8           0       -4.239583   -1.205718    0.356617
     17          7           0        0.353996    3.122018   -0.084216
     18          1           0        2.248198   -0.307836    2.772224
     19          1           0        0.701395   -1.171240    2.861380
     20          1           0        0.808799    0.351566    1.978147
     21          1           0        2.131743   -2.324167    1.218399
     22          1           0        0.786759   -1.575199    0.373886
     23          1           0        4.852559   -0.021068    0.131200
     24          1           0        4.443739   -1.484734    1.138575
     25          1           0        3.361367   -2.568489   -0.887193
     26          1           0        3.771456   -1.098064   -1.885190
     27          1           0        2.136546    1.427101    0.349485
     28          1           0        3.126134    1.144663   -1.077153
     29          1           0        1.075761   -0.089059   -1.920044
     30          1           0       -2.075383    3.011591    1.094575
     31          1           0       -3.574644    1.007326    1.036300
     32          1           0       -4.705410   -2.050061    0.217120
     33          1           0        0.964152    3.103810   -0.895678
     34          1           0       -0.069615    4.029974    0.065590
 ---------------------------------------------------------------------

 SCF Done:  E(UB3LYP) =  -782.503639952     A.U. after   33 cycles
 SCF Done:  E(UB3LYP) =  -782.503639952     a.u. after    1 cycles

 The electronic state is 2-A.
 Alpha  occ. eigenvalues --  -19.03058 -18.95752 -14.19551 -14.19422 -14.15538
 Alpha  occ. eigenvalues --  -10.14213 -10.09819 -10.09301 -10.08638 -10.08036
 Alpha  occ. eigenvalues --  -10.07910 -10.07349 -10.06113 -10.05632 -10.05460
 Alpha  occ. eigenvalues --  -10.04421 -10.04366  -0.96545  -0.87166  -0.84049
 Alpha  occ. eigenvalues --   -0.78877  -0.78245  -0.75973  -0.65710  -0.65543
 Alpha  occ. eigenvalues --   -0.62402  -0.57964  -0.53338  -0.53029  -0.51280
 Alpha  occ. eigenvalues --   -0.49219  -0.46860  -0.44417  -0.41027  -0.39794
 Alpha  occ. eigenvalues --   -0.39016  -0.37990  -0.37368  -0.35293  -0.34525
 Alpha  occ. eigenvalues --   -0.33714  -0.32861  -0.31550  -0.31148  -0.30550
 Alpha  occ. eigenvalues --   -0.29482  -0.28273  -0.27872  -0.27203  -0.26729
 Alpha  occ. eigenvalues --   -0.26004  -0.25474  -0.24919  -0.23491  -0.20998
 Alpha  occ. eigenvalues --   -0.19948  -0.18759  -0.18255  -0.16969  -0.13741
 Alpha  occ. eigenvalues --   -0.12991  -0.12345  -0.08209   0.04658
 Alpha virt. eigenvalues --    0.06745   0.07368   0.08134   0.08748   0.09007
 Alpha virt. eigenvalues --    0.09587   0.10087   0.11100   0.11330   0.11717
 Alpha virt. eigenvalues --    0.12215   0.12639   0.13307   0.14072   0.14739

  Beta  occ. eigenvalues --  -19.03002 -18.95545 -14.19562 -14.19339 -14.15168
  Beta  occ. eigenvalues --  -10.14014 -10.09901 -10.09299 -10.08638 -10.08034
  Beta  occ. eigenvalues --  -10.07907 -10.07068 -10.06109 -10.05504 -10.05457
  Beta  occ. eigenvalues --  -10.04408 -10.04343  -0.96315  -0.86851  -0.83845
  Beta  occ. eigenvalues --   -0.78763  -0.77956  -0.75860  -0.65611  -0.65371
  Beta  occ. eigenvalues --   -0.62102  -0.57825  -0.53310  -0.52577  -0.51256
  Beta  occ. eigenvalues --   -0.49112  -0.46693  -0.44363  -0.40919  -0.39714
  Beta  occ. eigenvalues --   -0.38942  -0.37829  -0.37306  -0.35158  -0.34393
  Beta  occ. eigenvalues --   -0.33513  -0.32784  -0.31268  -0.30534  -0.30349
  Beta  occ. eigenvalues --   -0.29368  -0.28264  -0.27798  -0.26789  -0.26616
  Beta  occ. eigenvalues --   -0.25842  -0.25154  -0.24870  -0.23452  -0.20115
  Beta  occ. eigenvalues --   -0.19940  -0.18276  -0.17808  -0.16728  -0.13518
  Beta  occ. eigenvalues --   -0.12470  -0.11670  -0.07365
  Beta virt. eigenvalues --    0.06760   0.08087   0.08172   0.08661   0.09087
  Beta virt. eigenvalues --    0.09714   0.09880   0.10277   0.11234   0.11438
  Beta virt. eigenvalues --    0.11863   0.12255   0.12775   0.13241   0.14129

 Mulliken charges and spin densities:
               1          2
     1  C   -0.716848  -0.031783
     2  C   -0.071395   0.003791
     3  C    0.417069   0.064933
     4  C   -0.469314  -0.034295
     5  C   -0.179589  -0.074621
     6  C   -0.598500  -0.209473
     7  N    0.053213   0.024175
     8  C    0.090994  -0.095293
     9  C    0.191559  -0.152222
    10  C   -0.181460  -0.152633
    11  C   -0.329708  -0.052290
    12  C   -0.130517   0.014727
    13  N   -0.080114   0.209545
    14  C    0.313976   0.018817
    15  O   -0.388843   0.075463
    16  O   -0.233958   0.012103
    17  N   -0.319040  -0.027765
    18  H    0.102999   0.024033
    19  H    0.125834  -0.002103
    20  H    0.170058   0.008947
    21  H    0.138491  -0.000137
    22  H    0.220699   0.003928
    23  H    0.086758   0.049889
    24  H    0.129655  -0.001769
    25  H    0.128685   0.014287
    26  H    0.108500   0.034028
    27  H    0.317537  -0.141660
    28  H   -0.192967   0.353514
    29  H    0.238958   0.024325
    30  H   -0.058733   0.189435
    31  H    0.169289   0.007003
    32  H    0.265096  -0.001164
    33  H   -0.044905   0.308171
    34  H   -0.273480   0.536091
 Sum of Mulliken charges =  -1.00000   1.00000

 Dipole moment (field-independent basis, Debye):
    X=              3.6689    Y=             -3.1324    Z=              2.8868  Tot=              5.6220
 Quadrupole moment (field-independent basis, Debye-Ang):
   XX=           -135.9161   YY=           -150.1912   ZZ=           -119.5092
   XY=             -6.5382   XZ=             -2.6397   YZ=             -1.3376

 Summary of Natural Population Analysis:

                                       Natural Population
                Natural  -----------------------------------------------
    Atom  No    Charge         Core      Valence    Rydberg      Total
 -----------------------------------------------------------------------
      C    1   -0.28665      0.99967     2.28292    0.00407     3.28665
      C    2   -0.19319      0.99959     2.18645    0.00715     3.19319
      C    3   -0.04612      0.99954     2.03485    0.01173     3.04612
      C    4   -0.19943      0.99959     2.19180    0.00805     3.19943
      C    5   -0.19846      0.99959     2.19064    0.00823     3.19846
      C    6   -0.08887      0.99954     2.07537    0.01396     3.08887
      N    7   -0.34088      0.99971     2.82900    0.01217     3.84088
      C    8    0.15693      0.99949     1.82632    0.01726     2.84307
      C    9    0.10726      0.99945     1.88134    0.01195     2.89274
      C   10   -0.11800      0.99953     2.10848    0.00999     3.11800
      C   11   -0.10231      0.99954     2.09361    0.00917     3.10231
      C   12    0.03792      0.99948     1.94768    0.01492     2.96208
      N   13   -0.17958      0.99963     2.67051    0.00944     3.67958
      C   14    0.41285      0.99968     1.56375    0.02372     2.58715
      O   15   -0.29847      0.99987     3.29221    0.00639     4.29847
      O   16   -0.35753      0.99988     3.35117    0.00647     4.35753
      N   17   -0.39691      0.99971     2.88638    0.01082     3.89691
      H   18    0.08996      0.00000     0.40909    0.00095     0.41004
      H   19    0.09764      0.00000     0.40156    0.00080     0.40236
      H   20    0.10621      0.00000     0.39277    0.00102     0.39379
      H   21    0.08917      0.00000     0.40977    0.00106     0.41083
      H   22    0.12051      0.00000     0.37828    0.00122     0.37949
      H   23    0.10006      0.00000     0.39896    0.00098     0.39994
      H   24    0.09922      0.00000     0.39979    0.00099     0.40078
      H   25    0.10104      0.00000     0.39801    0.00094     0.39896
      H   26    0.10042      0.00000     0.39860    0.00098     0.39958
      H   27    0.10730      0.00000     0.39121    0.00149     0.39270
      H   28    0.09004      0.00000     0.40877    0.00119     0.40996
      H   29    0.18448      0.00000     0.31286    0.00266     0.31552
      H   30    0.09523      0.00000     0.40389    0.00088     0.40477
      H   31    0.10497      0.00000     0.39388    0.00115     0.39503
      H   32    0.22896      0.00000     0.26599    0.00506     0.27104
      H   33    0.19063      0.00000     0.30625    0.00312     0.30937
      H   34    0.18560      0.00000     0.30963    0.00477     0.31440
 =======================================================================
   * Total *   -0.00000     16.99348    45.79177    0.21475    63.00000

 Normal termination of Gaussian 16 at Mon Dec 14 19:38:46 2020.
