 Gaussian 16, Revision A.03,

 -----------------------------------------------------------
 # opt freq B3LYP/6-31G(d) empiricaldispersion=gd3bj scf=xqc
 -----------------------------------------------------------

 ------------------------------
 CID_82682627_JID_5007_neutraal
 ------------------------------
 Symbolic Z-matrix:
 Charge =  0 Multiplicity = 1

 SCF Done:  E(RB3LYP) =  -652.907847441     A.U. after   15 cycles
 SCF Done:  E(RB3LYP) =  -652.911081396     A.U. after   12 cycles
 SCF Done:  E(RB3LYP) =  -652.911495557     A.U. after   12 cycles
 SCF Done:  E(RB3LYP) =  -652.912428009     A.U. after   12 cycles
 SCF Done:  E(RB3LYP) =  -652.912357669     A.U. after   12 cycles
 SCF Done:  E(RB3LYP) =  -652.913090271     A.U. after   12 cycles
 SCF Done:  E(RB3LYP) =  -652.913280103     A.U. after   12 cycles
 SCF Done:  E(RB3LYP) =  -652.913362612     A.U. after   12 cycles
 SCF Done:  E(RB3LYP) =  -652.913434185     A.U. after   10 cycles
 SCF Done:  E(RB3LYP) =  -652.913460127     A.U. after   10 cycles
 SCF Done:  E(RB3LYP) =  -652.913507578     A.U. after    9 cycles
 SCF Done:  E(RB3LYP) =  -652.913508256     A.U. after   10 cycles
 SCF Done:  E(RB3LYP) =  -652.913508452     A.U. after    7 cycles
 SCF Done:  E(RB3LYP) =  -652.913508446     A.U. after    8 cycles
 SCF Done:  E(RB3LYP) =  -652.913508459     A.U. after    7 cycles
 Optimization completed.
    -- Stationary point found.
 Normal termination of Gaussian 16 at Thu Dec 10 15:08:53 2020.

 --------------------------------------------------------------------
 #N Geom=AllCheck Guess=TCheck SCRF=Check GenChk RB3LYP/6-31G(d) Freq
 --------------------------------------------------------------------

 Structure from the checkpoint file:  "JID_5007.chk"
 ------------------------------
 CID_82682627_JID_5007_neutraal
 ------------------------------
 Charge =  0 Multiplicity = 1

 SCF Done:  E(RB3LYP) =  -652.913508459     A.U. after    1 cycles

  Exact polarizability: 149.792  25.166 132.012 -16.618  10.548 125.157
 Approx polarizability: 211.775  47.469 205.085 -36.712  16.824 199.580

                      1                      2                      3
                      A                      A                      A
 Frequencies --     10.0194                26.4025                49.6539
 Red. masses --      4.5900                 3.2484                 3.2661
 Frc consts  --      0.0003                 0.0013                 0.0047
 IR Inten    --      0.0370                 0.1590                 1.0082

                      4                      5                      6
                      A                      A                      A
 Frequencies --     77.8863                98.3919               106.3625
 Red. masses --      5.7901                 3.5355                 5.1637
 Frc consts  --      0.0207                 0.0202                 0.0344
 IR Inten    --      0.4106                 0.3856                 2.2058

                      7                      8                      9
                      A                      A                      A
 Frequencies --    120.0386               202.8791               227.2414
 Red. masses --      2.6639                 2.1682                 1.7095
 Frc consts  --      0.0226                 0.0526                 0.0520
 IR Inten    --      5.3503                 4.1164                24.8306

                     10                     11                     12
                      A                      A                      A
 Frequencies --    243.3278               270.2524               287.5970
 Red. masses --      2.6723                 2.0904                 1.1450
 Frc consts  --      0.0932                 0.0900                 0.0558
 IR Inten    --      1.1404                11.8650                15.9575

                     13                     14                     15
                      A                      A                      A
 Frequencies --    331.7507               364.2101               385.7102
 Red. masses --      2.8398                 3.3888                 2.5352
 Frc consts  --      0.1841                 0.2648                 0.2222
 IR Inten    --      3.8707                 3.9548                 0.5582

                     16                     17                     18
                      A                      A                      A
 Frequencies --    396.3527               423.9128               427.4024
 Red. masses --      4.5025                 3.0410                 2.4979
 Frc consts  --      0.4167                 0.3220                 0.2688
 IR Inten    --      5.5020                 0.6685                 2.2557

                     19                     20                     21
                      A                      A                      A
 Frequencies --    484.8798               527.6009               547.6736
 Red. masses --      3.1702                 2.2114                 1.9938
 Frc consts  --      0.4391                 0.3627                 0.3524
 IR Inten    --      2.1621                50.8780                36.2616

                     22                     23                     24
                      A                      A                      A
 Frequencies --    600.7148               634.8751               656.2713
 Red. masses --      2.3741                 5.3946                 4.6835
 Frc consts  --      0.5048                 1.2811                 1.1885
 IR Inten    --     24.7237                 5.7296                 3.6972

                     25                     26                     27
                      A                      A                      A
 Frequencies --    697.6252               723.3492               756.5631
 Red. masses --      2.9480                 1.8096                 2.7682
 Frc consts  --      0.8453                 0.5579                 0.9336
 IR Inten    --     17.8538                98.9411                 3.9191

                     28                     29                     30
                      A                      A                      A
 Frequencies --    776.3309               804.9313               851.2113
 Red. masses --      1.9246                 2.5998                 1.2514
 Frc consts  --      0.6834                 0.9925                 0.5342
 IR Inten    --     17.7616                 1.4173                 1.3082

                     31                     32                     33
                      A                      A                      A
 Frequencies --    868.7480               895.3539               905.2870
 Red. masses --      1.2734                 2.1450                 2.4205
 Frc consts  --      0.5663                 1.0131                 1.1687
 IR Inten    --     95.2554                 1.0465                15.0296

                     34                     35                     36
                      A                      A                      A
 Frequencies --    924.3898               943.1400               961.8030
 Red. masses --      1.5572                 1.7381                 1.6801
 Frc consts  --      0.7840                 0.9109                 0.9157
 IR Inten    --     19.3366                30.7945                 9.4619

                     37                     38                     39
                      A                      A                      A
 Frequencies --    966.7760               983.0126               994.0013
 Red. masses --      1.3394                 1.7921                 1.2470
 Frc consts  --      0.7376                 1.0203                 0.7259
 IR Inten    --      0.3597                 5.2486                 0.2770

                     40                     41                     42
                      A                      A                      A
 Frequencies --   1020.4055              1022.8262              1059.3803
 Red. masses --      1.9577                 4.9270                 2.0718
 Frc consts  --      1.2010                 3.0369                 1.3699
 IR Inten    --      3.0589                 1.8262                 1.6030

                     43                     44                     45
                      A                      A                      A
 Frequencies --   1078.2537              1096.0312              1110.4880
 Red. masses --      2.2390                 2.4555                 1.5550
 Frc consts  --      1.5337                 1.7379                 1.1298
 IR Inten    --      8.0984                 3.4971                 4.7613

                     46                     47                     48
                      A                      A                      A
 Frequencies --   1124.3471              1160.5644              1193.8780
 Red. masses --      1.6962                 1.4928                 1.0973
 Frc consts  --      1.2634                 1.1846                 0.9215
 IR Inten    --      2.3517                 8.0907                 0.2887

                     49                     50                     51
                      A                      A                      A
 Frequencies --   1208.7455              1219.9110              1247.2950
 Red. masses --      1.1279                 1.5923                 1.4704
 Frc consts  --      0.9710                 1.3961                 1.3478
 IR Inten    --      2.2446                42.7370                 1.8764

                     52                     53                     54
                      A                      A                      A
 Frequencies --   1253.5548              1267.6589              1312.5612
 Red. masses --      1.4869                 1.6484                 1.8921
 Frc consts  --      1.3766                 1.5607                 1.9205
 IR Inten    --      3.0580                13.4146               191.7768

                     55                     56                     57
                      A                      A                      A
 Frequencies --   1338.2241              1343.3159              1365.4437
 Red. masses --      1.3847                 2.5408                 2.1291
 Frc consts  --      1.4610                 2.7014                 2.3388
 IR Inten    --      1.7825                 7.8056                 0.9211

                     58                     59                     60
                      A                      A                      A
 Frequencies --   1369.2494              1393.8374              1401.8182
 Red. masses --      1.3609                 1.3569                 1.3504
 Frc consts  --      1.5033                 1.5531                 1.5635
 IR Inten    --      1.6704                 7.4995                20.0204

                     61                     62                     63
                      A                      A                      A
 Frequencies --   1429.1177              1436.1698              1454.3268
 Red. masses --      1.5761                 1.3254                 1.7935
 Frc consts  --      1.8966                 1.6107                 2.2349
 IR Inten    --     93.6084                 4.6658                31.9513

                     64                     65                     66
                      A                      A                      A
 Frequencies --   1458.2877              1507.6270              1515.3698
 Red. masses --      1.4031                 1.0940                 1.4476
 Frc consts  --      1.7581                 1.4650                 1.9586
 IR Inten    --      7.2517                 4.7681                 4.6302

                     67                     68                     69
                      A                      A                      A
 Frequencies --   1517.5863              1527.0968              1536.6504
 Red. masses --      1.4549                 1.0681                 1.0736
 Frc consts  --      1.9742                 1.4676                 1.4936
 IR Inten    --     14.9210                 2.8310                 1.0207

                     70                     71                     72
                      A                      A                      A
 Frequencies --   1546.1150              1550.2926              1647.9219
 Red. masses --      1.0665                 2.3596                 5.6933
 Frc consts  --      1.5021                 3.3412                 9.1094
 IR Inten    --      9.8534                61.8406                 5.8238

                     73                     74                     75
                      A                      A                      A
 Frequencies --   1664.0474              1700.1317              1785.5953
 Red. masses --      5.7002                 1.0873                 8.1336
 Frc consts  --      9.2998                 1.8517                15.2791
 IR Inten    --     43.4463                26.2690               346.6874

                     76                     77                     78
                      A                      A                      A
 Frequencies --   2976.0608              3037.4723              3041.9677
 Red. masses --      1.0707                 1.0693                 1.0454
 Frc consts  --      5.5871                 5.8129                 5.6993
 IR Inten    --     83.9151                 8.0643                22.6700

                     79                     80                     81
                      A                      A                      A
 Frequencies --   3050.6131              3063.0487              3092.3143
 Red. masses --      1.0709                 1.0700                 1.0916
 Frc consts  --      5.8720                 5.9147                 6.1500
 IR Inten    --     40.1512                27.2900                15.4488

                     82                     83                     84
                      A                      A                      A
 Frequencies --   3100.9985              3104.0548              3113.7141
 Red. masses --      1.0981                 1.1015                 1.1007
 Frc consts  --      6.2215                 6.2530                 6.2877
 IR Inten    --     18.8419                42.6397                34.2910

                     85                     86                     87
                      A                      A                      A
 Frequencies --   3152.9897              3186.4697              3193.6739
 Red. masses --      1.0906                 1.0858                 1.0879
 Frc consts  --      6.3879                 6.4958                 6.5373
 IR Inten    --     15.6096                 4.9156                 0.9423

                     88                     89                     90
                      A                      A                      A
 Frequencies --   3202.4982              3212.2321              3219.4323
 Red. masses --      1.0922                 1.0942                 1.0972
 Frc consts  --      6.6000                 6.6522                 6.7004
 IR Inten    --     20.7928                23.7190                 6.9669

                     91                     92                     93
                      A                      A                      A
 Frequencies --   3468.4588              3550.4349              3572.4883
 Red. masses --      1.0499                 1.0919                 1.0752
 Frc consts  --      7.4418                 8.1097                 8.0847
 IR Inten    --      2.4422                 0.6433                23.6631

 - Thermochemistry -
 -------------------
 Temperature   298.150 Kelvin.  Pressure   1.00000 Atm.
 Atom     1 has atomic number  6 and mass  12.00000

 Molecular mass:   206.14191 amu.
 Principal axes and moments of inertia in atomic units:
                           1         2         3
     Eigenvalues --  2266.096614362.686655048.14023
           X            0.99995  -0.00970   0.00181
           Y            0.00961   0.99897   0.04435
           Z           -0.00223  -0.04433   0.99901
 This molecule is an asymmetric top.
 Rotational symmetry number  1.
 Warning -- assumption of classical behavior for rotation
           may cause significant error
 Rotational temperatures (Kelvin)      0.03822     0.01985     0.01716
 Rotational constants (GHZ):           0.79641     0.41368     0.35751
 Zero-point vibrational energy     758175.1 (Joules/Mol)
                                  181.20820 (Kcal/Mol)
 Warning -- explicit consideration of  22 degrees of freedom as
           vibrations may cause significant error
 Vibrational temperatures:     14.42    37.99    71.44   112.06   141.56
          (Kelvin)            153.03   172.71   291.90   326.95   350.09
                              388.83   413.79   477.32   524.02   554.95
                              570.26   609.92   614.94   697.63   759.10
                              787.98   864.29   913.44   944.23  1003.73
                             1040.74  1088.53  1116.97  1158.12  1224.70
                             1249.93  1288.21  1302.51  1329.99  1356.97
                             1383.82  1390.98  1414.34  1430.15  1468.14
                             1471.62  1524.21  1551.37  1576.94  1597.74
                             1617.68  1669.79  1717.72  1739.12  1755.18
                             1794.58  1803.59  1823.88  1888.48  1925.41
                             1932.73  1964.57  1970.04  2005.42  2016.90
                             2056.18  2066.33  2092.45  2098.15  2169.14
                             2180.28  2183.47  2197.15  2210.90  2224.51
                             2230.53  2370.99  2394.19  2446.11  2569.07
                             4281.89  4370.25  4376.71  4389.15  4407.04
                             4449.15  4461.65  4466.04  4479.94  4536.45
                             4584.62  4594.98  4607.68  4621.69  4632.05
                             4990.34  5108.28  5140.01

 Zero-point correction=                           0.288774 (Hartree/Particle)
 Thermal correction to Energy=                    0.304040
 Thermal correction to Enthalpy=                  0.304985
 Thermal correction to Gibbs Free Energy=         0.243914
 Sum of electronic and zero-point Energies=           -652.624735
 Sum of electronic and thermal Energies=              -652.609468
 Sum of electronic and thermal Enthalpies=            -652.608524
 Sum of electronic and thermal Free Energies=         -652.669594

                     E (Thermal)             CV                S
                      KCal/Mol        Cal/Mol-Kelvin    Cal/Mol-Kelvin
 Total                  190.788             57.664            128.534
 Electronic               0.000              0.000              0.000
 Translational            0.889              2.981             41.874
 Rotational               0.889              2.981             32.279
 Vibrational            189.011             51.703             54.381
 Vibration     1          0.593              1.987              8.007
 Vibration     2          0.593              1.985              6.083
 Vibration     3          0.595              1.978              4.831
 Vibration     4          0.599              1.964              3.943
 Vibration     5          0.604              1.950              3.486
 Vibration     6          0.605              1.944              3.334
 Vibration     7          0.609              1.933              3.100
 Vibration     8          0.639              1.836              2.107
 Vibration     9          0.651              1.799              1.901
 Vibration    10          0.659              1.774              1.778
 Vibration    11          0.674              1.728              1.595
 Vibration    12          0.685              1.697              1.488
 Vibration    13          0.714              1.612              1.252
 Vibration    14          0.738              1.546              1.104
 Vibration    15          0.754              1.501              1.017
 Vibration    16          0.763              1.478              0.976
 Vibration    17          0.786              1.418              0.879
 Vibration    18          0.789              1.411              0.867
 Vibration    19          0.841              1.284              0.697
 Vibration    20          0.883              1.189              0.593
 Vibration    21          0.903              1.145              0.549
 Vibration    22          0.959              1.030              0.448

 Optimization completed.
    -- Stationary point found.
 Normal termination of Gaussian 16 at Thu Dec 10 15:19:50 2020.

 ----------------------------------------------------------------------
 # B3LYP/6-311++G(d,p) empiricaldispersion=gd3bj scf=xqc pop=npa geom=c
 heck
 ----------------------------------------------------------------------

 --------------------------------------
 CID_82682627_JID_5007_Energie_neutraal
 --------------------------------------
 Structure from the checkpoint file:  "JID_5007.chk"
 Charge =  0 Multiplicity = 1

 SCF Done:  E(RB3LYP) =  -653.106145577     A.U. after   15 cycles
 Normal termination of Gaussian 16 at Thu Dec 10 15:24:19 2020.

 ----------------------------------------------------------------------
 # B3LYP/6-311++G(d,p) empiricaldispersion=gd3bj scf=xqc pop=npa geom=c
 heck
 ----------------------------------------------------------------------

 ------------------------------------
 CID_82682627_JID_5007_Energie_kation
 ------------------------------------
 Structure from the checkpoint file:  "JID_5007.chk"
 Charge =  1 Multiplicity = 2

 SCF Done:  E(UB3LYP) =  -652.802172957     A.U. after   27 cycles
 Normal termination of Gaussian 16 at Thu Dec 10 15:35:57 2020.
 Gaussian 16:  ES64L-G16RevA.03 25-Dec-2016

 ----------------------------------------------------------------------
 # B3LYP/6-311++G(d,p) empiricaldispersion=gd3bj scf=xqc pop=npa geom=c
 heck
 ----------------------------------------------------------------------

 -----------------------------------
 CID_82682627_JID_5007_Energie_anion
 -----------------------------------
 Structure from the checkpoint file:  "JID_5007.chk"
 Charge = -1 Multiplicity = 2

                         Standard orientation:
 ---------------------------------------------------------------------
 Center     Atomic      Atomic             Coordinates (Angstroms)
 Number     Number       Type             X           Y           Z
 ---------------------------------------------------------------------
      1          6           0       -1.358317    1.605011   -1.538229
      2          6           0       -2.374860    0.705731   -0.818736
      3          6           0       -2.253144   -0.770909   -1.246501
      4          6           0       -0.882390   -1.430995   -1.012493
      5          6           0       -0.661203   -1.776552    0.451469
      6          8           0       -1.506931   -2.366591    1.109640
      7          7           0        0.531838   -1.404175    1.049669
      8          6           0        1.564128   -0.572802    0.545361
      9          6           0        2.282384   -0.928288   -0.602359
     10          6           0        3.286260   -0.090293   -1.084997
     11          6           0        3.607480    1.088443   -0.410118
     12          6           0        2.913071    1.428435    0.751911
     13          6           0        1.890035    0.607849    1.224104
     14          6           0       -2.306417    0.896321    0.703622
     15          7           0       -2.716921    2.257068    1.079324
     16          1           0       -0.337228    1.435825   -1.173328
     17          1           0       -1.595808    2.663506   -1.387323
     18          1           0       -1.362127    1.422087   -2.619356
     19          1           0       -3.379384    1.034947   -1.116491
     20          1           0       -3.012163   -1.369098   -0.730962
     21          1           0       -2.472027   -0.830055   -2.319990
     22          1           0       -0.851672   -2.382327   -1.558609
     23          1           0       -0.081432   -0.808800   -1.412235
     24          1           0        0.510423   -1.554000    2.052431
     25          1           0        2.055326   -1.864170   -1.102233
     26          1           0        3.831508   -0.370838   -1.981489
     27          1           0        4.396918    1.733779   -0.783293
     28          1           0        3.158182    2.341589    1.286643
     29          1           0        1.330024    0.880232    2.114499
     30          1           0       -2.994311    0.192356    1.183862
     31          1           0       -1.293789    0.637992    1.058775
     32          1           0       -2.815837    2.312213    2.091520
     33          1           0       -1.977720    2.915529    0.839305
 ---------------------------------------------------------------------

 SCF Done:  E(UB3LYP) =  -653.096232863     A.U. after   33 cycles
 SCF Done:  E(UB3LYP) =  -653.096237775     a.u. after    4 cycles

 The electronic state is 2-A.
 Alpha  occ. eigenvalues --  -19.00179 -14.25494 -14.19675 -10.18847 -10.12964
 Alpha  occ. eigenvalues --  -10.09169 -10.08763 -10.08709 -10.08615 -10.08585
 Alpha  occ. eigenvalues --  -10.08447 -10.08228 -10.08019 -10.07894 -10.06435
 Alpha  occ. eigenvalues --   -0.95444  -0.84733  -0.78813  -0.75936  -0.71666
 Alpha  occ. eigenvalues --   -0.66273  -0.65730  -0.64987  -0.58256  -0.56261
 Alpha  occ. eigenvalues --   -0.53061  -0.52421  -0.48309  -0.45732  -0.44370
 Alpha  occ. eigenvalues --   -0.40643  -0.40038  -0.39900  -0.39188  -0.36844
 Alpha  occ. eigenvalues --   -0.35406  -0.34452  -0.33916  -0.33511  -0.32487
 Alpha  occ. eigenvalues --   -0.31787  -0.31582  -0.29474  -0.28787  -0.27646
 Alpha  occ. eigenvalues --   -0.27524  -0.26539  -0.26055  -0.23585  -0.23263
 Alpha  occ. eigenvalues --   -0.22999  -0.20272  -0.17521  -0.16831  -0.14918
 Alpha  occ. eigenvalues --   -0.14490   0.04058
 Alpha virt. eigenvalues --    0.05915   0.06500   0.06889   0.07198   0.07709
 Alpha virt. eigenvalues --    0.07894   0.08998   0.09263   0.09809   0.10159
 Alpha virt. eigenvalues --    0.10331   0.11131   0.11528   0.12493   0.13103

  Beta  occ. eigenvalues --  -19.00178 -14.25485 -14.19644 -10.18847 -10.12964
  Beta  occ. eigenvalues --  -10.09157 -10.08755 -10.08687 -10.08594 -10.08562
  Beta  occ. eigenvalues --  -10.08417 -10.08211 -10.08015 -10.07893 -10.06418
  Beta  occ. eigenvalues --   -0.95440  -0.84716  -0.78765  -0.75893  -0.71647
  Beta  occ. eigenvalues --   -0.66225  -0.65689  -0.64952  -0.58224  -0.56226
  Beta  occ. eigenvalues --   -0.53023  -0.52356  -0.48275  -0.45692  -0.44325
  Beta  occ. eigenvalues --   -0.40614  -0.39999  -0.39862  -0.39157  -0.36806
  Beta  occ. eigenvalues --   -0.35358  -0.34426  -0.33878  -0.33456  -0.32460
  Beta  occ. eigenvalues --   -0.31769  -0.31564  -0.29446  -0.28767  -0.27602
  Beta  occ. eigenvalues --   -0.27495  -0.26514  -0.26007  -0.23567  -0.23249
  Beta  occ. eigenvalues --   -0.22986  -0.20248  -0.17514  -0.16776  -0.14887
  Beta  occ. eigenvalues --   -0.14467
  Beta virt. eigenvalues --    0.06198   0.06496   0.07166   0.07275   0.07460
  Beta virt. eigenvalues --    0.08032   0.08724   0.09258   0.09608   0.10225
  Beta virt. eigenvalues --    0.10409   0.10598   0.11436   0.11665   0.12754

 Mulliken charges and spin densities:
               1          2
     1  C   -0.333336  -0.330199
     2  C    0.148388   0.372496
     3  C   -0.326972  -0.345797
     4  C    0.170446  -0.040999
     5  C   -0.170879  -0.222066
     6  O   -0.296911   0.023198
     7  N   -0.056871  -0.024986
     8  C    0.799057  -0.845952
     9  C   -0.112359   0.119452
    10  C   -0.554768   0.292845
    11  C    2.045904  -2.330465
    12  C    0.277609  -0.585201
    13  C   -0.729583   0.738120
    14  C   -0.250502  -0.421558
    15  N   -0.376101   0.013819
    16  H    0.351448  -0.189058
    17  H   -0.043691   0.162838
    18  H   -0.075922   0.206498
    19  H    0.192227   0.010963
    20  H    0.181898   0.002249
    21  H    0.089091   0.056065
    22  H    0.010516   0.201703
    23  H    0.200847  -0.032454
    24  H    0.220032   0.084990
    25  H   -0.065632   0.248423
    26  H   -0.843116   1.034857
    27  H   -0.255063   0.426936
    28  H   -0.901348   1.100238
    29  H   -0.538738   0.726400
    30  H    0.090824   0.090701
    31  H    0.090227   0.054118
    32  H   -0.012918   0.254101
    33  H    0.076198   0.147723
 Sum of Mulliken charges =  -1.00000   1.00000

 Dipole moment (field-independent basis, Debye):
    X=             -4.3587    Y=             -3.5873    Z=             -1.5280  Tot=              5.8482
 Quadrupole moment (field-independent basis, Debye-Ang):
   XX=           -165.1734   YY=           -143.9868   ZZ=           -132.5872
   XY=             -7.0758   XZ=             10.0101   YZ=             -5.5746

 Summary of Natural Population Analysis:

                                       Natural Population
                Natural  -----------------------------------------------
    Atom  No    Charge         Core      Valence    Rydberg      Total
 -----------------------------------------------------------------------
      C    1   -0.29247      0.99965     2.28706    0.00576     3.29247
      C    2   -0.11568      0.99960     2.10586    0.01023     3.11568
      C    3   -0.18271      0.99961     2.17508    0.00802     3.18271
      C    4   -0.24144      0.99957     2.23318    0.00869     3.24144
      C    5    0.35073      0.99966     1.62736    0.02225     2.64927
      O    6   -0.32398      0.99988     3.31838    0.00573     4.32398
      N    7   -0.31768      0.99964     2.80715    0.01089     3.81768
      C    8    0.06616      0.99946     1.92199    0.01240     2.93384
      C    9   -0.10897      0.99951     2.09953    0.00993     3.10897
      C   10   -0.09460      0.99956     2.08419    0.01084     3.09460
      C   11   -0.10088      0.99956     2.09124    0.01008     3.10088
      C   12   -0.09075      0.99956     2.08008    0.01111     3.09075
      C   13   -0.10670      0.99951     2.09614    0.01105     3.10670
      C   14   -0.09096      0.99960     2.08027    0.01109     3.09096
      N   15   -0.42327      0.99977     2.91371    0.00979     3.92327
      H   16    0.10091      0.00000     0.39772    0.00137     0.39909
      H   17    0.10133      0.00000     0.39779    0.00089     0.39867
      H   18    0.09784      0.00000     0.40126    0.00090     0.40216
      H   19    0.09751      0.00000     0.40075    0.00174     0.40249
      H   20    0.10584      0.00000     0.39292    0.00124     0.39416
      H   21    0.09668      0.00000     0.40239    0.00093     0.40332
      H   22    0.11237      0.00000     0.38659    0.00104     0.38763
      H   23    0.11006      0.00000     0.38792    0.00201     0.38994
      H   24    0.19792      0.00000     0.29975    0.00232     0.30208
      H   25    0.10545      0.00000     0.39275    0.00180     0.39455
      H   26    0.10470      0.00000     0.39320    0.00210     0.39530
      H   27    0.10490      0.00000     0.39318    0.00192     0.39510
      H   28    0.10664      0.00000     0.39031    0.00305     0.39336
      H   29    0.10693      0.00000     0.39036    0.00272     0.39307
      H   30    0.09416      0.00000     0.40480    0.00104     0.40584
      H   31    0.07983      0.00000     0.41695    0.00323     0.42017
      H   32    0.17592      0.00000     0.32246    0.00162     0.32408
      H   33    0.17421      0.00000     0.32395    0.00184     0.32579
 =======================================================================
   * Total *   -0.00000     14.99413    40.81626    0.18961    56.00000

 Normal termination of Gaussian 16 at Thu Dec 10 16:23:24 2020.
