 Gaussian 16, Revision A.03,

 -----------------------------------------------------------
 # opt freq B3LYP/6-31G(d) empiricaldispersion=gd3bj scf=xqc
 -----------------------------------------------------------

 --------------------------------
 CID_126798782_JID_10954_neutraal
 --------------------------------
 Symbolic Z-matrix:
 Charge =  0 Multiplicity = 1

 SCF Done:  E(RB3LYP) =  -953.452803708     A.U. after   15 cycles
 SCF Done:  E(RB3LYP) =  -953.460783414     A.U. after   12 cycles
 SCF Done:  E(RB3LYP) =  -953.460898774     A.U. after   12 cycles
 SCF Done:  E(RB3LYP) =  -953.462075251     A.U. after   12 cycles
 SCF Done:  E(RB3LYP) =  -953.462188750     A.U. after   11 cycles
 SCF Done:  E(RB3LYP) =  -953.462272853     A.U. after   11 cycles
 SCF Done:  E(RB3LYP) =  -953.462305553     A.U. after   10 cycles
 SCF Done:  E(RB3LYP) =  -953.462336276     A.U. after   10 cycles
 SCF Done:  E(RB3LYP) =  -953.462353333     A.U. after   10 cycles
 SCF Done:  E(RB3LYP) =  -953.462370437     A.U. after   10 cycles
 SCF Done:  E(RB3LYP) =  -953.462502264     A.U. after    6 cycles
 SCF Done:  E(RB3LYP) =  -953.462502337     A.U. after    7 cycles
 SCF Done:  E(RB3LYP) =  -953.462502412     A.U. after    7 cycles
 SCF Done:  E(RB3LYP) =  -953.462502484     A.U. after    6 cycles
 SCF Done:  E(RB3LYP) =  -953.462502520     A.U. after    6 cycles
 Optimization completed.
    -- Stationary point found.
 Normal termination of Gaussian 16 at Sat Dec 12 17:03:14 2020.

 --------------------------------------------------------------------
 #N Geom=AllCheck Guess=TCheck SCRF=Check GenChk RB3LYP/6-31G(d) Freq
 --------------------------------------------------------------------

 Structure from the checkpoint file:  "JID_10954.chk"
 --------------------------------
 CID_126798782_JID_10954_neutraal
 --------------------------------
 Charge =  0 Multiplicity = 1

 SCF Done:  E(RB3LYP) =  -953.462502520     A.U. after    1 cycles

  Exact polarizability: 218.562   3.301 154.105   4.297   5.438 129.835
 Approx polarizability: 255.462  10.707 244.549  10.546  21.491 206.866

                      1                      2                      3
                      A                      A                      A
 Frequencies --     28.1105                40.4122                49.8844
 Red. masses --      4.6126                 4.6334                 3.5265
 Frc consts  --      0.0021                 0.0045                 0.0052
 IR Inten    --      0.7650                 0.7778                 0.2315

                      4                      5                      6
                      A                      A                      A
 Frequencies --     60.6113                68.9859                96.9099
 Red. masses --      1.0856                 3.8134                 4.3624
 Frc consts  --      0.0023                 0.0107                 0.0241
 IR Inten    --      0.0495                 1.0473                 0.6614

                      7                      8                      9
                      A                      A                      A
 Frequencies --    107.6818               122.4297               129.5927
 Red. masses --      2.8722                 4.2595                 3.8471
 Frc consts  --      0.0196                 0.0376                 0.0381
 IR Inten    --      0.6669                 3.3924                 1.5869

                     10                     11                     12
                      A                      A                      A
 Frequencies --    153.1556               164.5056               182.6118
 Red. masses --      5.8273                 1.5695                 3.7983
 Frc consts  --      0.0805                 0.0250                 0.0746
 IR Inten    --      2.5589                 0.9519                 4.0175

                     13                     14                     15
                      A                      A                      A
 Frequencies --    204.4035               215.4934               225.8836
 Red. masses --      2.4786                 1.6251                 2.7828
 Frc consts  --      0.0610                 0.0445                 0.0837
 IR Inten    --      1.6145                 0.5902                 4.5757

                     16                     17                     18
                      A                      A                      A
 Frequencies --    234.8740               271.7830               286.6369
 Red. masses --      1.8138                 3.1306                 2.6123
 Frc consts  --      0.0590                 0.1362                 0.1265
 IR Inten    --      0.4267                 4.2906                 5.3842

                     19                     20                     21
                      A                      A                      A
 Frequencies --    304.7711               338.6778               348.8871
 Red. masses --      2.6360                 2.5146                 2.8822
 Frc consts  --      0.1443                 0.1699                 0.2067
 IR Inten    --      8.1398                 5.4525                 4.1449

                     22                     23                     24
                      A                      A                      A
 Frequencies --    375.9634               397.7011               406.5579
 Red. masses --      3.6809                 3.2228                 1.9831
 Frc consts  --      0.3065                 0.3003                 0.1931
 IR Inten    --      5.0250                16.5903                 5.9078

                     25                     26                     27
                      A                      A                      A
 Frequencies --    421.4951               438.1756               452.5502
 Red. masses --      1.6615                 2.6554                 2.3025
 Frc consts  --      0.1739                 0.3004                 0.2778
 IR Inten    --     94.3562                29.0590                10.0289

                     28                     29                     30
                      A                      A                      A
 Frequencies --    495.9834               498.5609               560.6785
 Red. masses --      3.2406                 3.4340                 3.2535
 Frc consts  --      0.4697                 0.5029                 0.6026
 IR Inten    --     17.0424                 1.2115                 5.0657

                     31                     32                     33
                      A                      A                      A
 Frequencies --    592.0465               629.7075               634.4794
 Red. masses --      4.3702                 3.5456                 5.1500
 Frc consts  --      0.9025                 0.8284                 1.2215
 IR Inten    --      5.0006                 8.7347                 6.7144

                     34                     35                     36
                      A                      A                      A
 Frequencies --    710.5497               728.8527               736.2714
 Red. masses --      4.5123                 5.0352                 5.5362
 Frc consts  --      1.3423                 1.5760                 1.7682
 IR Inten    --      5.6352                 3.0034                 4.5061

                     37                     38                     39
                      A                      A                      A
 Frequencies --    744.7582               760.5985               783.3030
 Red. masses --      4.2094                 6.5195                 3.5576
 Frc consts  --      1.3756                 2.2222                 1.2861
 IR Inten    --     16.1299                20.8709                 7.5653

                     40                     41                     42
                      A                      A                      A
 Frequencies --    788.8129               810.1302               828.5910
 Red. masses --      1.2706                 1.3588                 1.5714
 Frc consts  --      0.4658                 0.5254                 0.6356
 IR Inten    --      3.6814                18.4027                 1.1726

                     43                     44                     45
                      A                      A                      A
 Frequencies --    863.8352               899.8558               954.4531
 Red. masses --      2.7379                 3.4068                 2.1229
 Frc consts  --      1.2037                 1.6253                 1.1394
 IR Inten    --      0.6731                 7.2531                 4.0457

                     46                     47                     48
                      A                      A                      A
 Frequencies --    978.8466               982.6871               992.1162
 Red. masses --      2.1827                 2.1818                 2.2672
 Frc consts  --      1.2322                 1.2413                 1.3148
 IR Inten    --      1.6255                54.0252                13.8530

                     49                     50                     51
                      A                      A                      A
 Frequencies --   1015.7165              1034.9773              1042.4158
 Red. masses --      2.3289                 2.5403                 1.7036
 Frc consts  --      1.4156                 1.6032                 1.0907
 IR Inten    --      5.5942                11.2138                 4.5725

                     52                     53                     54
                      A                      A                      A
 Frequencies --   1063.3776              1096.8349              1102.1878
 Red. masses --      2.1903                 2.1513                 1.9752
 Frc consts  --      1.4592                 1.5249                 1.4138
 IR Inten    --     70.9189                 7.1399                15.7224

                     55                     56                     57
                      A                      A                      A
 Frequencies --   1117.4331              1138.3911              1141.7745
 Red. masses --      1.8201                 1.6919                 3.0015
 Frc consts  --      1.3390                 1.2918                 2.3054
 IR Inten    --     18.2414                34.5731                 7.9570

                     58                     59                     60
                      A                      A                      A
 Frequencies --   1153.9640              1170.1296              1173.1923
 Red. masses --      3.0723                 1.2987                 2.8251
 Frc consts  --      2.4105                 1.0477                 2.2910
 IR Inten    --      2.5652                 2.3438                18.9584

                     61                     62                     63
                      A                      A                      A
 Frequencies --   1202.6460              1215.4991              1236.2034
 Red. masses --      3.0366                 1.6058                 1.8444
 Frc consts  --      2.5877                 1.3978                 1.6606
 IR Inten    --     82.1683                46.3460                39.0975

                     64                     65                     66
                      A                      A                      A
 Frequencies --   1250.3111              1254.7165              1293.9633
 Red. masses --      2.4983                 2.3660                 1.5554
 Frc consts  --      2.3011                 2.1946                 1.5344
 IR Inten    --     49.8045                 5.5797               136.8385

                     67                     68                     69
                      A                      A                      A
 Frequencies --   1300.6113              1313.1670              1339.6844
 Red. masses --      1.7441                 1.9379                 2.2900
 Frc consts  --      1.7383                 1.9689                 2.4215
 IR Inten    --     58.5628                97.9128                48.2063

                     70                     71                     72
                      A                      A                      A
 Frequencies --   1348.2601              1366.3570              1380.8629
 Red. masses --      1.2591                 1.4204                 1.5174
 Frc consts  --      1.3486                 1.5624                 1.7047
 IR Inten    --     22.0571                 0.1900                73.9278

                     73                     74                     75
                      A                      A                      A
 Frequencies --   1386.2474              1391.3128              1399.2254
 Red. masses --      1.3622                 1.4789                 1.2666
 Frc consts  --      1.5424                 1.6867                 1.4610
 IR Inten    --      9.6542                73.5596                16.6884

                     76                     77                     78
                      A                      A                      A
 Frequencies --   1420.0521              1424.5759              1429.1392
 Red. masses --      1.3324                 1.5775                 1.9490
 Frc consts  --      1.5831                 1.8862                 2.3454
 IR Inten    --     18.3294                85.8041                99.0837

                     79                     80                     81
                      A                      A                      A
 Frequencies --   1435.4924              1440.7110              1445.4414
 Red. masses --      1.3236                 2.0805                 1.2585
 Frc consts  --      1.6069                 2.5444                 1.5492
 IR Inten    --      6.4946                99.3043                20.7198

                     82                     83                     84
                      A                      A                      A
 Frequencies --   1464.8465              1488.6292              1497.3082
 Red. masses --      2.1616                 1.9619                 1.0929
 Frc consts  --      2.7328                 2.5615                 1.4437
 IR Inten    --    253.5810               186.4427                 3.1361

                     85                     86                     87
                      A                      A                      A
 Frequencies --   1507.5297              1511.6094              1519.0515
 Red. masses --      1.0884                 1.0935                 1.0502
 Frc consts  --      1.4573                 1.4722                 1.4278
 IR Inten    --     18.2487                 7.7920                10.6584

                     88                     89                     90
                      A                      A                      A
 Frequencies --   1519.6756              1523.6637              1524.6755
 Red. masses --      1.0566                 1.0606                 1.0613
 Frc consts  --      1.4376                 1.4508                 1.4536
 IR Inten    --      8.7704                 0.6682                14.6935

                     91                     92                     93
                      A                      A                      A
 Frequencies --   1531.5198              1537.2306              1539.9386
 Red. masses --      1.0782                 1.0716                 1.0628
 Frc consts  --      1.4901                 1.4919                 1.4850
 IR Inten    --      2.8957                11.6348                 6.0538

                     94                     95                     96
                      A                      A                      A
 Frequencies --   1544.4948              1549.9907              1747.4143
 Red. masses --      1.0950                 1.0771                10.4934
 Frc consts  --      1.5390                 1.5247                18.8781
 IR Inten    --     18.0399                 3.1033               273.8567

                     97                     98                     99
                      A                      A                      A
 Frequencies --   1820.0599              1879.8881              2965.9653
 Red. masses --     12.3342                10.8823                 1.0757
 Frc consts  --     24.0731                22.6586                 5.5754
 IR Inten    --    659.9695               247.4424                31.2739

                    100                    101                    102
                      A                      A                      A
 Frequencies --   2972.9401              3030.2333              3057.0845
 Red. masses --      1.0748                 1.0729                 1.0381
 Frc consts  --      5.5967                 5.8043                 5.7162
 IR Inten    --     83.4041                27.2396                19.9050

                    103                    104                    105
                      A                      A                      A
 Frequencies --   3058.0393              3066.6872              3071.2690
 Red. masses --      1.0367                 1.0600                 1.0599
 Frc consts  --      5.7121                 5.8735                 5.8906
 IR Inten    --     23.2638                21.9164                 5.9772

                    106                    107                    108
                      A                      A                      A
 Frequencies --   3075.3236              3076.7169              3113.0614
 Red. masses --      1.0335                 1.0657                 1.1014
 Frc consts  --      5.7587                 5.9438                 6.2889
 IR Inten    --     35.8699                38.0631                24.9217

                    109                    110                    111
                      A                      A                      A
 Frequencies --   3116.5159              3120.6618              3122.2653
 Red. masses --      1.1049                 1.1053                 1.0997
 Frc consts  --      6.3227                 6.3422                 6.3161
 IR Inten    --     12.1548                29.7705                17.0244

                    112                    113                    114
                      A                      A                      A
 Frequencies --   3127.4536              3140.5359              3140.7773
 Red. masses --      1.1015                 1.1054                 1.0973
 Frc consts  --      6.3480                 6.4238                 6.3777
 IR Inten    --     39.3541                14.4512                17.4532

                    115                    116                    117
                      A                      A                      A
 Frequencies --   3149.8371              3154.2866              3159.5829
 Red. masses --      1.0930                 1.0886                 1.1022
 Frc consts  --      6.3891                 6.3815                 6.4828
 IR Inten    --     25.9297                 5.9815                20.5706

                    118                    119                    120
                      A                      A                      A
 Frequencies --   3183.9607              3185.3842              3648.0937
 Red. masses --      1.1039                 1.0860                 1.0781
 Frc consts  --      6.5936                 6.4926                 8.4536
 IR Inten    --      0.4784                 7.8219                33.1281

 - Thermochemistry -
 -------------------
 Temperature   298.150 Kelvin.  Pressure   1.00000 Atm.
 Atom     1 has atomic number  6 and mass  12.00000

 Molecular mass:   282.16919 amu.
 Principal axes and moments of inertia in atomic units:
                           1         2         3
     Eigenvalues --  2125.84320********************
           X            0.99998   0.00495  -0.00329
           Y           -0.00515   0.99808  -0.06165
           Z            0.00297   0.06167   0.99809
 This molecule is an asymmetric top.
 Rotational symmetry number  1.
 Warning -- assumption of classical behavior for rotation
           may cause significant error
 Rotational temperatures (Kelvin)      0.04074     0.00745     0.00699
 Rotational constants (GHZ):           0.84895     0.15514     0.14573
 Zero-point vibrational energy     951467.5 (Joules/Mol)
                                  227.40618 (Kcal/Mol)
 Warning -- explicit consideration of  31 degrees of freedom as
           vibrations may cause significant error
 Vibrational temperatures:     40.44    58.14    71.77    87.21    99.26
          (Kelvin)            139.43   154.93   176.15   186.46   220.36
                              236.69   262.74   294.09   310.05   325.00
                              337.93   391.04   412.41   438.50   487.28
                              501.97   540.93   572.20   584.95   606.44
                              630.44   651.12   713.61   717.32   806.69
                              851.82   906.01   912.87  1022.32  1048.66
                             1059.33  1071.54  1094.33  1127.00  1134.93
                             1165.60  1192.16  1242.87  1294.69  1373.25
                             1408.34  1413.87  1427.43  1461.39  1489.10
                             1499.80  1529.96  1578.10  1585.80  1607.74
                             1637.89  1642.76  1660.30  1683.56  1687.96
                             1730.34  1748.83  1778.62  1798.92  1805.26
                             1861.72  1871.29  1889.35  1927.51  1939.85
                             1965.88  1986.75  1994.50  2001.79  2013.17
                             2043.14  2049.65  2056.21  2065.35  2072.86
                             2079.67  2107.59  2141.81  2154.29  2169.00
                             2174.87  2185.58  2186.47  2192.21  2193.67
                             2203.52  2211.73  2215.63  2222.18  2230.09
                             2514.14  2618.66  2704.74  4267.36  4277.40
                             4359.83  4398.46  4399.84  4412.28  4418.87
                             4424.70  4426.71  4479.00  4483.97  4489.94
                             4492.24  4499.71  4518.53  4518.88  4531.91
                             4538.31  4545.94  4581.01  4583.06  5248.79

 Zero-point correction=                           0.362395 (Hartree/Particle)
 Thermal correction to Energy=                    0.382765
 Thermal correction to Enthalpy=                  0.383709
 Thermal correction to Gibbs Free Energy=         0.312741
 Sum of electronic and zero-point Energies=           -953.100108
 Sum of electronic and thermal Energies=              -953.079737
 Sum of electronic and thermal Enthalpies=            -953.078793
 Sum of electronic and thermal Free Energies=         -953.149762

                     E (Thermal)             CV                S
                      KCal/Mol        Cal/Mol-Kelvin    Cal/Mol-Kelvin
 Total                  240.189             76.196            149.366
 Electronic               0.000              0.000              0.000
 Translational            0.889              2.981             42.810
 Rotational               0.889              2.981             34.081
 Vibrational            238.411             70.235             72.474
 Vibration     1          0.593              1.984              5.958
 Vibration     2          0.594              1.981              5.239
 Vibration     3          0.595              1.978              4.822
 Vibration     4          0.597              1.973              4.437
 Vibration     5          0.598              1.969              4.182
 Vibration     6          0.603              1.951              3.516
 Vibration     7          0.606              1.943              3.310
 Vibration     8          0.610              1.930              3.062
 Vibration     9          0.612              1.924              2.952
 Vibration    10          0.619              1.899              2.633
 Vibration    11          0.623              1.886              2.497
 Vibration    12          0.630              1.863              2.302
 Vibration    13          0.640              1.834              2.093
 Vibration    14          0.645              1.817              1.997
 Vibration    15          0.650              1.802              1.911
 Vibration    16          0.655              1.787              1.841
 Vibration    17          0.675              1.725              1.585
 Vibration    18          0.684              1.699              1.494
 Vibration    19          0.696              1.665              1.391
 Vibration    20          0.719              1.598              1.218
 Vibration    21          0.726              1.578              1.171
 Vibration    22          0.747              1.521              1.055
 Vibration    23          0.764              1.475              0.971
 Vibration    24          0.771              1.456              0.939
 Vibration    25          0.784              1.424              0.887
 Vibration    26          0.798              1.387              0.832
 Vibration    27          0.811              1.355              0.788
 Vibration    28          0.852              1.259              0.668
 Vibration    29          0.854              1.253              0.662
 Vibration    30          0.916              1.116              0.522
 Vibration    31          0.950              1.049              0.464

 Optimization completed.
    -- Stationary point found.
 Normal termination of Gaussian 16 at Sat Dec 12 17:28:06 2020.

 ----------------------------------------------------------------------
 # B3LYP/6-311++G(d,p) empiricaldispersion=gd3bj scf=xqc pop=npa geom=c
 heck
 ----------------------------------------------------------------------

 ----------------------------------------
 CID_126798782_JID_10954_Energie_neutraal
 ----------------------------------------
 Structure from the checkpoint file:  "JID_10954.chk"
 Charge =  0 Multiplicity = 1

 SCF Done:  E(RB3LYP) =  -953.735623529     A.U. after   15 cycles
 Normal termination of Gaussian 16 at Sat Dec 12 17:39:44 2020.

 ----------------------------------------------------------------------
 # B3LYP/6-311++G(d,p) empiricaldispersion=gd3bj scf=xqc pop=npa geom=c
 heck
 ----------------------------------------------------------------------

 --------------------------------------
 CID_126798782_JID_10954_Energie_kation
 --------------------------------------
 Structure from the checkpoint file:  "JID_10954.chk"
 Charge =  1 Multiplicity = 2

 SCF Done:  E(UB3LYP) =  -953.427233815     A.U. after   30 cycles
 Normal termination of Gaussian 16 at Sat Dec 12 18:12:30 2020.
 Gaussian 16:  ES64L-G16RevA.03 25-Dec-2016

 ----------------------------------------------------------------------
 # B3LYP/6-311++G(d,p) empiricaldispersion=gd3bj scf=xqc pop=npa geom=c
 heck
 ----------------------------------------------------------------------

 -------------------------------------
 CID_126798782_JID_10954_Energie_anion
 -------------------------------------
 Structure from the checkpoint file:  "JID_10954.chk"
 Charge = -1 Multiplicity = 2

                         Standard orientation:
 ---------------------------------------------------------------------
 Center     Atomic      Atomic             Coordinates (Angstroms)
 Number     Number       Type             X           Y           Z
 ---------------------------------------------------------------------
      1          6           0        5.525358   -0.581817    0.872804
      2          6           0        4.782193   -0.332094   -0.441685
      3          7           0        3.394558    0.114228   -0.267636
      4          6           0        3.208142    1.511433    0.137982
      5          6           0        3.424196    2.517742   -0.993789
      6          6           0        2.483371   -0.878430    0.041641
      7          8           0        2.820995   -2.042873    0.241313
      8          7           0        1.138470   -0.475942    0.129163
      9          6           0        0.235950   -1.478389    0.692144
     10          6           0       -1.028422   -0.794900    1.213728
     11          6           0       -1.727550    0.028764    0.113676
     12          6           0       -0.717900    0.992438   -0.533212
     13          6           0        0.530902    0.245201   -0.994115
     14          6           0       -2.909668    0.807376    0.706135
     15          8           0       -2.845549    1.698480    1.531166
     16          7           0       -4.052236    0.301492    0.133864
     17          6           0       -3.774686   -0.733437   -0.788945
     18          8           0       -4.605864   -1.394391   -1.377198
     19          7           0       -2.405833   -0.809963   -0.875341
     20          6           0       -5.395611    0.751746    0.443305
     21          1           0        5.568758    0.319600    1.494477
     22          1           0        6.555951   -0.893692    0.669063
     23          1           0        5.025694   -1.374419    1.434318
     24          1           0        5.298450    0.427728   -1.037762
     25          1           0        4.756914   -1.251870   -1.028893
     26          1           0        2.206459    1.608441    0.558404
     27          1           0        3.908269    1.736902    0.954774
     28          1           0        2.735813    2.345476   -1.827580
     29          1           0        3.265246    3.536169   -0.622542
     30          1           0        4.443396    2.464931   -1.389954
     31          1           0       -0.014338   -2.247027   -0.060140
     32          1           0        0.755492   -1.997536    1.497659
     33          1           0       -0.766580   -0.111542    2.028251
     34          1           0       -1.725261   -1.542622    1.609019
     35          1           0       -0.449766    1.751092    0.209914
     36          1           0       -1.190457    1.495279   -1.383444
     37          1           0        1.253453    0.936646   -1.421974
     38          1           0        0.262595   -0.467520   -1.794620
     39          1           0       -1.995616   -1.646936   -1.263039
     40          1           0       -5.567696    0.697013    1.521333
     41          1           0       -5.537045    1.786095    0.116311
     42          1           0       -6.088744    0.095568   -0.084183
 ---------------------------------------------------------------------

 SCF Done:  E(UB3LYP) =  -953.726542525     A.U. after   33 cycles
 SCF Done:  E(UB3LYP) =  -953.726542525     a.u. after    1 cycles

 The electronic state is 2-A.
 Alpha  occ. eigenvalues --  -19.03402 -19.02590 -18.99836 -14.29106 -14.26645
 Alpha  occ. eigenvalues --  -14.24805 -14.24663 -10.23420 -10.20986 -10.20419
 Alpha  occ. eigenvalues --  -10.15872 -10.13390 -10.12556 -10.12266 -10.11879
 Alpha  occ. eigenvalues --  -10.11293 -10.10351 -10.09775 -10.07411 -10.07278
 Alpha  occ. eigenvalues --   -1.00269  -0.97397  -0.96418  -0.90447  -0.86018
 Alpha  occ. eigenvalues --   -0.84676  -0.83758  -0.72616  -0.69148  -0.68087
 Alpha  occ. eigenvalues --   -0.66803  -0.65688  -0.60905  -0.56997  -0.56764
 Alpha  occ. eigenvalues --   -0.55633  -0.54167  -0.51074  -0.50641  -0.47167
 Alpha  occ. eigenvalues --   -0.44307  -0.43549  -0.41986  -0.40978  -0.40553
 Alpha  occ. eigenvalues --   -0.39612  -0.38769  -0.37400  -0.37208  -0.36726
 Alpha  occ. eigenvalues --   -0.36465  -0.35525  -0.34941  -0.34397  -0.33489
 Alpha  occ. eigenvalues --   -0.33200  -0.33143  -0.32352  -0.31337  -0.30889
 Alpha  occ. eigenvalues --   -0.30106  -0.29283  -0.28620  -0.28426  -0.28146
 Alpha  occ. eigenvalues --   -0.27377  -0.26463  -0.26246  -0.25762  -0.21910
 Alpha  occ. eigenvalues --   -0.20538  -0.19641  -0.19273  -0.18787  -0.15876
 Alpha  occ. eigenvalues --   -0.15297   0.03751
 Alpha virt. eigenvalues --    0.05305   0.06047   0.06144   0.06571   0.07103
 Alpha virt. eigenvalues --    0.07815   0.08179   0.09018   0.09104   0.09584
 Alpha virt. eigenvalues --    0.09677   0.10156   0.10583   0.11057   0.11350

  Beta  occ. eigenvalues --  -19.03394 -19.02583 -18.99832 -14.29102 -14.26627
  Beta  occ. eigenvalues --  -14.24801 -14.24660 -10.23419 -10.20981 -10.20418
  Beta  occ. eigenvalues --  -10.15872 -10.13367 -10.12535 -10.12253 -10.11864
  Beta  occ. eigenvalues --  -10.11277 -10.10338 -10.09750 -10.07361 -10.07260
  Beta  occ. eigenvalues --   -1.00256  -0.97384  -0.96410  -0.90433  -0.86005
  Beta  occ. eigenvalues --   -0.84660  -0.83741  -0.72592  -0.69117  -0.68051
  Beta  occ. eigenvalues --   -0.66769  -0.65654  -0.60880  -0.56962  -0.56728
  Beta  occ. eigenvalues --   -0.55562  -0.54120  -0.51041  -0.50599  -0.47132
  Beta  occ. eigenvalues --   -0.44276  -0.43523  -0.41961  -0.40952  -0.40523
  Beta  occ. eigenvalues --   -0.39581  -0.38740  -0.37373  -0.37191  -0.36701
  Beta  occ. eigenvalues --   -0.36445  -0.35495  -0.34917  -0.34371  -0.33465
  Beta  occ. eigenvalues --   -0.33174  -0.33120  -0.32322  -0.31304  -0.30855
  Beta  occ. eigenvalues --   -0.30074  -0.29223  -0.28586  -0.28388  -0.28120
  Beta  occ. eigenvalues --   -0.27351  -0.26435  -0.26218  -0.25735  -0.21897
  Beta  occ. eigenvalues --   -0.20521  -0.19628  -0.19261  -0.18770  -0.15858
  Beta  occ. eigenvalues --   -0.15269
  Beta virt. eigenvalues --    0.05610   0.06068   0.06167   0.06623   0.07161
  Beta virt. eigenvalues --    0.07469   0.08284   0.08621   0.09186   0.09384
  Beta virt. eigenvalues --    0.09737   0.10129   0.10180   0.10703   0.11223

 Mulliken charges and spin densities:
               1          2
     1  C    0.085698  -0.536613
     2  C    0.038422  -0.107874
     3  N    0.141859  -0.024902
     4  C   -1.066803   0.729939
     5  C    1.516406  -1.943427
     6  C   -0.425500   0.224752
     7  O   -0.293674   0.001447
     8  N   -0.023136   0.070497
     9  C    0.397589  -0.427779
    10  C   -0.204893  -0.548273
    11  C    0.422536   0.143211
    12  C    0.510979  -0.806721
    13  C   -0.401779  -0.167238
    14  C   -0.771789   0.349391
    15  O   -0.289583   0.013646
    16  N   -0.090195   0.074205
    17  C    0.283194  -0.051549
    18  O   -0.358716   0.000146
    19  N   -0.184437   0.060728
    20  C    0.371924  -0.640518
    21  H    0.034780   0.083418
    22  H   -0.083840   0.225056
    23  H    0.087492   0.096763
    24  H   -0.218918   0.358667
    25  H    0.113722   0.070079
    26  H    0.318197  -0.121625
    27  H   -0.260648   0.408921
    28  H   -0.593096   0.741905
    29  H   -0.354118   0.496251
    30  H   -0.153920   0.297741
    31  H    0.029414   0.140692
    32  H    0.097817   0.121575
    33  H    0.077307   0.128088
    34  H   -0.066292   0.265747
    35  H    0.095559   0.106007
    36  H   -0.300354   0.516829
    37  H    0.674086  -0.567311
    38  H   -0.262952   0.459260
    39  H    0.207172   0.109893
    40  H   -0.062406   0.248906
    41  H   -0.107042   0.297510
    42  H    0.069938   0.102560
 Sum of Mulliken charges =  -1.00000   1.00000

 Dipole moment (field-independent basis, Debye):
    X=             -2.5322    Y=             -2.6787    Z=              2.1384  Tot=              4.2615
 Quadrupole moment (field-independent basis, Debye-Ang):
   XX=           -231.1457   YY=           -178.3843   ZZ=           -160.3860
   XY=             -9.9410   XZ=              0.1560   YZ=              1.7747

 Summary of Natural Population Analysis:

                                       Natural Population
                Natural  -----------------------------------------------
    Atom  No    Charge         Core      Valence    Rydberg      Total
 -----------------------------------------------------------------------
      C    1   -0.29433      0.99966     2.29061    0.00406     3.29433
      C    2   -0.08570      0.99962     2.07497    0.01111     3.08570
      N    3   -0.26590      0.99964     2.75558    0.01069     3.76590
      C    4   -0.08890      0.99960     2.07878    0.01052     3.08890
      C    5   -0.28889      0.99966     2.28398    0.00524     3.28889
      C    6    0.42305      0.99964     1.55471    0.02260     2.57695
      O    7   -0.33536      0.99988     3.33062    0.00487     4.33536
      N    8   -0.28278      0.99965     2.77373    0.00940     3.78278
      C    9   -0.08318      0.99961     2.07308    0.01049     3.08318
      C   10   -0.19538      0.99957     2.18598    0.00983     3.19538
      C   11    0.03057      0.99952     1.95597    0.01394     2.96943
      C   12   -0.19405      0.99958     2.18340    0.01108     3.19405
      C   13   -0.08597      0.99959     2.07527    0.01111     3.08597
      C   14    0.35951      0.99958     1.61739    0.02352     2.64049
      O   15   -0.30133      0.99987     3.29608    0.00537     4.30133
      N   16   -0.25905      0.99959     2.75042    0.00903     3.75905
      C   17    0.41761      0.99967     1.55987    0.02285     2.58239
      O   18   -0.31661      0.99987     3.31116    0.00557     4.31661
      N   19   -0.33134      0.99965     2.82072    0.01097     3.83134
      C   20   -0.17944      0.99964     2.17229    0.00750     3.17944
      H   21    0.09533      0.00000     0.40351    0.00117     0.40467
      H   22    0.09870      0.00000     0.40034    0.00096     0.40130
      H   23    0.10741      0.00000     0.39147    0.00112     0.39259
      H   24    0.09552      0.00000     0.40318    0.00130     0.40448
      H   25    0.10522      0.00000     0.39374    0.00104     0.39478
      H   26    0.10458      0.00000     0.39341    0.00201     0.39542
      H   27    0.09268      0.00000     0.40601    0.00132     0.40732
      H   28    0.09782      0.00000     0.40053    0.00166     0.40218
      H   29    0.10363      0.00000     0.39503    0.00134     0.39637
      H   30    0.09983      0.00000     0.39840    0.00177     0.40017
      H   31    0.08593      0.00000     0.41268    0.00139     0.41407
      H   32    0.11444      0.00000     0.38454    0.00101     0.38556
      H   33    0.11201      0.00000     0.38669    0.00130     0.38799
      H   34    0.10592      0.00000     0.39297    0.00111     0.39408
      H   35    0.11122      0.00000     0.38714    0.00163     0.38878
      H   36    0.11032      0.00000     0.38812    0.00156     0.38968
      H   37    0.11085      0.00000     0.38715    0.00200     0.38915
      H   38    0.08671      0.00000     0.41166    0.00164     0.41329
      H   39    0.20349      0.00000     0.29383    0.00268     0.29651
      H   40    0.10217      0.00000     0.39646    0.00138     0.39783
      H   41    0.10127      0.00000     0.39724    0.00149     0.39873
      H   42    0.11241      0.00000     0.38642    0.00117     0.38759
 =======================================================================
   * Total *    0.00000     19.99311    55.75512    0.25178    76.00000

 Normal termination of Gaussian 16 at Sat Dec 12 18:48:03 2020.
