 Gaussian 16, Revision A.03,

 -----------------------------------------------------------
 # opt freq B3LYP/6-31G(d) empiricaldispersion=gd3bj scf=xqc
 -----------------------------------------------------------

 ------------------------------
 CID_123792157_JID_699_neutraal
 ------------------------------
 Symbolic Z-matrix:
 Charge =  0 Multiplicity = 1

 SCF Done:  E(RB3LYP) =  -389.288463929     A.U. after   20 cycles
 SCF Done:  E(RB3LYP) =  -389.337855157     A.U. after   15 cycles
 SCF Done:  E(RB3LYP) =  -389.371205804     A.U. after   15 cycles
 SCF Done:  E(RB3LYP) =  -389.381246104     A.U. after   14 cycles
 SCF Done:  E(RB3LYP) =  -389.388503850     A.U. after   13 cycles
 SCF Done:  E(RB3LYP) =  -389.389408049     A.U. after   12 cycles
 SCF Done:  E(RB3LYP) =  -389.389708041     A.U. after   12 cycles
 SCF Done:  E(RB3LYP) =  -389.389892088     A.U. after   11 cycles
 SCF Done:  E(RB3LYP) =  -389.389980471     A.U. after   11 cycles
 SCF Done:  E(RB3LYP) =  -389.390026785     A.U. after   11 cycles
 SCF Done:  E(RB3LYP) =  -389.390036988     A.U. after    9 cycles
 SCF Done:  E(RB3LYP) =  -389.390037802     A.U. after    8 cycles
 SCF Done:  E(RB3LYP) =  -389.390038155     A.U. after    8 cycles
 SCF Done:  E(RB3LYP) =  -389.390038277     A.U. after    7 cycles
 SCF Done:  E(RB3LYP) =  -389.390038343     A.U. after    7 cycles
 Optimization completed.
    -- Stationary point found.
 Normal termination of Gaussian 16 at Sun Dec 13 12:19:50 2020.

 --------------------------------------------------------------------
 #N Geom=AllCheck Guess=TCheck SCRF=Check GenChk RB3LYP/6-31G(d) Freq
 --------------------------------------------------------------------

 Structure from the checkpoint file:  "JID_699.chk"
 ------------------------------
 CID_123792157_JID_699_neutraal
 ------------------------------
 Charge =  0 Multiplicity = 1

 SCF Done:  E(RB3LYP) =  -389.390038343     A.U. after    1 cycles

  Exact polarizability: 128.232   3.579 107.474  -2.813  -2.885  78.057
 Approx polarizability: 199.893   9.228 166.521 -16.850  -4.523 128.404

                      1                      2                      3
                      A                      A                      A
 Frequencies --     92.6954               122.4938               131.7569
 Red. masses --      1.1852                 2.5807                 2.2816
 Frc consts  --      0.0060                 0.0228                 0.0233
 IR Inten    --      0.6647                 0.1358                 1.3567

                      4                      5                      6
                      A                      A                      A
 Frequencies --    159.3914               162.0923               198.2418
 Red. masses --      1.0830                 1.0461                 2.5079
 Frc consts  --      0.0162                 0.0162                 0.0581
 IR Inten    --      0.0940                 0.3179                 0.1568

                      7                      8                      9
                      A                      A                      A
 Frequencies --    220.3951               253.2810               359.1935
 Red. masses --      2.5734                 3.0864                 2.9419
 Frc consts  --      0.0736                 0.1167                 0.2236
 IR Inten    --      0.3367                 0.2967                 0.8219

                     10                     11                     12
                      A                      A                      A
 Frequencies --    376.5010               401.6283               411.7395
 Red. masses --      2.4290                 2.8625                 2.5889
 Frc consts  --      0.2029                 0.2721                 0.2586
 IR Inten    --      1.2648                 8.6305                 0.9542

                     13                     14                     15
                      A                      A                      A
 Frequencies --    482.9020               529.0616               568.5798
 Red. masses --      3.4361                 4.1870                 3.9685
 Frc consts  --      0.4721                 0.6905                 0.7559
 IR Inten    --     14.5449                40.5927                18.7362

                     16                     17                     18
                      A                      A                      A
 Frequencies --    601.9463               628.8793               723.2427
 Red. masses --      2.9072                 3.9544                 4.4241
 Frc consts  --      0.6206                 0.9214                 1.3635
 IR Inten    --     14.5968                23.6367                 1.3066

                     19                     20                     21
                      A                      A                      A
 Frequencies --    738.9639               803.8352               844.8026
 Red. masses --      3.4626                 2.9582                 2.5814
 Frc consts  --      1.1140                 1.1262                 1.0855
 IR Inten    --     14.1426                 2.7682                17.4464

                     22                     23                     24
                      A                      A                      A
 Frequencies --    890.6518               904.1433               951.1174
 Red. masses --      1.5074                 2.0254                 1.5410
 Frc consts  --      0.7045                 0.9755                 0.8213
 IR Inten    --     16.6377                 6.8482                 3.3349

                     25                     26                     27
                      A                      A                      A
 Frequencies --    997.0144              1023.6817              1053.1556
 Red. masses --      1.5861                 1.4514                 1.5150
 Frc consts  --      0.9289                 0.8961                 0.9900
 IR Inten    --      5.2231                 3.5663                 2.4746

                     28                     29                     30
                      A                      A                      A
 Frequencies --   1057.1507              1066.1788              1097.1358
 Red. masses --      1.5340                 1.4634                 1.7092
 Frc consts  --      1.0100                 0.9801                 1.2121
 IR Inten    --     14.0105                 1.4977                13.5126

                     31                     32                     33
                      A                      A                      A
 Frequencies --   1143.8299              1172.7652              1201.3510
 Red. masses --      1.4280                 1.1809                 2.7479
 Frc consts  --      1.1008                 0.9570                 2.3366
 IR Inten    --      4.1995                 8.7368                18.8888

                     34                     35                     36
                      A                      A                      A
 Frequencies --   1218.6538              1224.9623              1272.5705
 Red. masses --      2.6149                 1.7462                 1.1723
 Frc consts  --      2.2881                 1.5438                 1.1186
 IR Inten    --      4.5264                 7.7688                 0.7979

                     37                     38                     39
                      A                      A                      A
 Frequencies --   1334.4861              1372.6751              1425.7506
 Red. masses --      1.4256                 1.5787                 1.6062
 Frc consts  --      1.4958                 1.7526                 1.9237
 IR Inten    --      0.2621                 6.0583                 1.8297

                     40                     41                     42
                      A                      A                      A
 Frequencies --   1429.8686              1440.6830              1449.2131
 Red. masses --      1.2291                 1.2862                 2.0572
 Frc consts  --      1.4805                 1.5728                 2.5456
 IR Inten    --      1.8411                 4.1269                 0.0557

                     43                     44                     45
                      A                      A                      A
 Frequencies --   1494.2260              1504.0161              1505.7437
 Red. masses --      1.1490                 1.0609                 1.0628
 Frc consts  --      1.5115                 1.4139                 1.4197
 IR Inten    --      9.1731                 0.3896                 8.4269

                     46                     47                     48
                      A                      A                      A
 Frequencies --   1509.0723              1519.6933              1521.4592
 Red. masses --      1.0747                 1.0917                 1.0984
 Frc consts  --      1.4420                 1.4855                 1.4981
 IR Inten    --      6.9075                 2.9780                 2.1112

                     49                     50                     51
                      A                      A                      A
 Frequencies --   1528.4138              1531.4833              1595.2026
 Red. masses --      1.1255                 1.1493                 3.8994
 Frc consts  --      1.5492                 1.5882                 5.8463
 IR Inten    --      4.0836                 6.8642                 2.4712

                     52                     53                     54
                      A                      A                      A
 Frequencies --   1902.2295              3023.9775              3025.0503
 Red. masses --     10.9227                 1.0390                 1.0408
 Frc consts  --     23.2865                 5.5980                 5.6115
 IR Inten    --     11.9951                50.4351                20.8097

                     55                     56                     57
                      A                      A                      A
 Frequencies --   3035.5174              3047.9528              3065.6947
 Red. masses --      1.0372                 1.0602                 1.0983
 Frc consts  --      5.6310                 5.8033                 6.0820
 IR Inten    --     42.5163                48.7467                21.4807

                     58                     59                     60
                      A                      A                      A
 Frequencies --   3070.8010              3071.8538              3082.5860
 Red. masses --      1.0902                 1.0712                 1.1000
 Frc consts  --      6.0573                 5.9554                 6.1583
 IR Inten    --     37.2114                35.0154                22.2699

                     61                     62                     63
                      A                      A                      A
 Frequencies --   3105.2823              3120.7199              3128.3045
 Red. masses --      1.1051                 1.0872                 1.1019
 Frc consts  --      6.2784                 6.2386                 6.3536
 IR Inten    --     14.1993                25.9829                35.2561

                     64                     65                     66
                      A                      A                      A
 Frequencies --   3128.9669              3132.0001              3135.9468
 Red. masses --      1.1009                 1.0992                 1.0963
 Frc consts  --      6.3503                 6.3530                 6.3519
 IR Inten    --     20.2181                16.0488                16.4030

 - Thermochemistry -
 -------------------
 Temperature   298.150 Kelvin.  Pressure   1.00000 Atm.
 Atom     1 has atomic number  6 and mass  12.00000

 Molecular mass:   134.10955 amu.
 Principal axes and moments of inertia in atomic units:
                           1         2         3
     Eigenvalues --  1053.806451339.093612025.00836
           X            0.99976   0.00834   0.02022
           Y           -0.00782   0.99964  -0.02561
           Z           -0.02043   0.02544   0.99947
 This molecule is an asymmetric top.
 Rotational symmetry number  1.
 Warning -- assumption of classical behavior for rotation
           may cause significant error
 Rotational temperatures (Kelvin)      0.08219     0.06468     0.04277
 Rotational constants (GHZ):           1.71259     1.34773     0.89123
 Zero-point vibrational energy     552225.3 (Joules/Mol)
                                  131.98501 (Kcal/Mol)
 Warning -- explicit consideration of  16 degrees of freedom as
           vibrations may cause significant error
 Vibrational temperatures:    133.37   176.24   189.57   229.33   233.21
          (Kelvin)            285.23   317.10   364.41   516.80   541.70
                              577.85   592.40   694.79   761.20   818.06
                              866.07   904.82  1040.58  1063.20  1156.54
                             1215.48  1281.45  1300.86  1368.45  1434.48
                             1472.85  1515.26  1521.00  1533.99  1578.53
                             1645.72  1687.35  1728.48  1753.37  1762.45
                             1830.95  1920.03  1974.97  2051.34  2057.26
                             2072.82  2085.09  2149.86  2163.94  2166.43
                             2171.22  2186.50  2189.04  2199.05  2203.46
                             2295.14  2736.88  4350.83  4352.37  4367.43
                             4385.32  4410.85  4418.20  4419.71  4435.15
                             4467.81  4490.02  4500.93  4501.89  4506.25
                             4511.93

 Zero-point correction=                           0.210331 (Hartree/Particle)
 Thermal correction to Energy=                    0.221185
 Thermal correction to Enthalpy=                  0.222129
 Thermal correction to Gibbs Free Energy=         0.174881
 Sum of electronic and zero-point Energies=           -389.179707
 Sum of electronic and thermal Energies=              -389.168853
 Sum of electronic and thermal Enthalpies=            -389.167909
 Sum of electronic and thermal Free Energies=         -389.215157

                     E (Thermal)             CV                S
                      KCal/Mol        Cal/Mol-Kelvin    Cal/Mol-Kelvin
 Total                  138.796             41.173             99.442
 Electronic               0.000              0.000              0.000
 Translational            0.889              2.981             40.593
 Rotational               0.889              2.981             29.437
 Vibrational            137.018             35.212             29.413
 Vibration     1          0.602              1.954              3.602
 Vibration     2          0.610              1.930              3.061
 Vibration     3          0.612              1.922              2.920
 Vibration     4          0.621              1.892              2.557
 Vibration     5          0.622              1.889              2.525
 Vibration     6          0.637              1.842              2.149
 Vibration     7          0.647              1.810              1.956
 Vibration     8          0.664              1.757              1.708
 Vibration     9          0.734              1.556              1.126
 Vibration    10          0.747              1.520              1.053
 Vibration    11          0.767              1.467              0.957
 Vibration    12          0.776              1.445              0.920
 Vibration    13          0.839              1.288              0.702
 Vibration    14          0.884              1.186              0.589
 Vibration    15          0.925              1.099              0.507
 Vibration    16          0.960              1.028              0.446

 Optimization completed.
    -- Stationary point found.
 Normal termination of Gaussian 16 at Sun Dec 13 12:24:19 2020.

 ----------------------------------------------------------------------
 # B3LYP/6-311++G(d,p) empiricaldispersion=gd3bj scf=xqc pop=npa geom=c
 heck
 ----------------------------------------------------------------------

 --------------------------------------
 CID_123792157_JID_699_Energie_neutraal
 --------------------------------------
 Structure from the checkpoint file:  "JID_699.chk"
 Charge =  0 Multiplicity = 1

 SCF Done:  E(RB3LYP) =  -389.495075681     A.U. after   15 cycles
 Normal termination of Gaussian 16 at Sun Dec 13 12:26:06 2020.

 ----------------------------------------------------------------------
 # B3LYP/6-311++G(d,p) empiricaldispersion=gd3bj scf=xqc pop=npa geom=c
 heck
 ----------------------------------------------------------------------

 ------------------------------------
 CID_123792157_JID_699_Energie_kation
 ------------------------------------
 Structure from the checkpoint file:  "JID_699.chk"
 Charge =  1 Multiplicity = 2

 SCF Done:  E(UB3LYP) =  -389.229499480     A.U. after   21 cycles
 Normal termination of Gaussian 16 at Sun Dec 13 12:29:12 2020.
 Gaussian 16:  ES64L-G16RevA.03 25-Dec-2016

 ----------------------------------------------------------------------
 # B3LYP/6-311++G(d,p) empiricaldispersion=gd3bj scf=xqc pop=npa geom=c
 heck
 ----------------------------------------------------------------------

 -----------------------------------
 CID_123792157_JID_699_Energie_anion
 -----------------------------------
 Structure from the checkpoint file:  "JID_699.chk"
 Charge = -1 Multiplicity = 2

                         Standard orientation:
 ---------------------------------------------------------------------
 Center     Atomic      Atomic             Coordinates (Angstroms)
 Number     Number       Type             X           Y           Z
 ---------------------------------------------------------------------
      1          6           0        1.384924   -1.879215    0.552093
      2          6           0        0.519240   -1.310172   -0.543086
      3          6           0        0.812629   -0.108330   -1.121176
      4          6           0        1.165862    1.006075   -0.126024
      5          6           0       -0.035451    1.161399    0.406646
      6          6           0       -1.295256    0.704145    0.424311
      7          6           0       -1.539643   -0.754096    0.701899
      8          6           0       -0.922352   -1.678035   -0.508596
      9          6           0       -2.431408    1.512950   -0.152972
     10          6           0        2.492435    1.618736    0.181156
     11          1           0        1.669498   -2.911833    0.306427
     12          1           0        0.874845   -1.920617    1.524695
     13          1           0        2.308603   -1.307919    0.676269
     14          1           0        0.185988    0.221407   -1.950890
     15          1           0       -2.610008   -0.977105    0.775023
     16          1           0       -1.064564   -1.092529    1.625780
     17          1           0       -1.449101   -1.405645   -1.429402
     18          1           0       -1.153733   -2.721893   -0.261865
     19          1           0       -2.077016    2.461584   -0.565857
     20          1           0       -2.934578    0.948500   -0.950730
     21          1           0       -3.193944    1.736237    0.605563
     22          1           0        3.231701    0.851856    0.444891
     23          1           0        2.889039    2.148084   -0.695346
     24          1           0        2.417395    2.329135    1.009937
 ---------------------------------------------------------------------

 SCF Done:  E(UB3LYP) =  -389.486996447     A.U. after   33 cycles
 SCF Done:  E(UB3LYP) =  -389.486996447     a.u. after    1 cycles

 The electronic state is 2-A.
 Alpha  occ. eigenvalues --  -10.04817 -10.04794 -10.04516 -10.04047 -10.03824
 Alpha  occ. eigenvalues --  -10.03280 -10.03252 -10.02439 -10.02297 -10.01878
 Alpha  occ. eigenvalues --   -0.71801  -0.65011  -0.64726  -0.58352  -0.57129
 Alpha  occ. eigenvalues --   -0.54266  -0.48792  -0.46749  -0.38686  -0.34663
 Alpha  occ. eigenvalues --   -0.33089  -0.32172  -0.31614  -0.29682  -0.28830
 Alpha  occ. eigenvalues --   -0.28013  -0.27745  -0.26762  -0.25482  -0.24280
 Alpha  occ. eigenvalues --   -0.23591  -0.22677  -0.21340  -0.19968  -0.11633
 Alpha  occ. eigenvalues --   -0.10244  -0.05953   0.05113
 Alpha virt. eigenvalues --    0.08410   0.08624   0.09069   0.09923   0.10312
 Alpha virt. eigenvalues --    0.10868   0.11651   0.12032   0.12956   0.13250
 Alpha virt. eigenvalues --    0.13479   0.14029   0.14925   0.15393   0.15974

  Beta  occ. eigenvalues --  -10.04788 -10.04776 -10.04435 -10.04009 -10.03815
  Beta  occ. eigenvalues --  -10.03273 -10.02934 -10.02309 -10.02210 -10.01807
  Beta  occ. eigenvalues --   -0.71488  -0.64657  -0.64476  -0.58207  -0.57021
  Beta  occ. eigenvalues --   -0.54127  -0.48670  -0.46399  -0.38469  -0.34480
  Beta  occ. eigenvalues --   -0.32910  -0.32004  -0.31327  -0.29486  -0.28619
  Beta  occ. eigenvalues --   -0.27866  -0.27592  -0.26664  -0.25338  -0.24181
  Beta  occ. eigenvalues --   -0.23422  -0.22525  -0.21220  -0.19802  -0.11064
  Beta  occ. eigenvalues --   -0.09664  -0.05023
  Beta virt. eigenvalues --    0.07803   0.08874   0.09112   0.10120   0.10523
  Beta virt. eigenvalues --    0.10596   0.11282   0.11825   0.12313   0.12965
  Beta virt. eigenvalues --    0.13552   0.13604   0.14354   0.14954   0.15479

 Mulliken charges and spin densities:
               1          2
     1  C   -0.078557  -0.587109
     2  C   -0.287139   1.002203
     3  C    0.106134  -0.288968
     4  C   -1.929257   2.659260
     5  C    1.142838  -1.910470
     6  C    0.094909   0.737145
     7  C   -0.364552  -0.071610
     8  C   -0.227580  -0.440375
     9  C    0.690364  -1.534404
    10  C    0.752465  -1.381411
    11  H   -0.041437   0.191323
    12  H    0.031563   0.076217
    13  H    0.037394   0.087980
    14  H   -0.049756   0.214139
    15  H   -0.146629   0.300917
    16  H    0.012555   0.119965
    17  H   -0.017039   0.157188
    18  H   -0.068746   0.200569
    19  H   -0.099032   0.236850
    20  H    0.103464   0.014559
    21  H   -0.284580   0.438924
    22  H    0.016503   0.092705
    23  H   -0.127658   0.271667
    24  H   -0.266227   0.412736
 Sum of Mulliken charges =  -1.00000   1.00000

 Dipole moment (field-independent basis, Debye):
    X=             -0.0078    Y=             -1.8440    Z=             -0.0765  Tot=              1.8456
 Quadrupole moment (field-independent basis, Debye-Ang):
   XX=           -100.8974   YY=            -99.3985   ZZ=            -83.4871
   XY=              0.9181   XZ=              5.3711   YZ=             -2.7902

 Summary of Natural Population Analysis:

                                       Natural Population
                Natural  -----------------------------------------------
    Atom  No    Charge         Core      Valence    Rydberg      Total
 -----------------------------------------------------------------------
      C    1   -0.30086      0.99962     2.29588    0.00536     3.30086
      C    2    0.02134      0.99942     1.96768    0.01157     2.97866
      C    3   -0.11618      0.99937     2.10494    0.01186     3.11618
      C    4   -0.06014      0.99936     2.04571    0.01507     3.06014
      C    5    0.03234      0.99925     1.95839    0.01002     2.96766
      C    6    0.01656      0.99942     1.97194    0.01209     2.98344
      C    7   -0.19204      0.99959     2.18309    0.00936     3.19204
      C    8   -0.19157      0.99958     2.18197    0.01002     3.19157
      C    9   -0.29150      0.99962     2.28651    0.00536     3.29150
      C   10   -0.28834      0.99961     2.28366    0.00507     3.28834
      H   11    0.10087      0.00000     0.39746    0.00166     0.39913
      H   12    0.09353      0.00000     0.40491    0.00156     0.40647
      H   13    0.10054      0.00000     0.39820    0.00127     0.39946
      H   14    0.08916      0.00000     0.40904    0.00179     0.41084
      H   15    0.09660      0.00000     0.40217    0.00123     0.40340
      H   16    0.10022      0.00000     0.39848    0.00131     0.39978
      H   17    0.09876      0.00000     0.40009    0.00115     0.40124
      H   18    0.09322      0.00000     0.40533    0.00145     0.40678
      H   19    0.10181      0.00000     0.39675    0.00144     0.39819
      H   20    0.09464      0.00000     0.40401    0.00135     0.40536
      H   21    0.10313      0.00000     0.39434    0.00253     0.39687
      H   22    0.09585      0.00000     0.40253    0.00162     0.40415
      H   23    0.10042      0.00000     0.39760    0.00198     0.39958
      H   24    0.10164      0.00000     0.39688    0.00148     0.39836
 =======================================================================
   * Total *   -0.00000      9.99484    26.88757    0.11759    37.00000

 Normal termination of Gaussian 16 at Sun Dec 13 12:33:59 2020.
