 Gaussian 16, Revision A.03,

 -----------------------------------------------------------
 # opt freq B3LYP/6-31G(d) empiricaldispersion=gd3bj scf=xqc
 -----------------------------------------------------------

 -------------------------------
 CID_137823860_JID_7946_neutraal
 -------------------------------
 Symbolic Z-matrix:
 Charge =  0 Multiplicity = 1

 SCF Done:  E(RB3LYP) =  -1108.85445115     A.U. after   14 cycles
 SCF Done:  E(RB3LYP) =  -1108.85978466     A.U. after   12 cycles
 SCF Done:  E(RB3LYP) =  -1108.85536615     A.U. after   12 cycles
 SCF Done:  E(RB3LYP) =  -1108.85996521     A.U. after   11 cycles
 SCF Done:  E(RB3LYP) =  -1108.86162328     A.U. after   12 cycles
 SCF Done:  E(RB3LYP) =  -1108.86216908     A.U. after   11 cycles
 SCF Done:  E(RB3LYP) =  -1108.86243269     A.U. after   10 cycles
 SCF Done:  E(RB3LYP) =  -1108.86291013     A.U. after   11 cycles
 SCF Done:  E(RB3LYP) =  -1108.86140909     A.U. after   14 cycles
 SCF Done:  E(RB3LYP) =  -1108.86356420     A.U. after   11 cycles
 SCF Done:  E(RB3LYP) =  -1108.86616058     A.U. after    9 cycles
 SCF Done:  E(RB3LYP) =  -1108.86616072     A.U. after    9 cycles
 SCF Done:  E(RB3LYP) =  -1108.86616075     A.U. after    6 cycles
 SCF Done:  E(RB3LYP) =  -1108.86616077     A.U. after    7 cycles
 Optimization completed.
    -- Stationary point found.
 Normal termination of Gaussian 16 at Fri Dec 11 13:54:00 2020.

 --------------------------------------------------------------------
 #N Geom=AllCheck Guess=TCheck SCRF=Check GenChk RB3LYP/6-31G(d) Freq
 --------------------------------------------------------------------

 Structure from the checkpoint file:  "JID_7946.chk"
 -------------------------------
 CID_137823860_JID_7946_neutraal
 -------------------------------
 Charge =  0 Multiplicity = 1

 SCF Done:  E(RB3LYP) =  -1108.86616077     A.U. after    1 cycles

  Exact polarizability: 182.617   4.047 163.819  -4.896  -3.302 135.106
 Approx polarizability: 231.366   9.299 228.782  -6.779 -11.710 220.556

                      1                      2                      3
                      A                      A                      A
 Frequencies --     24.2672                26.5633                39.6229
 Red. masses --      2.2616                 4.1015                 3.7276
 Frc consts  --      0.0008                 0.0017                 0.0034
 IR Inten    --      0.0451                 0.5481                 0.7558

                      4                      5                      6
                      A                      A                      A
 Frequencies --     45.5064                56.0376                78.3386
 Red. masses --      3.0372                 4.4906                 4.7499
 Frc consts  --      0.0037                 0.0083                 0.0172
 IR Inten    --      0.4931                 2.0662                 0.6435

                      7                      8                      9
                      A                      A                      A
 Frequencies --     84.2221               130.6200               187.1008
 Red. masses --      4.7250                 4.0308                 3.3006
 Frc consts  --      0.0197                 0.0405                 0.0681
 IR Inten    --      0.8659                 1.4499                 6.9854

                     10                     11                     12
                      A                      A                      A
 Frequencies --    206.7653               213.0498               234.0067
 Red. masses --      4.5697                 2.1426                 2.8593
 Frc consts  --      0.1151                 0.0573                 0.0923
 IR Inten    --      1.0012                 1.1554                 0.5839

                     13                     14                     15
                      A                      A                      A
 Frequencies --    250.6687               274.7212               304.0437
 Red. masses --      2.5849                 2.3995                 2.3555
 Frc consts  --      0.0957                 0.1067                 0.1283
 IR Inten    --      3.7961                 2.0436                 0.0352

                     16                     17                     18
                      A                      A                      A
 Frequencies --    331.5545               376.8217               412.4909
 Red. masses --      3.3022                 4.8756                 4.7016
 Frc consts  --      0.2139                 0.4079                 0.4713
 IR Inten    --      8.3446                 0.5575                 4.3737

                     19                     20                     21
                      A                      A                      A
 Frequencies --    424.9753               429.8327               461.2692
 Red. masses --      2.3401                 2.3553                 1.9656
 Frc consts  --      0.2490                 0.2564                 0.2464
 IR Inten    --      0.5256                 2.1747                 3.1620

                     22                     23                     24
                      A                      A                      A
 Frequencies --    538.4237               566.0641               581.7462
 Red. masses --      2.5105                 2.4721                 3.2824
 Frc consts  --      0.4288                 0.4667                 0.6545
 IR Inten    --      8.4406                 6.2622                21.2176

                     25                     26                     27
                      A                      A                      A
 Frequencies --    614.0018               641.7396               657.1105
 Red. masses --      2.5514                 3.2350                 4.4703
 Frc consts  --      0.5667                 0.7849                 1.1373
 IR Inten    --      5.7154                14.4753                 4.6551

                     28                     29                     30
                      A                      A                      A
 Frequencies --    690.6548               700.0302               753.7928
 Red. masses --      3.2415                 1.6203                 1.9188
 Frc consts  --      0.9110                 0.4678                 0.6424
 IR Inten    --     27.0188               109.4417                24.0981

                     31                     32                     33
                      A                      A                      A
 Frequencies --    784.4197               791.6636               808.0338
 Red. masses --      1.3782                 4.0298                 1.6060
 Frc consts  --      0.4996                 1.4881                 0.6178
 IR Inten    --      0.1873                90.2677                 4.0771

                     34                     35                     36
                      A                      A                      A
 Frequencies --    823.3699               830.3791               865.1842
 Red. masses --      2.1478                 2.1707                 1.8856
 Frc consts  --      0.8579                 0.8819                 0.8316
 IR Inten    --      1.9060                 5.5712                 8.2073

                     37                     38                     39
                      A                      A                      A
 Frequencies --    886.8850               903.5316               909.6475
 Red. masses --      2.2573                 1.8303                 2.2455
 Frc consts  --      1.0461                 0.8803                 1.0948
 IR Inten    --      3.1630                61.5855                21.0386

                     40                     41                     42
                      A                      A                      A
 Frequencies --    931.2518               935.8633               955.2531
 Red. masses --      1.9827                 1.4219                 1.9199
 Frc consts  --      1.0131                 0.7337                 1.0322
 IR Inten    --      9.5950                 8.1427                 9.6778

                     43                     44                     45
                      A                      A                      A
 Frequencies --    973.0225               996.5539              1016.1539
 Red. masses --      1.8599                 1.4670                 2.3339
 Frc consts  --      1.0375                 0.8584                 1.4199
 IR Inten    --      4.7671                 3.1305                 8.6670

                     46                     47                     48
                      A                      A                      A
 Frequencies --   1030.8680              1033.8277              1039.9434
 Red. masses --      1.4973                 2.0903                 1.9127
 Frc consts  --      0.9375                 1.3163                 1.2188
 IR Inten    --      1.6547                 1.2908                 1.0345

                     49                     50                     51
                      A                      A                      A
 Frequencies --   1082.8317              1087.0237              1092.3259
 Red. masses --      1.8430                 2.4573                 2.2587
 Frc consts  --      1.2732                 1.7108                 1.5878
 IR Inten    --      9.6923                 3.2156                16.2517

                     52                     53                     54
                      A                      A                      A
 Frequencies --   1118.8382              1129.3915              1138.8785
 Red. masses --      1.2513                 2.9073                 2.6363
 Frc consts  --      0.9229                 2.1849                 2.0147
 IR Inten    --      1.3797                 5.0071                20.2140

                     55                     56                     57
                      A                      A                      A
 Frequencies --   1166.6512              1189.1780              1210.0345
 Red. masses --      1.6102                 3.2410                 1.4376
 Frc consts  --      1.2913                 2.7003                 1.2402
 IR Inten    --      2.0375                 4.6641                 3.2231

                     58                     59                     60
                      A                      A                      A
 Frequencies --   1212.2459              1234.1208              1244.1902
 Red. masses --      1.7019                 1.3583                 1.4100
 Frc consts  --      1.4735                 1.2189                 1.2860
 IR Inten    --     11.0250                10.8081                 8.5002

                     61                     62                     63
                      A                      A                      A
 Frequencies --   1245.5709              1280.4531              1284.0043
 Red. masses --      1.4528                 1.2770                 1.3020
 Frc consts  --      1.3280                 1.2335                 1.2647
 IR Inten    --      1.7387                14.8224                 4.6060

                     64                     65                     66
                      A                      A                      A
 Frequencies --   1302.5423              1313.3222              1320.6388
 Red. masses --      1.3668                 1.2449                 1.2568
 Frc consts  --      1.3663                 1.2651                 1.2915
 IR Inten    --     15.1619                 3.6815                23.5170

                     67                     68                     69
                      A                      A                      A
 Frequencies --   1336.1823              1346.9924              1350.1459
 Red. masses --      1.2571                 1.2269                 1.2987
 Frc consts  --      1.3224                 1.3115                 1.3949
 IR Inten    --      2.9424                 4.6767                 6.8711

                     70                     71                     72
                      A                      A                      A
 Frequencies --   1351.8381              1358.3817              1363.3027
 Red. masses --      1.2715                 1.2363                 1.3192
 Frc consts  --      1.3690                 1.3440                 1.4446
 IR Inten    --      9.3659                10.2104                 7.8810

                     73                     74                     75
                      A                      A                      A
 Frequencies --   1369.2562              1393.5761              1406.4384
 Red. masses --      1.3609                 1.4751                 1.4461
 Frc consts  --      1.5033                 1.6878                 1.6854
 IR Inten    --      4.9028                36.4684                13.6693

                     76                     77                     78
                      A                      A                      A
 Frequencies --   1409.4732              1418.1320              1452.7658
 Red. masses --      1.5478                 1.5313                 2.3588
 Frc consts  --      1.8117                 1.8144                 2.9331
 IR Inten    --     27.8060                 8.6211               182.6090

                     79                     80                     81
                      A                      A                      A
 Frequencies --   1477.7022              1492.5414              1496.6139
 Red. masses --      1.3674                 1.3205                 1.0987
 Frc consts  --      1.7592                 1.7332                 1.4499
 IR Inten    --      2.9309                 1.4574                 2.2558

                     82                     83                     84
                      A                      A                      A
 Frequencies --   1503.6301              1507.0294              1517.9363
 Red. masses --      1.0862                 1.0921                 1.0878
 Frc consts  --      1.4469                 1.4614                 1.4767
 IR Inten    --     11.5113                10.6695                 5.6478

                     85                     86                     87
                      A                      A                      A
 Frequencies --   1520.4779              1522.0078              1524.6912
 Red. masses --      1.0962                 1.0993                 1.1056
 Frc consts  --      1.4932                 1.5004                 1.5143
 IR Inten    --      6.3060                 6.9198                14.7033

                     88                     89                     90
                      A                      A                      A
 Frequencies --   1526.2864              1544.7177              1548.1447
 Red. masses --      1.0988                 1.3656                 1.1240
 Frc consts  --      1.5082                 1.9198                 1.5873
 IR Inten    --      2.9656                53.8343                10.6070

                     91                     92                     93
                      A                      A                      A
 Frequencies --   1797.5500              2908.3284              3015.4958
 Red. masses --      5.8964                 1.0808                 1.0707
 Frc consts  --     11.2253                 5.3863                 5.7362
 IR Inten    --    417.3809                69.8942                21.7519

                     94                     95                     96
                      A                      A                      A
 Frequencies --   3019.4063              3041.6002              3045.8289
 Red. masses --      1.0679                 1.0776                 1.0679
 Frc consts  --      5.7360                 5.8737                 5.8372
 IR Inten    --     41.1119                18.4280                26.4508

                     97                     98                     99
                      A                      A                      A
 Frequencies --   3047.8154              3054.5638              3056.3409
 Red. masses --      1.0658                 1.0653                 1.0657
 Frc consts  --      5.8330                 5.8564                 5.8655
 IR Inten    --     12.9782                33.5722                23.5052

                    100                    101                    102
                      A                      A                      A
 Frequencies --   3059.6860              3062.4253              3065.5939
 Red. masses --      1.0723                 1.0666                 1.0600
 Frc consts  --      5.9147                 5.8937                 5.8690
 IR Inten    --     22.7262                73.6086                20.9079

                    103                    104                    105
                      A                      A                      A
 Frequencies --   3087.8978              3093.4258              3100.4922
 Red. masses --      1.0981                 1.0934                 1.0974
 Frc consts  --      6.1692                 6.1649                 6.2156
 IR Inten    --     28.4721                21.7905                26.0750

                    106                    107                    108
                      A                      A                      A
 Frequencies --   3103.1035              3111.5468              3112.7413
 Red. masses --      1.0953                 1.1024                 1.1040
 Frc consts  --      6.2141                 6.2883                 6.3024
 IR Inten    --     25.9712                30.5361                72.3982

                    109                    110                    111
                      A                      A                      A
 Frequencies --   3121.8358              3123.0180              3161.7122
 Red. masses --      1.1018                 1.1006                 1.0926
 Frc consts  --      6.3269                 6.3247                 6.4352
 IR Inten    --     18.1474                10.9614                 4.4547

                    112                    113                    114
                      A                      A                      A
 Frequencies --   3416.0891              3468.3239              3583.2808
 Red. masses --      1.0748                 1.0750                 1.0749
 Frc consts  --      7.3901                 7.6192                 8.1315
 IR Inten    --      6.0144                 4.5830                17.3763

 - Thermochemistry -
 -------------------
 Temperature   298.150 Kelvin.  Pressure   1.00000 Atm.
 Atom     1 has atomic number  6 and mass  12.00000

 Molecular mass:   257.15618 amu.
 Principal axes and moments of inertia in atomic units:
                           1         2         3
     Eigenvalues --  3365.014307343.668069724.12463
           X            0.99901  -0.04452   0.00107
           Y            0.04451   0.99896   0.00945
           Z           -0.00149  -0.00939   0.99995
 This molecule is an asymmetric top.
 Rotational symmetry number  1.
 Warning -- assumption of classical behavior for rotation
           may cause significant error
 Rotational temperatures (Kelvin)      0.02574     0.01179     0.00891
 Rotational constants (GHZ):           0.53632     0.24575     0.18559
 Zero-point vibrational energy     938473.4 (Joules/Mol)
                                  224.30053 (Kcal/Mol)
 Warning -- explicit consideration of  25 degrees of freedom as
           vibrations may cause significant error
 Vibrational temperatures:     34.92    38.22    57.01    65.47    80.63
          (Kelvin)            112.71   121.18   187.93   269.20   297.49
                              306.53   336.68   360.66   395.26   437.45
                              477.03   542.16   593.48   611.44   618.43
                              663.66   774.67   814.44   837.00   883.41
                              923.32   945.44   993.70  1007.19  1084.54
                             1128.60  1139.03  1162.58  1184.65  1194.73
                             1244.81  1276.03  1299.98  1308.78  1339.86
                             1346.50  1374.40  1399.96  1433.82  1462.02
                             1483.19  1487.45  1496.25  1557.95  1563.98
                             1571.61  1609.76  1624.94  1638.59  1678.55
                             1710.96  1740.97  1744.15  1775.62  1790.11
                             1792.10  1842.29  1847.40  1874.07  1889.58
                             1900.10  1922.47  1938.02  1942.56  1944.99
                             1954.41  1961.49  1970.05  2005.05  2023.55
                             2027.92  2040.38  2090.21  2126.08  2147.43
                             2153.29  2163.39  2168.28  2183.97  2187.63
                             2189.83  2193.69  2195.99  2222.50  2227.43
                             2586.27  4184.44  4338.63  4344.25  4376.18
                             4382.27  4385.13  4394.84  4397.39  4402.21
                             4406.15  4410.71  4442.80  4450.75  4460.92
                             4464.67  4476.82  4478.54  4491.63  4493.33
                             4549.00  4914.99  4990.14  5155.54

 Zero-point correction=                           0.357446 (Hartree/Particle)
 Thermal correction to Energy=                    0.374877
 Thermal correction to Enthalpy=                  0.375822
 Thermal correction to Gibbs Free Energy=         0.309277
 Sum of electronic and zero-point Energies=          -1108.508715
 Sum of electronic and thermal Energies=             -1108.491283
 Sum of electronic and thermal Enthalpies=           -1108.490339
 Sum of electronic and thermal Free Energies=        -1108.556884

                     E (Thermal)             CV                S
                      KCal/Mol        Cal/Mol-Kelvin    Cal/Mol-Kelvin
 Total                  235.239             66.260            140.054
 Electronic               0.000              0.000              0.000
 Translational            0.889              2.981             42.533
 Rotational               0.889              2.981             33.840
 Vibrational            233.462             60.298             63.681
 Vibration     1          0.593              1.985              6.250
 Vibration     2          0.593              1.984              6.071
 Vibration     3          0.594              1.981              5.278
 Vibration     4          0.595              1.979              5.004
 Vibration     5          0.596              1.975              4.592
 Vibration     6          0.600              1.964              3.932
 Vibration     7          0.601              1.960              3.790
 Vibration     8          0.612              1.923              2.937
 Vibration     9          0.632              1.858              2.256
 Vibration    10          0.641              1.830              2.072
 Vibration    11          0.644              1.821              2.017
 Vibration    12          0.654              1.789              1.848
 Vibration    13          0.663              1.762              1.726
 Vibration    14          0.677              1.720              1.566
 Vibration    15          0.695              1.666              1.395
 Vibration    16          0.714              1.612              1.252
 Vibration    17          0.747              1.520              1.052
 Vibration    18          0.776              1.443              0.918
 Vibration    19          0.787              1.416              0.875
 Vibration    20          0.791              1.405              0.859
 Vibration    21          0.819              1.336              0.762
 Vibration    22          0.893              1.165              0.569
 Vibration    23          0.922              1.105              0.512
 Vibration    24          0.939              1.071              0.482
 Vibration    25          0.973              1.002              0.426

 Optimization completed.
    -- Stationary point found.
 Normal termination of Gaussian 16 at Fri Dec 11 14:14:00 2020.

 ----------------------------------------------------------------------
 # B3LYP/6-311++G(d,p) empiricaldispersion=gd3bj scf=xqc pop=npa geom=c
 heck
 ----------------------------------------------------------------------

 ---------------------------------------
 CID_137823860_JID_7946_Energie_neutraal
 ---------------------------------------
 Structure from the checkpoint file:  "JID_7946.chk"
 Charge =  0 Multiplicity = 1

 SCF Done:  E(RB3LYP) =  -1109.10089946     A.U. after   16 cycles
 Normal termination of Gaussian 16 at Fri Dec 11 14:24:24 2020.

 ----------------------------------------------------------------------
 # B3LYP/6-311++G(d,p) empiricaldispersion=gd3bj scf=xqc pop=npa geom=c
 heck
 ----------------------------------------------------------------------

 -------------------------------------
 CID_137823860_JID_7946_Energie_kation
 -------------------------------------
 Structure from the checkpoint file:  "JID_7946.chk"
 Charge =  1 Multiplicity = 2

 SCF Done:  E(UB3LYP) =  -1108.80168586     A.U. after   33 cycles
 SCF Done:  E(UB3LYP) =  -1108.80168597     a.u. after    2 cycles
 Normal termination of Gaussian 16 at Fri Dec 11 15:16:17 2020.
 Gaussian 16:  ES64L-G16RevA.03 25-Dec-2016

 ----------------------------------------------------------------------
 # B3LYP/6-311++G(d,p) empiricaldispersion=gd3bj scf=xqc pop=npa geom=c
 heck
 ----------------------------------------------------------------------

 ------------------------------------
 CID_137823860_JID_7946_Energie_anion
 ------------------------------------
 Structure from the checkpoint file:  "JID_7946.chk"
 Charge = -1 Multiplicity = 2

                         Standard orientation:
 ---------------------------------------------------------------------
 Center     Atomic      Atomic             Coordinates (Angstroms)
 Number     Number       Type             X           Y           Z
 ---------------------------------------------------------------------
      1          6           0        3.943134   -1.945262   -0.752896
      2          6           0        3.157977   -2.890031    0.179511
      3          6           0        1.948680   -2.055156    0.688642
      4          6           0        2.193109   -0.598676    0.209478
      5          6           0        3.688968   -0.556447   -0.153066
      6          6           0        1.752585    0.448755    1.233807
      7          7           0        1.987786    1.831645    0.806846
      8          6           0        1.403427    2.442197   -0.282154
      9          8           0        1.995095    3.271673   -0.965999
     10          7           0        0.086250    2.102477   -0.607325
     11          7           0       -0.836776    1.732102    0.393329
     12          6           0       -1.940506    0.933709   -0.150787
     13          6           0       -3.010372    0.800361    0.938272
     14          6           0       -4.246956    0.039724    0.457188
     15         16           0       -3.869107   -1.679188   -0.055871
     16          6           0       -2.530043   -1.284764   -1.246332
     17          6           0       -1.426678   -0.427965   -0.627321
     18          1           0        3.527849   -1.984382   -1.768506
     19          1           0        5.005353   -2.201507   -0.825205
     20          1           0        2.850322   -3.813174   -0.321977
     21          1           0        3.791736   -3.184488    1.024170
     22          1           0        1.884308   -2.094371    1.783173
     23          1           0        0.995728   -2.437943    0.308815
     24          1           0        1.620977   -0.427261   -0.711385
     25          1           0        4.290275   -0.430165    0.760432
     26          1           0        3.939661    0.265328   -0.831750
     27          1           0        0.693979    0.342729    1.468912
     28          1           0        2.315790    0.308039    2.164923
     29          1           0        2.959496    2.117361    0.842288
     30          1           0       -0.257690    2.751735   -1.314982
     31          1           0       -1.213951    2.571961    0.837536
     32          1           0       -2.400806    1.445219   -1.020719
     33          1           0       -2.573780    0.293352    1.806265
     34          1           0       -3.322372    1.803372    1.266270
     35          1           0       -4.985493   -0.043281    1.259518
     36          1           0       -4.723650    0.567782   -0.377519
     37          1           0       -2.963756   -0.789147   -2.123443
     38          1           0       -2.132615   -2.248738   -1.576619
     39          1           0       -0.635242   -0.264233   -1.366951
     40          1           0       -0.981923   -0.956808    0.222684
 ---------------------------------------------------------------------

 SCF Done:  E(UB3LYP) =  -1109.09143129     A.U. after   33 cycles
 SCF Done:  E(UB3LYP) =  -1109.09143129     a.u. after    1 cycles

 The electronic state is 2-A.
 Alpha  occ. eigenvalues --  -88.74620 -18.99194 -14.26085 -14.24945 -14.23947
 Alpha  occ. eigenvalues --  -10.20250 -10.11558 -10.11057 -10.10965 -10.10873
 Alpha  occ. eigenvalues --  -10.08425 -10.08313 -10.08094 -10.07896 -10.07880
 Alpha  occ. eigenvalues --  -10.07861 -10.07758  -7.83248  -5.79627  -5.79296
 Alpha  occ. eigenvalues --   -5.78616  -0.96197  -0.89405  -0.82982  -0.76271
 Alpha  occ. eigenvalues --   -0.75097  -0.71619  -0.67179  -0.65450  -0.63711
 Alpha  occ. eigenvalues --   -0.62393  -0.57649  -0.54169  -0.52549  -0.51634
 Alpha  occ. eigenvalues --   -0.48506  -0.47482  -0.46955  -0.44804  -0.41624
 Alpha  occ. eigenvalues --   -0.41202  -0.40212  -0.39086  -0.37392  -0.37016
 Alpha  occ. eigenvalues --   -0.36552  -0.34655  -0.34249  -0.33355  -0.33170
 Alpha  occ. eigenvalues --   -0.32011  -0.31052  -0.30025  -0.29771  -0.29102
 Alpha  occ. eigenvalues --   -0.27264  -0.26588  -0.26228  -0.25582  -0.25230
 Alpha  occ. eigenvalues --   -0.24472  -0.24058  -0.23215  -0.22582  -0.21588
 Alpha  occ. eigenvalues --   -0.19263  -0.17706  -0.16140  -0.15642  -0.13583
 Alpha  occ. eigenvalues --    0.03904
 Alpha virt. eigenvalues --    0.05258   0.06237   0.07098   0.07395   0.07821
 Alpha virt. eigenvalues --    0.07994   0.09092   0.09311   0.09750   0.10009
 Alpha virt. eigenvalues --    0.10353   0.10832   0.11001   0.11583   0.12027

  Beta  occ. eigenvalues --  -88.74618 -18.99189 -14.26069 -14.24921 -14.23942
  Beta  occ. eigenvalues --  -10.20250 -10.11537 -10.11050 -10.10947 -10.10848
  Beta  occ. eigenvalues --  -10.08397 -10.08310 -10.08088 -10.07881 -10.07871
  Beta  occ. eigenvalues --  -10.07845 -10.07746  -7.83246  -5.79627  -5.79293
  Beta  occ. eigenvalues --   -5.78613  -0.96185  -0.89377  -0.82970  -0.76237
  Beta  occ. eigenvalues --   -0.75079  -0.71585  -0.67141  -0.65428  -0.63668
  Beta  occ. eigenvalues --   -0.62364  -0.57622  -0.54108  -0.52507  -0.51602
  Beta  occ. eigenvalues --   -0.48454  -0.47443  -0.46903  -0.44750  -0.41602
  Beta  occ. eigenvalues --   -0.41158  -0.40180  -0.39056  -0.37366  -0.36953
  Beta  occ. eigenvalues --   -0.36525  -0.34629  -0.34220  -0.33333  -0.33148
  Beta  occ. eigenvalues --   -0.31991  -0.31006  -0.29994  -0.29737  -0.29075
  Beta  occ. eigenvalues --   -0.27227  -0.26566  -0.26187  -0.25558  -0.25201
  Beta  occ. eigenvalues --   -0.24446  -0.24035  -0.23188  -0.22548  -0.21561
  Beta  occ. eigenvalues --   -0.19241  -0.17688  -0.16128  -0.15608  -0.13557
  Beta virt. eigenvalues --    0.05729   0.06590   0.06774   0.07464   0.07661
  Beta virt. eigenvalues --    0.08237   0.08451   0.09294   0.09460   0.09923
  Beta virt. eigenvalues --    0.10295   0.10616   0.10969   0.11215   0.11673

 Mulliken charges and spin densities:
               1          2
     1  C   -0.119721  -0.235032
     2  C   -0.179678  -0.256688
     3  C   -0.171980  -0.494851
     4  C    0.421465   0.825199
     5  C   -0.071707  -0.265622
     6  C   -0.547611  -0.633073
     7  N   -0.074613   0.012631
     8  C    0.136585  -0.032395
     9  O   -0.343352   0.012195
    10  N   -0.448969   0.148262
    11  N    0.153438  -0.111961
    12  C   -0.315110  -0.380972
    13  C    0.041971   0.157173
    14  C    0.728927  -1.601591
    15  S    0.091722   0.109585
    16  C   -0.218423  -0.755549
    17  C    0.128773   0.111587
    18  H    0.044481   0.088331
    19  H   -0.167478   0.337226
    20  H   -0.204729   0.368687
    21  H   -0.016859   0.146566
    22  H    0.060167   0.107680
    23  H    0.218089  -0.140544
    24  H    0.199258  -0.056208
    25  H   -0.035855   0.176191
    26  H    0.185414   0.007605
    27  H    0.132895   0.111260
    28  H   -0.036819   0.189796
    29  H    0.260944   0.057635
    30  H    0.116693   0.186442
    31  H    0.118237   0.158913
    32  H   -0.488941   0.661656
    33  H    0.133068  -0.010164
    34  H   -0.776851   0.940884
    35  H   -0.075888   0.315753
    36  H   -0.066336   0.264909
    37  H   -0.037025   0.237311
    38  H   -0.029647   0.231522
    39  H    0.037060   0.190017
    40  H    0.218404  -0.180363
 Sum of Mulliken charges =  -1.00000   1.00000

 Dipole moment (field-independent basis, Debye):
    X=              2.4359    Y=             -3.1778    Z=              1.5689  Tot=              4.3004
 Quadrupole moment (field-independent basis, Debye-Ang):
   XX=           -202.3120   YY=           -179.7949   ZZ=           -145.3205
   XY=             11.4713   XZ=              3.4027   YZ=              2.6662

 Summary of Natural Population Analysis:

                                       Natural Population
                Natural  -----------------------------------------------
    Atom  No    Charge         Core      Valence    Rydberg      Total
 -----------------------------------------------------------------------
      C    1   -0.18877      0.99964     2.18245    0.00668     3.18877
      C    2   -0.19048      0.99965     2.18404    0.00680     3.19048
      C    3   -0.19142      0.99963     2.18321    0.00858     3.19142
      C    4   -0.12267      0.99959     2.11312    0.00996     3.12267
      C    5   -0.19374      0.99962     2.18487    0.00925     3.19374
      C    6   -0.08813      0.99957     2.07793    0.01062     3.08813
      N    7   -0.32637      0.99968     2.81712    0.00956     3.82637
      C    8    0.40527      0.99970     1.57220    0.02283     2.59473
      O    9   -0.33805      0.99988     3.33290    0.00527     4.33805
      N   10   -0.24751      0.99967     2.73644    0.01140     3.74751
      N   11   -0.24438      0.99971     2.73036    0.01431     3.74438
      C   12   -0.01054      0.99957     1.99575    0.01522     3.01054
      C   13   -0.19896      0.99959     2.18781    0.01156     3.19896
      C   14   -0.24773      0.99959     2.23687    0.01126     3.24773
      S   15    0.08179      4.99964     2.90202    0.01656     7.91821
      C   16   -0.24765      0.99959     2.23777    0.01029     3.24765
      C   17   -0.20335      0.99959     2.19355    0.01022     3.20335
      H   18    0.09449      0.00000     0.40415    0.00136     0.40551
      H   19    0.09869      0.00000     0.40020    0.00111     0.40131
      H   20    0.09937      0.00000     0.39944    0.00118     0.40063
      H   21    0.09457      0.00000     0.40403    0.00140     0.40543
      H   22    0.09575      0.00000     0.40314    0.00111     0.40425
      H   23    0.10113      0.00000     0.39768    0.00119     0.39887
      H   24    0.09972      0.00000     0.39785    0.00243     0.40028
      H   25    0.09132      0.00000     0.40749    0.00119     0.40868
      H   26    0.10426      0.00000     0.39487    0.00088     0.39574
      H   27    0.11295      0.00000     0.38520    0.00185     0.38705
      H   28    0.09214      0.00000     0.40683    0.00103     0.40786
      H   29    0.19091      0.00000     0.30690    0.00219     0.30909
      H   30    0.18452      0.00000     0.31287    0.00261     0.31548
      H   31    0.17346      0.00000     0.32327    0.00327     0.32654
      H   32    0.08370      0.00000     0.41236    0.00394     0.41630
      H   33    0.10099      0.00000     0.39731    0.00170     0.39901
      H   34    0.10655      0.00000     0.39010    0.00335     0.39345
      H   35    0.10812      0.00000     0.39090    0.00098     0.39188
      H   36    0.10231      0.00000     0.39581    0.00188     0.39769
      H   37    0.10080      0.00000     0.39771    0.00148     0.39920
      H   38    0.10784      0.00000     0.39125    0.00091     0.39216
      H   39    0.10866      0.00000     0.38952    0.00182     0.39134
      H   40    0.10043      0.00000     0.39713    0.00244     0.39957
 =======================================================================
   * Total *   -0.00000     20.99389    48.77445    0.23166    70.00000

 Normal termination of Gaussian 16 at Fri Dec 11 15:47:10 2020.
