 Gaussian 16, Revision A.03,

 -----------------------------------------------------------
 # opt freq B3LYP/6-31G(d) empiricaldispersion=gd3bj scf=xqc
 -----------------------------------------------------------

 ------------------------------
 CID_12146335_JID_1548_neutraal
 ------------------------------
 Symbolic Z-matrix:
 Charge =  0 Multiplicity = 1

 SCF Done:  E(RB3LYP) =  -840.847255018     A.U. after   15 cycles
 SCF Done:  E(RB3LYP) =  -840.852140387     A.U. after   12 cycles
 SCF Done:  E(RB3LYP) =  -840.853162097     A.U. after   12 cycles
 SCF Done:  E(RB3LYP) =  -840.853901158     A.U. after   12 cycles
 SCF Done:  E(RB3LYP) =  -840.854548002     A.U. after   13 cycles
 SCF Done:  E(RB3LYP) =  -840.855131002     A.U. after   12 cycles
 SCF Done:  E(RB3LYP) =  -840.855849441     A.U. after   13 cycles
 SCF Done:  E(RB3LYP) =  -840.856192962     A.U. after   12 cycles
 SCF Done:  E(RB3LYP) =  -840.857162021     A.U. after   13 cycles
 SCF Done:  E(RB3LYP) =  -840.857628600     A.U. after   12 cycles
 SCF Done:  E(RB3LYP) =  -840.858748184     A.U. after    8 cycles
 SCF Done:  E(RB3LYP) =  -840.858749720     A.U. after    9 cycles
 SCF Done:  E(RB3LYP) =  -840.858750561     A.U. after    9 cycles
 SCF Done:  E(RB3LYP) =  -840.858750976     A.U. after    9 cycles
 SCF Done:  E(RB3LYP) =  -840.858751031     A.U. after    7 cycles
 Optimization completed.
    -- Stationary point found.
 Normal termination of Gaussian 16 at Tue Dec  8 20:32:20 2020.

 --------------------------------------------------------------------
 #N Geom=AllCheck Guess=TCheck SCRF=Check GenChk RB3LYP/6-31G(d) Freq
 --------------------------------------------------------------------

 Structure from the checkpoint file:  "JID_1548.chk"
 ------------------------------
 CID_12146335_JID_1548_neutraal
 ------------------------------
 Charge =  0 Multiplicity = 1

 SCF Done:  E(RB3LYP) =  -840.858751031     A.U. after    1 cycles

  Exact polarizability: 136.146   3.791 118.255  -3.212  -2.660  72.557
 Approx polarizability: 203.051   9.468 188.258  -6.236  -2.601 109.098

                      1                      2                      3
                      A                      A                      A
 Frequencies --     31.5623                68.9413               122.2718
 Red. masses --      3.2141                 3.0522                 2.1616
 Frc consts  --      0.0019                 0.0085                 0.0190
 IR Inten    --      1.2152                 7.3865                 0.1696

                      4                      5                      6
                      A                      A                      A
 Frequencies --    133.5249               144.7273               149.5152
 Red. masses --      3.4262                 2.3197                 1.6536
 Frc consts  --      0.0360                 0.0286                 0.0218
 IR Inten    --      1.9910                 1.3807                 0.3371

                      7                      8                      9
                      A                      A                      A
 Frequencies --    193.5400               229.1105               244.5049
 Red. masses --      1.8139                 2.5635                 1.7842
 Frc consts  --      0.0400                 0.0793                 0.0628
 IR Inten    --      0.6002                 2.6897                 0.6119

                     10                     11                     12
                      A                      A                      A
 Frequencies --    297.4888               335.3495               380.4090
 Red. masses --      3.2816                 2.5094                 1.9931
 Frc consts  --      0.1711                 0.1663                 0.1699
 IR Inten    --      3.8785                31.6878                28.3369

                     13                     14                     15
                      A                      A                      A
 Frequencies --    402.1034               457.6345               469.5942
 Red. masses --      2.6197                 4.5811                 4.8813
 Frc consts  --      0.2496                 0.5653                 0.6342
 IR Inten    --     69.7172                 1.4014                14.2834

                     16                     17                     18
                      A                      A                      A
 Frequencies --    487.0775               572.7922               629.7095
 Red. masses --      4.8088                 2.5226                 2.7357
 Frc consts  --      0.6722                 0.4876                 0.6392
 IR Inten    --      6.2031                26.8754                17.5664

                     19                     20                     21
                      A                      A                      A
 Frequencies --    669.1083               701.3127               718.0611
 Red. masses --      1.8735                 3.6073                 1.5216
 Frc consts  --      0.4942                 1.0453                 0.4623
 IR Inten    --     11.6534                 7.5323                67.7846

                     22                     23                     24
                      A                      A                      A
 Frequencies --    753.7582               823.4659               840.3983
 Red. masses --      2.3113                 1.2978                 4.9604
 Frc consts  --      0.7737                 0.5185                 2.0641
 IR Inten    --     11.8160                12.8227                 7.9256

                     25                     26                     27
                      A                      A                      A
 Frequencies --    869.4939               912.8229               951.8997
 Red. masses --      1.2904                 1.9903                 3.4824
 Frc consts  --      0.5748                 0.9771                 1.8591
 IR Inten    --      0.7728                24.8555                18.5582

                     28                     29                     30
                      A                      A                      A
 Frequencies --   1008.1142              1046.2720              1090.6076
 Red. masses --      4.5751                 1.9475                 1.9981
 Frc consts  --      2.7395                 1.2561                 1.4003
 IR Inten    --     73.3864                16.9978                18.4998

                     31                     32                     33
                      A                      A                      A
 Frequencies --   1102.3937              1127.5367              1149.4564
 Red. masses --      1.8384                 1.2968                 1.6484
 Frc consts  --      1.3163                 0.9714                 1.2832
 IR Inten    --      5.6745                 5.9529                25.0087

                     34                     35                     36
                      A                      A                      A
 Frequencies --   1160.3260              1191.7175              1220.4019
 Red. masses --      1.3594                 2.8659                 2.4417
 Frc consts  --      1.0784                 2.3981                 2.1426
 IR Inten    --     10.8403                34.7551                 5.9656

                     37                     38                     39
                      A                      A                      A
 Frequencies --   1260.1784              1288.8980              1308.0763
 Red. masses --      1.2700                 1.2518                 1.6527
 Frc consts  --      1.1883                 1.2252                 1.6662
 IR Inten    --     18.5662                 6.3212                31.1349

                     40                     41                     42
                      A                      A                      A
 Frequencies --   1359.6114              1399.5101              1427.6728
 Red. masses --      1.3646                 1.5009                 1.2803
 Frc consts  --      1.4862                 1.7320                 1.5375
 IR Inten    --     10.0867                 8.0560                67.0573

                     43                     44                     45
                      A                      A                      A
 Frequencies --   1444.4725              1451.5018              1463.2101
 Red. masses --      1.2575                 3.0317                 2.0774
 Frc consts  --      1.5459                 3.7633                 2.6205
 IR Inten    --      6.6043                88.2250                16.2012

                     46                     47                     48
                      A                      A                      A
 Frequencies --   1499.5538              1519.3047              1523.4108
 Red. masses --      1.5041                 1.0807                 1.0608
 Frc consts  --      1.9928                 1.4698                 1.4505
 IR Inten    --      2.4518                13.4509                 1.7928

                     49                     50                     51
                      A                      A                      A
 Frequencies --   1530.0232              1532.0315              1540.7162
 Red. masses --      1.0788                 1.6262                 1.0703
 Frc consts  --      1.4880                 2.2489                 1.4969
 IR Inten    --      6.6782                 7.2736                 6.7677

                     52                     53                     54
                      A                      A                      A
 Frequencies --   1549.4323              1634.9481              2994.0420
 Red. masses --      1.1625                 3.8150                 1.0555
 Frc consts  --      1.6443                 6.0084                 5.5747
 IR Inten    --      8.7822               158.7577                97.2561

                     55                     56                     57
                      A                      A                      A
 Frequencies --   3015.3353              3041.4338              3053.5841
 Red. masses --      1.0822                 1.0666                 1.0381
 Frc consts  --      5.7974                 5.8133                 5.7033
 IR Inten    --     22.8035                25.7250                34.8879

                     58                     59                     60
                      A                      A                      A
 Frequencies --   3086.0262              3091.7368              3116.4391
 Red. masses --      1.0815                 1.0972                 1.1016
 Frc consts  --      6.0682                 6.1796                 6.3037
 IR Inten    --     39.9473                16.6902                34.5517

                     61                     62                     63
                      A                      A                      A
 Frequencies --   3133.7140              3136.6661              3228.6640
 Red. masses --      1.1013                 1.1010                 1.0901
 Frc consts  --      6.3718                 6.3823                 6.6952
 IR Inten    --     25.7306                37.4849                 7.3906

                     64                     65                     66
                      A                      A                      A
 Frequencies --   3269.9729              3572.9371              3718.8947
 Red. masses --      1.0971                 1.0762                 1.0658
 Frc consts  --      6.9120                 8.0947                 8.6850
 IR Inten    --      0.9687                30.4870                14.8255

 - Thermochemistry -
 -------------------
 Temperature   298.150 Kelvin.  Pressure   1.00000 Atm.
 Atom     1 has atomic number  6 and mass  12.00000

 Molecular mass:   171.07179 amu.
 Principal axes and moments of inertia in atomic units:
                           1         2         3
     Eigenvalues --  1466.676722271.484653313.82363
           X            0.99999   0.00475   0.00156
           Y           -0.00473   0.99994  -0.01002
           Z           -0.00161   0.01001   0.99995
 This molecule is an asymmetric top.
 Rotational symmetry number  1.
 Warning -- assumption of classical behavior for rotation
           may cause significant error
 Rotational temperatures (Kelvin)      0.05905     0.03813     0.02614
 Rotational constants (GHZ):           1.23050     0.79452     0.54461
 Zero-point vibrational energy     531614.5 (Joules/Mol)
                                  127.05891 (Kcal/Mol)
 Warning -- explicit consideration of  17 degrees of freedom as
           vibrations may cause significant error
 Vibrational temperatures:     45.41    99.19   175.92   192.11   208.23
          (Kelvin)            215.12   278.46   329.64   351.79   428.02
                              482.49   547.32   578.54   658.43   675.64
                              700.80   824.12   906.01   962.70  1009.03
                             1033.13  1084.49  1184.78  1209.15  1251.01
                             1313.35  1369.57  1450.45  1505.35  1569.14
                             1586.10  1622.27  1653.81  1669.45  1714.62
                             1755.89  1813.12  1854.44  1882.03  1956.18
                             2013.58  2054.10  2078.27  2088.39  2105.23
                             2157.52  2185.94  2191.85  2201.36  2204.25
                             2216.75  2229.29  2352.33  4307.76  4338.39
                             4375.94  4393.43  4440.10  4448.32  4483.86
                             4508.72  4512.96  4645.33  4704.76  5140.66
                             5350.66

 Zero-point correction=                           0.202481 (Hartree/Particle)
 Thermal correction to Energy=                    0.214778
 Thermal correction to Enthalpy=                  0.215722
 Thermal correction to Gibbs Free Energy=         0.163577
 Sum of electronic and zero-point Energies=           -840.656270
 Sum of electronic and thermal Energies=              -840.643973
 Sum of electronic and thermal Enthalpies=            -840.643029
 Sum of electronic and thermal Free Energies=         -840.695174

                     E (Thermal)             CV                S
                      KCal/Mol        Cal/Mol-Kelvin    Cal/Mol-Kelvin
 Total                  134.775             45.128            109.747
 Electronic               0.000              0.000              0.000
 Translational            0.889              2.981             41.318
 Rotational               0.889              2.981             30.780
 Vibrational            132.998             39.166             37.649
 Vibration     1          0.594              1.983              5.729
 Vibration     2          0.598              1.969              4.183
 Vibration     3          0.610              1.931              3.064
 Vibration     4          0.613              1.920              2.895
 Vibration     5          0.616              1.908              2.740
 Vibration     6          0.618              1.903              2.678
 Vibration     7          0.635              1.849              2.194
 Vibration     8          0.652              1.797              1.886
 Vibration     9          0.660              1.772              1.770
 Vibration    10          0.691              1.678              1.431
 Vibration    11          0.716              1.605              1.234
 Vibration    12          0.750              1.512              1.038
 Vibration    13          0.768              1.466              0.955
 Vibration    14          0.816              1.344              0.773
 Vibration    15          0.827              1.318              0.739
 Vibration    16          0.843              1.279              0.691
 Vibration    17          0.929              1.090              0.499

                           ! Non-Optimized Parameters !
 Normal termination of Gaussian 16 at Tue Dec  8 20:38:17 2020.

 ----------------------------------------------------------------------
 # B3LYP/6-311++G(d,p) empiricaldispersion=gd3bj scf=xqc pop=npa geom=c
 heck
 ----------------------------------------------------------------------

 --------------------------------------
 CID_12146335_JID_1548_Energie_neutraal
 --------------------------------------
 Structure from the checkpoint file:  "JID_1548.chk"
 Charge =  0 Multiplicity = 1

 SCF Done:  E(RB3LYP) =  -841.021294899     A.U. after   15 cycles
 Normal termination of Gaussian 16 at Tue Dec  8 20:41:44 2020.

 ----------------------------------------------------------------------
 # B3LYP/6-311++G(d,p) empiricaldispersion=gd3bj scf=xqc pop=npa geom=c
 heck
 ----------------------------------------------------------------------

 ------------------------------------
 CID_12146335_JID_1548_Energie_kation
 ------------------------------------
 Structure from the checkpoint file:  "JID_1548.chk"
 Charge =  1 Multiplicity = 2

 SCF Done:  E(UB3LYP) =  -840.752835115     A.U. after   22 cycles
 Normal termination of Gaussian 16 at Tue Dec  8 20:48:03 2020.
 Gaussian 16:  ES64L-G16RevA.03 25-Dec-2016

 ----------------------------------------------------------------------
 # B3LYP/6-311++G(d,p) empiricaldispersion=gd3bj scf=xqc pop=npa geom=c
 heck
 ----------------------------------------------------------------------

 -----------------------------------
 CID_12146335_JID_1548_Energie_anion
 -----------------------------------
 Structure from the checkpoint file:  "JID_1548.chk"
 Charge = -1 Multiplicity = 2

                         Standard orientation:
 ---------------------------------------------------------------------
 Center     Atomic      Atomic             Coordinates (Angstroms)
 Number     Number       Type             X           Y           Z
 ---------------------------------------------------------------------
      1          6           0        3.142980   -0.148984    1.130116
      2          6           0        2.546843   -0.729859   -0.156499
      3          6           0        1.053756   -1.066042   -0.056714
      4          6           0        0.113297    0.107158   -0.099823
      5          6           0       -1.267636    0.011841   -0.057170
      6          6           0       -1.910144    1.296878   -0.063977
      7          6           0       -1.023754    2.331405   -0.142697
      8         16           0        0.616691    1.783152   -0.218315
      9          7           0       -1.960497   -1.195482   -0.080225
     10          6           0       -3.120634   -1.382642    0.775086
     11          8           0        0.680110   -2.037278   -1.061057
     12          1           0        2.674795    0.799173    1.409922
     13          1           0        4.216936    0.029926    1.012315
     14          1           0        3.010291   -0.845789    1.966432
     15          1           0        2.714198   -0.047839   -1.001626
     16          1           0        3.055249   -1.667689   -0.405475
     17          1           0        0.893610   -1.614301    0.883213
     18          1           0       -2.984862    1.432527   -0.035832
     19          1           0       -1.241602    3.389989   -0.180442
     20          1           0       -1.343284   -1.995220   -0.159095
     21          1           0       -3.512174   -2.391513    0.618158
     22          1           0       -2.906243   -1.252590    1.848479
     23          1           0       -3.913515   -0.677822    0.502599
     24          1           0        0.543883   -1.541223   -1.885503
 ---------------------------------------------------------------------

 SCF Done:  E(UB3LYP) =  -841.005010820     A.U. after   33 cycles
 SCF Done:  E(UB3LYP) =  -841.005010820     a.u. after    1 cycles

 The electronic state is 2-A.
 Alpha  occ. eigenvalues --  -88.76464 -19.02426 -14.20695 -10.13016 -10.10084
 Alpha  occ. eigenvalues --  -10.09098 -10.08464 -10.07946 -10.07219 -10.06706
 Alpha  occ. eigenvalues --  -10.06385  -7.85078  -5.81373  -5.81011  -5.80660
 Alpha  occ. eigenvalues --   -0.92457  -0.82219  -0.75874  -0.69011  -0.63234
 Alpha  occ. eigenvalues --   -0.62339  -0.57815  -0.55162  -0.50960  -0.46082
 Alpha  occ. eigenvalues --   -0.44372  -0.42850  -0.37662  -0.36364  -0.34552
 Alpha  occ. eigenvalues --   -0.33663  -0.32825  -0.32644  -0.31980  -0.28700
 Alpha  occ. eigenvalues --   -0.28502  -0.27500  -0.26566  -0.25943  -0.25251
 Alpha  occ. eigenvalues --   -0.24123  -0.22624  -0.18617  -0.18208  -0.13562
 Alpha  occ. eigenvalues --   -0.09081   0.04743
 Alpha virt. eigenvalues --    0.06710   0.07073   0.07831   0.08296   0.09278
 Alpha virt. eigenvalues --    0.09426   0.10147   0.10439   0.11595   0.11804
 Alpha virt. eigenvalues --    0.12583   0.13047   0.13579   0.14490   0.15100

  Beta  occ. eigenvalues --  -88.76453 -19.02406 -14.20691 -10.13005 -10.10063
  Beta  occ. eigenvalues --  -10.09036 -10.08404 -10.07913 -10.07208 -10.06697
  Beta  occ. eigenvalues --  -10.06359  -7.85066  -5.81366  -5.81005  -5.80631
  Beta  occ. eigenvalues --   -0.92408  -0.82180  -0.75819  -0.68971  -0.63154
  Beta  occ. eigenvalues --   -0.62277  -0.57749  -0.55071  -0.50886  -0.46010
  Beta  occ. eigenvalues --   -0.44315  -0.42798  -0.37613  -0.36296  -0.34503
  Beta  occ. eigenvalues --   -0.33601  -0.32769  -0.32603  -0.31926  -0.28656
  Beta  occ. eigenvalues --   -0.28443  -0.27446  -0.26484  -0.25859  -0.25212
  Beta  occ. eigenvalues --   -0.24073  -0.22586  -0.18556  -0.18126  -0.13397
  Beta  occ. eigenvalues --   -0.08926
  Beta virt. eigenvalues --    0.06885   0.07527   0.07764   0.08381   0.08721
  Beta virt. eigenvalues --    0.09870   0.10015   0.10479   0.11001   0.12067
  Beta virt. eigenvalues --    0.12118   0.12848   0.13283   0.13952   0.14580

 Mulliken charges and spin densities:
               1          2
     1  C    0.557583  -1.119558
     2  C   -1.170691   1.166025
     3  C    1.303732  -2.130923
     4  C   -0.877220   1.825570
     5  C   -0.976341   0.740079
     6  C    1.816254  -1.979287
     7  C   -0.161072   0.004500
     8  S    0.292117  -0.848050
     9  N   -0.405628   0.262833
    10  C    1.340678  -1.691967
    11  O   -0.185995   0.034786
    12  H   -0.178119   0.301941
    13  H   -0.211211   0.339984
    14  H   -0.130759   0.266678
    15  H   -0.006511   0.132128
    16  H   -0.037965   0.209279
    17  H   -0.087238   0.289472
    18  H   -0.221091   0.356936
    19  H   -0.583653   0.818042
    20  H    0.248495   0.043059
    21  H   -0.661367   0.798486
    22  H   -0.322240   0.474072
    23  H   -0.412389   0.545474
    24  H    0.070633   0.160439
 Sum of Mulliken charges =  -1.00000   1.00000

 Dipole moment (field-independent basis, Debye):
    X=              4.1384    Y=              1.9206    Z=             -2.5373  Tot=              5.2204
 Quadrupole moment (field-independent basis, Debye-Ang):
   XX=           -140.2302   YY=           -122.5459   ZZ=           -104.6330
   XY=             -4.7068   XZ=              1.2630   YZ=              2.3900

 Summary of Natural Population Analysis:

                                       Natural Population
                Natural  -----------------------------------------------
    Atom  No    Charge         Core      Valence    Rydberg      Total
 -----------------------------------------------------------------------
      C    1   -0.28700      0.99966     2.28289    0.00446     3.28700
      C    2   -0.19961      0.99962     2.19210    0.00789     3.19961
      C    3    0.04532      0.99948     1.93746    0.01773     2.95468
      C    4   -0.14649      0.99941     2.13564    0.01143     3.14649
      C    5    0.07311      0.99940     1.91280    0.01470     2.92689
      C    6   -0.13649      0.99949     2.12596    0.01104     3.13649
      C    7   -0.17927      0.99955     2.16858    0.01114     3.17927
      S    8    0.19794      4.99942     2.78065    0.02198     7.80206
      N    9   -0.32259      0.99968     2.81120    0.01171     3.82259
      C   10   -0.17456      0.99965     2.16678    0.00813     3.17456
      O   11   -0.37403      0.99990     3.36760    0.00653     4.37403
      H   12    0.10184      0.00000     0.39618    0.00197     0.39816
      H   13    0.09715      0.00000     0.40167    0.00118     0.40285
      H   14    0.09747      0.00000     0.40106    0.00147     0.40253
      H   15    0.09468      0.00000     0.40366    0.00166     0.40532
      H   16    0.10285      0.00000     0.39563    0.00152     0.39715
      H   17    0.09146      0.00000     0.40577    0.00277     0.40854
      H   18    0.10889      0.00000     0.38984    0.00127     0.39111
      H   19    0.10786      0.00000     0.39092    0.00123     0.39214
      H   20    0.19604      0.00000     0.30079    0.00318     0.30396
      H   21    0.09849      0.00000     0.39943    0.00208     0.40151
      H   22    0.08600      0.00000     0.41172    0.00228     0.41400
      H   23    0.09164      0.00000     0.40646    0.00191     0.40836
      H   24    0.22928      0.00000     0.26746    0.00326     0.27072
 =======================================================================
   * Total *    0.00000     14.99527    30.85222    0.15251    46.00000

 Normal termination of Gaussian 16 at Tue Dec  8 20:56:36 2020.
