 Gaussian 16, Revision A.03,

 -----------------------------------------------------------
 # opt freq B3LYP/6-31G(d) empiricaldispersion=gd3bj scf=xqc
 -----------------------------------------------------------

 -------------------------------
 CID_121183454_JID_5202_neutraal
 -------------------------------
 Symbolic Z-matrix:
 Charge =  0 Multiplicity = 1

 SCF Done:  E(RB3LYP) =  -618.148437185     A.U. after   14 cycles
 SCF Done:  E(RB3LYP) =  -618.154316259     A.U. after   12 cycles
 SCF Done:  E(RB3LYP) =  -618.153418909     A.U. after   12 cycles
 SCF Done:  E(RB3LYP) =  -618.155005986     A.U. after   12 cycles
 SCF Done:  E(RB3LYP) =  -618.155887751     A.U. after   12 cycles
 SCF Done:  E(RB3LYP) =  -618.156457217     A.U. after   11 cycles
 SCF Done:  E(RB3LYP) =  -618.156543324     A.U. after   10 cycles
 SCF Done:  E(RB3LYP) =  -618.156572598     A.U. after    9 cycles
 SCF Done:  E(RB3LYP) =  -618.156587242     A.U. after   10 cycles
 SCF Done:  E(RB3LYP) =  -618.156594161     A.U. after    8 cycles
 SCF Done:  E(RB3LYP) =  -618.156601035     A.U. after    9 cycles
 SCF Done:  E(RB3LYP) =  -618.156603916     A.U. after    8 cycles
 SCF Done:  E(RB3LYP) =  -618.156605810     A.U. after    8 cycles
 SCF Done:  E(RB3LYP) =  -618.156606109     A.U. after    7 cycles
 SCF Done:  E(RB3LYP) =  -618.156606231     A.U. after    6 cycles
 Optimization completed.
    -- Stationary point found.
 Normal termination of Gaussian 16 at Thu Dec 10 14:59:09 2020.

 --------------------------------------------------------------------
 #N Geom=AllCheck Guess=TCheck SCRF=Check GenChk RB3LYP/6-31G(d) Freq
 --------------------------------------------------------------------

 Structure from the checkpoint file:  "JID_5202.chk"
 -------------------------------
 CID_121183454_JID_5202_neutraal
 -------------------------------
 Charge =  0 Multiplicity = 1

 SCF Done:  E(RB3LYP) =  -618.156606231     A.U. after    1 cycles

  Exact polarizability: 143.690   0.054 140.569   2.136  -2.290 128.153
 Approx polarizability: 186.610   2.169 207.450   2.185 -11.358 202.366

                      1                      2                      3
                      A                      A                      A
 Frequencies --     45.7222                60.6674                86.9710
 Red. masses --      3.6498                 3.6232                 3.1372
 Frc consts  --      0.0045                 0.0079                 0.0140
 IR Inten    --      0.1595                 0.1053                 0.1617

                      4                      5                      6
                      A                      A                      A
 Frequencies --    105.2316               139.9603               156.5814
 Red. masses --      2.0539                 2.4519                 2.3881
 Frc consts  --      0.0134                 0.0283                 0.0345
 IR Inten    --      0.0992                 0.6280                 0.3240

                      7                      8                      9
                      A                      A                      A
 Frequencies --    184.2425               198.5979               283.7164
 Red. masses --      2.8479                 2.4539                 2.8316
 Frc consts  --      0.0570                 0.0570                 0.1343
 IR Inten    --      0.2390                 0.2286                 0.3779

                     10                     11                     12
                      A                      A                      A
 Frequencies --    313.3123               322.7699               387.3434
 Red. masses --      2.1384                 2.1278                 2.3471
 Frc consts  --      0.1237                 0.1306                 0.2075
 IR Inten    --      0.9937                 1.2487                 0.3575

                     13                     14                     15
                      A                      A                      A
 Frequencies --    420.9557               458.1184               470.1718
 Red. masses --      1.8268                 2.1156                 3.7659
 Frc consts  --      0.1907                 0.2616                 0.4905
 IR Inten    --      0.0152                 4.0337                 3.1476

                     16                     17                     18
                      A                      A                      A
 Frequencies --    529.5309               553.7599               610.7823
 Red. masses --      3.3677                 2.5360                 3.0840
 Frc consts  --      0.5564                 0.4582                 0.6779
 IR Inten    --      2.6941                 4.3826                14.0179

                     19                     20                     21
                      A                      A                      A
 Frequencies --    644.5428               656.4174               712.1774
 Red. masses --      3.3148                 2.1035                 2.1062
 Frc consts  --      0.8114                 0.5340                 0.6294
 IR Inten    --      4.8932                 1.1139                15.6951

                     22                     23                     24
                      A                      A                      A
 Frequencies --    746.6798               763.8314               769.5850
 Red. masses --      2.5835                 1.5418                 3.1593
 Frc consts  --      0.8487                 0.5300                 1.1024
 IR Inten    --      9.2107                 8.6705                 7.4744

                     25                     26                     27
                      A                      A                      A
 Frequencies --    812.8806               820.8496               835.7685
 Red. masses --      1.8038                 2.1337                 2.3190
 Frc consts  --      0.7023                 0.8471                 0.9544
 IR Inten    --      2.4161                 0.8594                 0.6141

                     28                     29                     30
                      A                      A                      A
 Frequencies --    875.9600               880.6021               904.1159
 Red. masses --      1.9211                 2.2957                 3.3484
 Frc consts  --      0.8685                 1.0489                 1.6126
 IR Inten    --      1.4018                20.9752                 3.2835

                     31                     32                     33
                      A                      A                      A
 Frequencies --    909.3164               923.7323               937.0529
 Red. masses --      2.6435                 2.4035                 2.4746
 Frc consts  --      1.2878                 1.2083                 1.2802
 IR Inten    --      1.5834                 6.0474                 4.0805

                     34                     35                     36
                      A                      A                      A
 Frequencies --    938.8582               958.1432               964.7326
 Red. masses --      2.1703                 2.1327                 1.6040
 Frc consts  --      1.1271                 1.1536                 0.8796
 IR Inten    --     10.3115                 7.6058                 1.7165

                     37                     38                     39
                      A                      A                      A
 Frequencies --    976.1125               983.3894              1007.4198
 Red. masses --      2.6164                 1.2344                 2.3540
 Frc consts  --      1.4688                 0.7033                 1.4076
 IR Inten    --     12.8580                 0.5197                 1.2578

                     40                     41                     42
                      A                      A                      A
 Frequencies --   1030.5682              1034.0080              1046.8330
 Red. masses --      2.2690                 2.4034                 2.3680
 Frc consts  --      1.4198                 1.5140                 1.5289
 IR Inten    --      9.8695                19.9925                 0.8526

                     43                     44                     45
                      A                      A                      A
 Frequencies --   1072.2771              1084.9992              1107.4594
 Red. masses --      1.9546                 2.0218                 2.3967
 Frc consts  --      1.3241                 1.4023                 1.7319
 IR Inten    --      0.5446                10.2228                20.2284

                     46                     47                     48
                      A                      A                      A
 Frequencies --   1125.8721              1138.9435              1156.8497
 Red. masses --      1.8475                 1.8243                 2.3545
 Frc consts  --      1.3798                 1.3943                 1.8566
 IR Inten    --      9.3715                23.3014                24.1364

                     49                     50                     51
                      A                      A                      A
 Frequencies --   1176.7525              1184.7729              1216.9149
 Red. masses --      1.2497                 1.3898                 1.5002
 Frc consts  --      1.0196                 1.1494                 1.3090
 IR Inten    --      6.7987                 6.1021                 2.2725

                     52                     53                     54
                      A                      A                      A
 Frequencies --   1225.1976              1232.4646              1243.0035
 Red. masses --      1.2967                 1.2564                 1.3070
 Frc consts  --      1.1468                 1.1244                 1.1898
 IR Inten    --      2.1493                 3.1631                 4.8992

                     55                     56                     57
                      A                      A                      A
 Frequencies --   1248.2730              1268.3961              1272.5855
 Red. masses --      1.2790                 1.3009                 1.2556
 Frc consts  --      1.1742                 1.2331                 1.1980
 IR Inten    --      1.2461                 1.8845                 3.4317

                     58                     59                     60
                      A                      A                      A
 Frequencies --   1290.9809              1312.3251              1319.5610
 Red. masses --      1.3516                 1.2485                 1.2327
 Frc consts  --      1.3272                 1.2669                 1.2646
 IR Inten    --      0.9340                 8.8379                 1.0692

                     61                     62                     63
                      A                      A                      A
 Frequencies --   1325.3829              1331.8593              1336.9259
 Red. masses --      1.4320                 1.3812                 1.4365
 Frc consts  --      1.4821                 1.4435                 1.5128
 IR Inten    --      1.3432                 0.7277                 3.5237

                     64                     65                     66
                      A                      A                      A
 Frequencies --   1347.4087              1355.4028              1376.1642
 Red. masses --      1.3490                 1.3959                 1.3092
 Frc consts  --      1.4430                 1.5109                 1.4608
 IR Inten    --      6.2316                 6.0285                 1.4539

                     67                     68                     69
                      A                      A                      A
 Frequencies --   1379.5484              1387.0067              1394.2897
 Red. masses --      1.3989                 1.5264                 1.5680
 Frc consts  --      1.5686                 1.7301                 1.7960
 IR Inten    --      5.4128                 3.0045                38.7115

                     70                     71                     72
                      A                      A                      A
 Frequencies --   1411.4809              1418.7525              1424.3068
 Red. masses --      1.5368                 1.3648                 1.4872
 Frc consts  --      1.8039                 1.6186                 1.7776
 IR Inten    --     32.3593                 9.0981                 5.9994

                     73                     74                     75
                      A                      A                      A
 Frequencies --   1435.4342              1501.5773              1507.8589
 Red. masses --      1.4522                 1.0946                 1.0827
 Frc consts  --      1.7630                 1.4542                 1.4504
 IR Inten    --      2.1149                 2.3002                 5.2525

                     76                     77                     78
                      A                      A                      A
 Frequencies --   1509.5455              1514.0975              1523.8511
 Red. masses --      1.0846                 1.0838                 1.0861
 Frc consts  --      1.4562                 1.4639                 1.4860
 IR Inten    --      1.3448                 2.0866                 0.6593

                     79                     80                     81
                      A                      A                      A
 Frequencies --   1525.4106              1531.1036              1541.2903
 Red. masses --      1.0981                 1.0878                 1.0969
 Frc consts  --      1.5055                 1.5024                 1.5353
 IR Inten    --      7.0678                 1.1089                11.0061

                     82                     83                     84
                      A                      A                      A
 Frequencies --   1545.8060              1730.1678              2931.6237
 Red. masses --      1.1035                 6.3061                 1.0725
 Frc consts  --      1.5535                11.1220                 5.4308
 IR Inten    --      4.8534                 0.9157                74.0380

                     85                     86                     87
                      A                      A                      A
 Frequencies --   3007.8433              3012.1016              3023.4475
 Red. masses --      1.0716                 1.0739                 1.0597
 Frc consts  --      5.7120                 5.7407                 5.7071
 IR Inten    --     52.1809               100.7321                34.2348

                     88                     89                     90
                      A                      A                      A
 Frequencies --   3030.0743              3050.8409              3063.5209
 Red. masses --      1.0673                 1.1019                 1.0672
 Frc consts  --      5.7737                 6.0430                 5.9014
 IR Inten    --     71.2823                28.3639                43.6546

                     91                     92                     93
                      A                      A                      A
 Frequencies --   3064.3529              3065.5608              3073.2649
 Red. masses --      1.0741                 1.0794                 1.0648
 Frc consts  --      5.9426                 5.9765                 5.9253
 IR Inten    --     16.1235                11.7325                50.6702

                     94                     95                     96
                      A                      A                      A
 Frequencies --   3075.9887              3081.9830              3091.0715
 Red. masses --      1.0668                 1.0908                 1.0860
 Frc consts  --      5.9473                 6.1046                 6.1136
 IR Inten    --     44.0796                21.2073                37.2583

                     97                     98                     99
                      A                      A                      A
 Frequencies --   3094.3875              3108.2482              3110.1993
 Red. masses --      1.0921                 1.1015                 1.0873
 Frc consts  --      6.1613                 6.2701                 6.1967
 IR Inten    --     63.2237                 3.2199                25.4615

                    100                    101                    102
                      A                      A                      A
 Frequencies --   3116.6516              3125.5803              3125.7629
 Red. masses --      1.1012                 1.0989                 1.0972
 Frc consts  --      6.3024                 6.3251                 6.3159
 IR Inten    --     51.8721                51.0679                19.7504

                    103                    104                    105
                      A                      A                      A
 Frequencies --   3145.2508              3162.4965              3187.5924
 Red. masses --      1.0981                 1.0851                 1.0979
 Frc consts  --      6.4005                 6.3940                 6.5726
 IR Inten    --     48.8537                13.4562                36.5345

 - Thermochemistry -
 -------------------
 Temperature   298.150 Kelvin.  Pressure   1.00000 Atm.
 Atom     1 has atomic number  6 and mass  12.00000

 Molecular mass:   206.17830 amu.
 Principal axes and moments of inertia in atomic units:
                           1         2         3
     Eigenvalues --  1702.495923759.022294186.30007
           X            0.99994  -0.01102   0.00155
           Y            0.01103   0.99993  -0.00302
           Z           -0.00152   0.00304   0.99999
 This molecule is an asymmetric top.
 Rotational symmetry number  1.
 Warning -- assumption of classical behavior for rotation
           may cause significant error
 Rotational temperatures (Kelvin)      0.05087     0.02304     0.02069
 Rotational constants (GHZ):           1.06006     0.48011     0.43111
 Zero-point vibrational energy     892666.3 (Joules/Mol)
                                  213.35237 (Kcal/Mol)
 Warning -- explicit consideration of  18 degrees of freedom as
           vibrations may cause significant error
 Vibrational temperatures:     65.78    87.29   125.13   151.40   201.37
          (Kelvin)            225.29   265.08   285.74   408.20   450.79
                              464.39   557.30   605.66   659.13   676.47
                              761.88   796.74   878.78   927.35   944.44
                             1024.66  1074.31  1098.98  1107.26  1169.55
                             1181.02  1202.48  1260.31  1266.99  1300.82
                             1308.30  1329.04  1348.21  1350.81  1378.55
                             1388.03  1404.41  1414.88  1449.45  1482.76
                             1487.71  1506.16  1542.77  1561.07  1593.39
                             1619.88  1638.69  1664.45  1693.08  1704.62
                             1750.87  1762.79  1773.24  1788.40  1795.99
                             1824.94  1830.97  1857.43  1888.14  1898.55
                             1906.93  1916.25  1923.54  1938.62  1950.12
                             1979.99  1984.86  1995.59  2006.07  2030.81
                             2041.27  2049.26  2065.27  2160.43  2169.47
                             2171.90  2178.45  2192.48  2194.73  2202.92
                             2217.57  2224.07  2489.33  4217.95  4327.62
                             4333.74  4350.07  4359.60  4389.48  4407.72
                             4408.92  4410.66  4421.74  4425.66  4434.29
                             4447.36  4452.13  4472.08  4474.88  4484.17
                             4497.01  4497.28  4525.31  4550.13  4586.23

 Zero-point correction=                           0.339999 (Hartree/Particle)
 Thermal correction to Energy=                    0.353297
 Thermal correction to Enthalpy=                  0.354241
 Thermal correction to Gibbs Free Energy=         0.300009
 Sum of electronic and zero-point Energies=           -617.816608
 Sum of electronic and thermal Energies=              -617.803310
 Sum of electronic and thermal Enthalpies=            -617.802365
 Sum of electronic and thermal Free Energies=         -617.856598

                     E (Thermal)             CV                S
                      KCal/Mol        Cal/Mol-Kelvin    Cal/Mol-Kelvin
 Total                  221.697             54.191            114.141
 Electronic               0.000              0.000              0.000
 Translational            0.889              2.981             41.875
 Rotational               0.889              2.981             31.661
 Vibrational            219.920             48.230             40.606
 Vibration     1          0.595              1.979              4.994
 Vibration     2          0.597              1.973              4.435
 Vibration     3          0.601              1.958              3.727
 Vibration     4          0.605              1.945              3.355
 Vibration     5          0.615              1.913              2.804
 Vibration     6          0.620              1.895              2.591
 Vibration     7          0.631              1.861              2.285
 Vibration     8          0.637              1.842              2.146
 Vibration     9          0.682              1.704              1.511
 Vibration    10          0.701              1.648              1.345
 Vibration    11          0.708              1.630              1.296
 Vibration    12          0.756              1.497              1.010
 Vibration    13          0.783              1.425              0.889
 Vibration    14          0.816              1.343              0.772
 Vibration    15          0.827              1.316              0.737
 Vibration    16          0.884              1.185              0.588
 Vibration    17          0.909              1.131              0.536
 Vibration    18          0.970              1.009              0.431

 Optimization completed.
    -- Stationary point found.
 Normal termination of Gaussian 16 at Thu Dec 10 15:15:28 2020.

 ----------------------------------------------------------------------
 # B3LYP/6-311++G(d,p) empiricaldispersion=gd3bj scf=xqc pop=npa geom=c
 heck
 ----------------------------------------------------------------------

 ---------------------------------------
 CID_121183454_JID_5202_Energie_neutraal
 ---------------------------------------
 Structure from the checkpoint file:  "JID_5202.chk"
 Charge =  0 Multiplicity = 1

 SCF Done:  E(RB3LYP) =  -618.319285888     A.U. after   14 cycles
 Normal termination of Gaussian 16 at Thu Dec 10 15:23:18 2020.

 ----------------------------------------------------------------------
 # B3LYP/6-311++G(d,p) empiricaldispersion=gd3bj scf=xqc pop=npa geom=c
 heck
 ----------------------------------------------------------------------

 -------------------------------------
 CID_121183454_JID_5202_Energie_kation
 -------------------------------------
 Structure from the checkpoint file:  "JID_5202.chk"
 Charge =  1 Multiplicity = 2

 SCF Done:  E(UB3LYP) =  -618.054429553     A.U. after   24 cycles
 Normal termination of Gaussian 16 at Thu Dec 10 15:41:37 2020.
 Gaussian 16:  ES64L-G16RevA.03 25-Dec-2016

 ----------------------------------------------------------------------
 # B3LYP/6-311++G(d,p) empiricaldispersion=gd3bj scf=xqc pop=npa geom=c
 heck
 ----------------------------------------------------------------------

 ------------------------------------
 CID_121183454_JID_5202_Energie_anion
 ------------------------------------
 Structure from the checkpoint file:  "JID_5202.chk"
 Charge = -1 Multiplicity = 2

                         Standard orientation:
 ---------------------------------------------------------------------
 Center     Atomic      Atomic             Coordinates (Angstroms)
 Number     Number       Type             X           Y           Z
 ---------------------------------------------------------------------
      1          6           0       -2.013537    1.639034    0.273214
      2          6           0       -2.377691    1.030599   -1.099942
      3          6           0       -3.094010   -0.286418   -0.732142
      4          7           0       -2.495170   -0.749911    0.519678
      5          6           0       -2.165724    0.463643    1.281953
      6          6           0       -1.467197   -1.773719    0.409098
      7          6           0       -0.265037   -1.526678   -0.522709
      8          7           0        0.503526   -0.338989   -0.164212
      9          6           0        1.476285    0.091687   -1.184961
     10          6           0        2.740455   -0.801423   -0.966885
     11          6           0        2.595688   -1.321091    0.488175
     12          6           0        1.380109   -0.502455    1.011909
     13          6           0        1.845745    0.873897    1.439551
     14          6           0        2.029815    1.832408    0.528425
     15          6           0        1.766727    1.581808   -0.935990
     16          1           0       -0.992701    2.024695    0.278324
     17          1           0       -2.689841    2.460527    0.534962
     18          1           0       -1.467122    0.819227   -1.667612
     19          1           0       -3.006137    1.691638   -1.706739
     20          1           0       -4.164121   -0.090036   -0.566929
     21          1           0       -3.023378   -1.058402   -1.505762
     22          1           0       -1.260204    0.309209    1.872137
     23          1           0       -2.984961    0.678729    1.983187
     24          1           0       -1.107433   -1.983401    1.423472
     25          1           0       -1.946056   -2.702122    0.067237
     26          1           0        0.338892   -2.454754   -0.547563
     27          1           0       -0.632862   -1.374538   -1.543885
     28          1           0        1.047308   -0.040043   -2.182742
     29          1           0        2.755399   -1.631100   -1.680159
     30          1           0        3.663471   -0.232276   -1.112064
     31          1           0        2.377857   -2.394483    0.509223
     32          1           0        3.493894   -1.155569    1.089455
     33          1           0        0.848136   -1.003290    1.824386
     34          1           0        2.068884    1.039184    2.491108
     35          1           0        2.371024    2.823013    0.823619
     36          1           0        2.629067    1.901157   -1.538340
     37          1           0        0.912614    2.187174   -1.271761
 ---------------------------------------------------------------------

 SCF Done:  E(UB3LYP) =  -618.303990385     A.U. after   33 cycles
 SCF Done:  E(UB3LYP) =  -618.303990385     a.u. after    1 cycles

 The electronic state is 2-A.
 Alpha  occ. eigenvalues --  -14.19511 -14.19316 -10.09736 -10.09396 -10.08951
 Alpha  occ. eigenvalues --  -10.08787 -10.08572 -10.08282 -10.06752 -10.06716
 Alpha  occ. eigenvalues --  -10.06428 -10.06288 -10.06051 -10.05988 -10.05685
 Alpha  occ. eigenvalues --   -0.84340  -0.82098  -0.70646  -0.67373  -0.65988
 Alpha  occ. eigenvalues --   -0.65450  -0.61919  -0.60914  -0.54932  -0.53663
 Alpha  occ. eigenvalues --   -0.49451  -0.47670  -0.47462  -0.45777  -0.41668
 Alpha  occ. eigenvalues --   -0.40821  -0.39038  -0.37186  -0.36042  -0.35425
 Alpha  occ. eigenvalues --   -0.35196  -0.33668  -0.32492  -0.31338  -0.30584
 Alpha  occ. eigenvalues --   -0.29992  -0.29314  -0.28700  -0.28312  -0.25409
 Alpha  occ. eigenvalues --   -0.25183  -0.24665  -0.23961  -0.23742  -0.23193
 Alpha  occ. eigenvalues --   -0.22725  -0.22252  -0.21807  -0.21288  -0.14605
 Alpha  occ. eigenvalues --   -0.12028  -0.10256   0.04472
 Alpha virt. eigenvalues --    0.06715   0.06931   0.07045   0.08505   0.08780
 Alpha virt. eigenvalues --    0.09036   0.09155   0.09369   0.10467   0.10802
 Alpha virt. eigenvalues --    0.11171   0.11632   0.11959   0.12031   0.12250

  Beta  occ. eigenvalues --  -14.19509 -14.19316 -10.09727 -10.09387 -10.08936
  Beta  occ. eigenvalues --  -10.08771 -10.08549 -10.08275 -10.06737 -10.06700
  Beta  occ. eigenvalues --  -10.06418 -10.06266 -10.06029 -10.05977 -10.05679
  Beta  occ. eigenvalues --   -0.84323  -0.82088  -0.70613  -0.67349  -0.65956
  Beta  occ. eigenvalues --   -0.65416  -0.61896  -0.60879  -0.54889  -0.53617
  Beta  occ. eigenvalues --   -0.49412  -0.47641  -0.47413  -0.45737  -0.41608
  Beta  occ. eigenvalues --   -0.40788  -0.39009  -0.37155  -0.36011  -0.35381
  Beta  occ. eigenvalues --   -0.35168  -0.33643  -0.32466  -0.31308  -0.30548
  Beta  occ. eigenvalues --   -0.29967  -0.29279  -0.28671  -0.28287  -0.25382
  Beta  occ. eigenvalues --   -0.25159  -0.24631  -0.23941  -0.23715  -0.23166
  Beta  occ. eigenvalues --   -0.22693  -0.22223  -0.21781  -0.21264  -0.14575
  Beta  occ. eigenvalues --   -0.12006  -0.10232
  Beta virt. eigenvalues --    0.06523   0.07299   0.07605   0.07815   0.09004
  Beta virt. eigenvalues --    0.09159   0.09343   0.09555   0.09872   0.10596
  Beta virt. eigenvalues --    0.11096   0.11497   0.11888   0.12230   0.12289

 Mulliken charges and spin densities:
               1          2
     1  C   -0.103912  -0.296890
     2  C   -0.153927   0.084689
     3  C    0.163851  -0.614162
     4  N    0.157332   0.067441
     5  C   -0.236422  -0.006177
     6  C   -0.314798  -0.522210
     7  C    0.197204  -0.202212
     8  N    0.385597  -0.006847
     9  C   -1.270593   1.385428
    10  C    0.871314  -1.414512
    11  C    0.624061  -1.236505
    12  C   -0.352395   0.419656
    13  C   -0.044591  -0.301090
    14  C    0.222243  -0.263914
    15  C    1.036966  -1.633970
    16  H    0.055665   0.036282
    17  H    0.065552   0.083836
    18  H    0.193031  -0.066103
    19  H   -0.216688   0.390834
    20  H    0.146477  -0.000762
    21  H   -0.224185   0.360309
    22  H    0.077140   0.043767
    23  H   -0.046913   0.210083
    24  H   -0.113734   0.260028
    25  H   -0.140799   0.304061
    26  H    0.000166   0.122800
    27  H   -0.036939   0.199058
    28  H   -0.496573   0.701882
    29  H   -0.218178   0.386762
    30  H   -0.070263   0.208914
    31  H   -0.145750   0.284902
    32  H   -0.138547   0.310214
    33  H    0.094327   0.095630
    34  H   -0.492723   0.652762
    35  H   -0.254607   0.435532
    36  H   -0.395969   0.560152
    37  H    0.177578  -0.039669
 Sum of Mulliken charges =  -1.00000   1.00000

 Dipole moment (field-independent basis, Debye):
    X=             -2.9803    Y=              0.8500    Z=              1.0213  Tot=              3.2630
 Quadrupole moment (field-independent basis, Debye-Ang):
   XX=           -156.6906   YY=           -140.4749   ZZ=           -139.0331
   XY=             -2.4542   XZ=              0.0290   YZ=             -1.8943

 Summary of Natural Population Analysis:

                                       Natural Population
                Natural  -----------------------------------------------
    Atom  No    Charge         Core      Valence    Rydberg      Total
 -----------------------------------------------------------------------
      C    1   -0.20099      0.99963     2.19435    0.00701     3.20099
      C    2   -0.20114      0.99964     2.19422    0.00728     3.20114
      C    3   -0.08520      0.99963     2.07508    0.01049     3.08520
      N    4   -0.28213      0.99974     2.76958    0.01282     3.78213
      C    5   -0.08129      0.99962     2.07246    0.00920     3.08129
      C    6   -0.08124      0.99960     2.06896    0.01268     3.08124
      C    7   -0.09536      0.99959     2.08384    0.01193     3.09536
      N    8   -0.29798      0.99971     2.78014    0.01813     3.79798
      C    9   -0.00302      0.99960     1.98932    0.01410     3.00302
      C   10   -0.20337      0.99962     2.19524    0.00851     3.20337
      C   11   -0.19524      0.99962     2.18778    0.00785     3.19524
      C   12   -0.02517      0.99957     2.01127    0.01433     3.02517
      C   13   -0.09636      0.99949     2.08493    0.01194     3.09636
      C   14   -0.08573      0.99951     2.07602    0.01020     3.08573
      C   15   -0.20711      0.99959     2.19728    0.01024     3.20711
      H   16    0.10805      0.00000     0.39026    0.00170     0.39195
      H   17    0.08952      0.00000     0.40909    0.00140     0.41048
      H   18    0.09909      0.00000     0.39894    0.00197     0.40091
      H   19    0.09449      0.00000     0.40427    0.00124     0.40551
      H   20    0.08674      0.00000     0.41225    0.00102     0.41326
      H   21    0.09664      0.00000     0.40243    0.00093     0.40336
      H   22    0.09916      0.00000     0.39958    0.00126     0.40084
      H   23    0.08399      0.00000     0.41474    0.00127     0.41601
      H   24    0.09368      0.00000     0.40505    0.00127     0.40632
      H   25    0.09386      0.00000     0.40492    0.00123     0.40614
      H   26    0.08621      0.00000     0.41191    0.00189     0.41379
      H   27    0.09593      0.00000     0.40236    0.00171     0.40407
      H   28    0.10189      0.00000     0.39635    0.00176     0.39811
      H   29    0.10325      0.00000     0.39532    0.00143     0.39675
      H   30    0.10039      0.00000     0.39828    0.00134     0.39961
      H   31    0.09882      0.00000     0.39969    0.00148     0.40118
      H   32    0.10242      0.00000     0.39638    0.00121     0.39758
      H   33    0.10356      0.00000     0.39447    0.00197     0.39644
      H   34    0.10028      0.00000     0.39858    0.00114     0.39972
      H   35    0.09722      0.00000     0.40171    0.00107     0.40278
      H   36    0.10233      0.00000     0.39622    0.00145     0.39767
      H   37    0.10384      0.00000     0.39479    0.00136     0.39616
 =======================================================================
   * Total *    0.00000     14.99415    41.80806    0.19779    57.00000

 Normal termination of Gaussian 16 at Thu Dec 10 16:07:15 2020.
