 Gaussian 16, Revision A.03,

 -----------------------------------------------------------
 # opt freq B3LYP/6-31G(d) empiricaldispersion=gd3bj scf=xqc
 -----------------------------------------------------------

 -----------------------------
 CID_54019861_JID_288_neutraal
 -----------------------------
 Symbolic Z-matrix:
 Charge =  0 Multiplicity = 1

 SCF Done:  E(RB3LYP) =  -409.166908365     A.U. after   13 cycles
 SCF Done:  E(RB3LYP) =  -409.169703391     A.U. after   11 cycles
 SCF Done:  E(RB3LYP) =  -409.170192401     A.U. after   11 cycles
 SCF Done:  E(RB3LYP) =  -409.170552704     A.U. after   11 cycles
 SCF Done:  E(RB3LYP) =  -409.170707067     A.U. after   11 cycles
 SCF Done:  E(RB3LYP) =  -409.170795454     A.U. after   10 cycles
 SCF Done:  E(RB3LYP) =  -409.170840792     A.U. after   10 cycles
 SCF Done:  E(RB3LYP) =  -409.170861007     A.U. after   10 cycles
 SCF Done:  E(RB3LYP) =  -409.170874426     A.U. after   10 cycles
 SCF Done:  E(RB3LYP) =  -409.170878404     A.U. after    9 cycles
 SCF Done:  E(RB3LYP) =  -409.170880003     A.U. after    8 cycles
 SCF Done:  E(RB3LYP) =  -409.170881061     A.U. after    9 cycles
 SCF Done:  E(RB3LYP) =  -409.170881414     A.U. after    8 cycles
 SCF Done:  E(RB3LYP) =  -409.170881462     A.U. after    7 cycles
 Optimization completed.
    -- Stationary point found.

 1\1\GINC-NODE108\FOpt\RB3LYP\6-31G(d)\C9H19N1\VSC10255\08-Dec-2020\0\\
 # opt freq B3LYP/6-31G(d) empiricaldispersion=gd3bj scf=xqc\\CID_54019
 861_JID_288_neutraal\\0,1\C,1.0706596419,-0.1628750602,0.0932932707\C,
 0.65328372,0.0908001241,-1.3260055184\C,0.0498821723,-0.794689146,-2.1
 188118018\C,-0.3484147391,-0.5522760744,-3.5528305093\C,0.4971813389,-
 1.4444575046,-4.4876804806\N,-1.8037226317,-0.703298095,-3.6599196991\
 C,-2.4361570084,-0.438880465,-4.9468713781\C,-2.5729273804,-1.60185409
 27,-5.9575432604\C,-3.372135704,-2.7689220547,-5.366678984\C,-3.233517

 Normal termination of Gaussian 16 at Tue Dec  8 10:24:37 2020.

 --------------------------------------------------------------------
 #N Geom=AllCheck Guess=TCheck SCRF=Check GenChk RB3LYP/6-31G(d) Freq
 --------------------------------------------------------------------

 Structure from the checkpoint file:  "JID_288.chk"
 -----------------------------
 CID_54019861_JID_288_neutraal
 -----------------------------
 Charge =  0 Multiplicity = 1

 SCF Done:  E(RB3LYP) =  -409.170881462     A.U. after    1 cycles

  Exact polarizability: 139.946   0.412  87.770   4.482  -4.470  89.338
 Approx polarizability: 162.444  -2.581 126.722  10.197  -8.527 131.693

                      1                      2                      3
                      A                      A                      A
 Frequencies --     18.9464                46.6275                54.0594
 Red. masses --      2.8013                 2.8845                 2.6169
 Frc consts  --      0.0006                 0.0037                 0.0045
 IR Inten    --      0.0917                 0.4261                 0.2819

                      4                      5                      6
                      A                      A                      A
 Frequencies --    108.5970               145.1084               190.5906
 Red. masses --      2.1245                 2.0406                 2.1757
 Frc consts  --      0.0148                 0.0253                 0.0466
 IR Inten    --      0.4888                 0.3741                 0.0903

                      7                      8                      9
                      A                      A                      A
 Frequencies --    210.2344               225.2211               242.6333
 Red. masses --      1.3149                 1.1281                 1.3757
 Frc consts  --      0.0342                 0.0337                 0.0477
 IR Inten    --      0.6104                 0.5674                 0.6194

                     10                     11                     12
                      A                      A                      A
 Frequencies --    248.4310               288.2189               298.4922
 Red. masses --      2.1668                 1.1949                 1.7306
 Frc consts  --      0.0788                 0.0585                 0.0908
 IR Inten    --      0.8673                 0.1098                 2.9853

                     13                     14                     15
                      A                      A                      A
 Frequencies --    303.5823               379.4627               411.1038
 Red. masses --      2.5429                 2.2854                 2.2102
 Frc consts  --      0.1381                 0.1939                 0.2201
 IR Inten    --      5.3802                 2.1871                 3.2703

                     16                     17                     18
                      A                      A                      A
 Frequencies --    415.4216               462.1607               501.3850
 Red. masses --      1.9929                 2.0108                 2.9919
 Frc consts  --      0.2026                 0.2531                 0.4431
 IR Inten    --      0.8898                 6.6254                 0.9188

                     19                     20                     21
                      A                      A                      A
 Frequencies --    572.2371               644.2180               810.3451
 Red. masses --      2.7813                 1.6470                 1.7039
 Frc consts  --      0.5366                 0.4027                 0.6592
 IR Inten    --      3.5793               100.4284                 1.4790

                     22                     23                     24
                      A                      A                      A
 Frequencies --    823.6288               857.5407               902.4319
 Red. masses --      2.6085                 1.6674                 1.6088
 Frc consts  --      1.0426                 0.7224                 0.7719
 IR Inten    --      8.2152                16.0444                 4.1454

                     25                     26                     27
                      A                      A                      A
 Frequencies --    928.2356               937.1379               955.7790
 Red. masses --      1.6632                 1.2763                 1.7054
 Frc consts  --      0.8443                 0.6604                 0.9179
 IR Inten    --      0.9028                 1.0994                 4.8832

                     28                     29                     30
                      A                      A                      A
 Frequencies --    977.6220               988.7154              1009.0241
 Red. masses --      1.4356                 1.5751                 1.0880
 Frc consts  --      0.8084                 0.9072                 0.6526
 IR Inten    --      1.1221                12.9685                24.8527

                     31                     32                     33
                      A                      A                      A
 Frequencies --   1068.1574              1079.7016              1088.3585
 Red. masses --      2.4854                 1.5384                 2.1768
 Frc consts  --      1.6708                 1.0566                 1.5192
 IR Inten    --      9.5488                 0.3893                 4.9999

                     34                     35                     36
                      A                      A                      A
 Frequencies --   1126.7697              1144.7926              1165.4370
 Red. masses --      2.4246                 2.1315                 2.2050
 Frc consts  --      1.8137                 1.6458                 1.7645
 IR Inten    --      3.7564                32.9728                 2.6137

                     37                     38                     39
                      A                      A                      A
 Frequencies --   1191.9980              1201.8113              1217.0879
 Red. masses --      2.2186                 1.9040                 2.0834
 Frc consts  --      1.8573                 1.6203                 1.8183
 IR Inten    --     73.1492                 3.8771                 3.6238

                     40                     41                     42
                      A                      A                      A
 Frequencies --   1273.4527              1327.6104              1341.8094
 Red. masses --      1.2865                 1.3508                 1.3217
 Frc consts  --      1.2292                 1.4027                 1.4020
 IR Inten    --      6.4752                 2.3509                 2.6559

                     43                     44                     45
                      A                      A                      A
 Frequencies --   1345.1504              1374.1833              1384.1764
 Red. masses --      1.2805                 1.2537                 1.3821
 Frc consts  --      1.3651                 1.3948                 1.5602
 IR Inten    --      1.6326                 5.6220                 2.5264

                     46                     47                     48
                      A                      A                      A
 Frequencies --   1397.2013              1416.3899              1423.7564
 Red. masses --      1.2682                 1.2750                 1.2304
 Frc consts  --      1.4587                 1.5070                 1.4695
 IR Inten    --      8.8205                 3.5355                 5.9997

                     49                     50                     51
                      A                      A                      A
 Frequencies --   1429.7144              1442.4477              1449.3651
 Red. masses --      1.2944                 1.2643                 1.2377
 Frc consts  --      1.5589                 1.5499                 1.5319
 IR Inten    --      6.5315                 2.7741                 6.3520

                     52                     53                     54
                      A                      A                      A
 Frequencies --   1507.9064              1510.0077              1512.6543
 Red. masses --      1.0821                 1.0455                 1.1340
 Frc consts  --      1.4497                 1.4046                 1.5288
 IR Inten    --     10.7300                 5.8194                22.8217

                     55                     56                     57
                      A                      A                      A
 Frequencies --   1517.8938              1521.8640              1524.2443
 Red. masses --      1.0530                 1.0583                 1.0573
 Frc consts  --      1.4294                 1.4441                 1.4473
 IR Inten    --      0.1645                 0.7160                 6.5913

                     58                     59                     60
                      A                      A                      A
 Frequencies --   1528.0059              1532.6336              1535.0858
 Red. masses --      1.0578                 1.0982                 1.0645
 Frc consts  --      1.4552                 1.5198                 1.4780
 IR Inten    --      9.4081                18.1787                 9.4845

                     61                     62                     63
                      A                      A                      A
 Frequencies --   1544.9612              1767.8456              2995.3098
 Red. masses --      1.0581                 6.0353                 1.0689
 Frc consts  --      1.4881                11.1132                 5.6505
 IR Inten    --     12.2908                 4.9135                52.4532

                     64                     65                     66
                      A                      A                      A
 Frequencies --   3029.2607              3031.2586              3034.7383
 Red. masses --      1.0833                 1.0380                 1.0358
 Frc consts  --      5.8568                 5.6196                 5.6206
 IR Inten    --     13.5769                44.7909                35.3198

                     67                     68                     69
                      A                      A                      A
 Frequencies --   3039.2220              3041.5579              3056.0617
 Red. masses --      1.0380                 1.0378                 1.0805
 Frc consts  --      5.6489                 5.6567                 5.9458
 IR Inten    --     21.4752                17.1498                20.8583

                     70                     71                     72
                      A                      A                      A
 Frequencies --   3066.9499              3077.6518              3098.0307
 Red. masses --      1.0941                 1.1001                 1.1014
 Frc consts  --      6.0634                 6.1393                 6.2282
 IR Inten    --     28.9784                26.4645                20.1359

                     73                     74                     75
                      A                      A                      A
 Frequencies --   3103.8188              3107.6864              3109.3573
 Red. masses --      1.1005                 1.1021                 1.0990
 Frc consts  --      6.2467                 6.2714                 6.2604
 IR Inten    --     78.6990                18.2153                19.2436

                     76                     77                     78
                      A                      A                      A
 Frequencies --   3111.6779              3113.6067              3115.3828
 Red. masses --      1.1011                 1.0969                 1.0926
 Frc consts  --      6.2814                 6.2651                 6.2478
 IR Inten    --     64.7868                 3.9950                43.9301

                     79                     80                     81
                      A                      A                      A
 Frequencies --   3126.1281              3142.0320              3519.5990
 Red. masses --      1.1007                 1.0896                 1.0731
 Frc consts  --      6.3379                 6.3380                 7.8322
 IR Inten    --     41.8152                43.8694                 0.6439

 - Thermochemistry -
 -------------------
 Temperature   298.150 Kelvin.  Pressure   1.00000 Atm.
 Atom     1 has atomic number  6 and mass  12.00000

 Molecular mass:   141.15175 amu.
 Principal axes and moments of inertia in atomic units:
                           1         2         3
     Eigenvalues --   557.616223860.108793930.26950
           X            1.00000   0.00129  -0.00121
           Y           -0.00142   0.99365  -0.11252
           Z            0.00106   0.11252   0.99365
 This molecule is an asymmetric top.
 Rotational symmetry number  1.
 Warning -- assumption of classical behavior for rotation
           may cause significant error
 Rotational temperatures (Kelvin)      0.15533     0.02244     0.02204
 Rotational constants (GHZ):           3.23653     0.46754     0.45919
 Zero-point vibrational energy     704415.0 (Joules/Mol)
                                  168.35923 (Kcal/Mol)
 Warning -- explicit consideration of  19 degrees of freedom as
           vibrations may cause significant error
 Vibrational temperatures:     27.26    67.09    77.78   156.25   208.78
          (Kelvin)            274.22   302.48   324.04   349.10   357.44
                              414.68   429.46   436.79   545.96   591.49
                              597.70   664.95   721.38   823.32   926.89
                             1165.91  1185.02  1233.81  1298.40  1335.52
                             1348.33  1375.15  1406.58  1422.54  1451.76
                             1536.84  1553.45  1565.91  1621.17  1647.10
                             1676.80  1715.02  1729.14  1751.12  1832.21
                             1910.14  1930.56  1935.37  1977.14  1991.52
                             2010.26  2037.87  2048.47  2057.04  2075.36
                             2085.31  2169.54  2172.56  2176.37  2183.91
                             2189.62  2193.05  2198.46  2205.12  2208.65
                             2222.85  2543.54  4309.58  4358.43  4361.30
                             4366.31  4372.76  4376.12  4396.99  4412.66
                             4428.05  4457.38  4465.70  4471.27  4473.67
                             4477.01  4479.79  4482.34  4497.80  4520.68
                             5063.92

 Zero-point correction=                           0.268298 (Hartree/Particle)
 Thermal correction to Energy=                    0.281539
 Thermal correction to Enthalpy=                  0.282483
 Thermal correction to Gibbs Free Energy=         0.227845
 Sum of electronic and zero-point Energies=           -408.902584
 Sum of electronic and thermal Energies=              -408.889342
 Sum of electronic and thermal Enthalpies=            -408.888398
 Sum of electronic and thermal Free Energies=         -408.943036

                     E (Thermal)             CV                S
                      KCal/Mol        Cal/Mol-Kelvin    Cal/Mol-Kelvin
 Total                  176.669             47.943            114.996
 Electronic               0.000              0.000              0.000
 Translational            0.889              2.981             40.745
 Rotational               0.889              2.981             30.515
 Vibrational            174.891             41.982             43.735
 Vibration     1          0.593              1.986              6.742
 Vibration     2          0.595              1.979              4.956
 Vibration     3          0.596              1.976              4.663
 Vibration     4          0.606              1.942              3.294
 Vibration     5          0.616              1.908              2.735
 Vibration     6          0.634              1.853              2.222
 Vibration     7          0.642              1.825              2.042
 Vibration     8          0.650              1.803              1.917
 Vibration     9          0.659              1.775              1.783
 Vibration    10          0.662              1.765              1.742
 Vibration    11          0.685              1.696              1.484
 Vibration    12          0.692              1.677              1.425
 Vibration    13          0.695              1.667              1.397
 Vibration    14          0.749              1.514              1.041
 Vibration    15          0.775              1.446              0.923
 Vibration    16          0.779              1.437              0.908
 Vibration    17          0.820              1.334              0.760
 Vibration    18          0.857              1.247              0.655
 Vibration    19          0.928              1.091              0.500

 Optimization completed.
    -- Stationary point found.

 1\1\GINC-NODE108\Freq\RB3LYP\6-31G(d)\C9H19N1\VSC10255\08-Dec-2020\0\\
 #N Geom=AllCheck Guess=TCheck SCRF=Check GenChk RB3LYP/6-31G(d) Freq\\
 CID_54019861_JID_288_neutraal\\0,1\C,1.0706596419,-0.1628750602,0.0932
 932707\C,0.65328372,0.0908001241,-1.3260055184\C,0.0498821723,-0.79468
 9146,-2.1188118018\C,-0.3484147391,-0.5522760744,-3.5528305093\C,0.497
 1813389,-1.4444575046,-4.4876804806\N,-1.8037226317,-0.703298095,-3.65
 99196991\C,-2.4361570084,-0.438880465,-4.9468713781\C,-2.5729273804,-1
 .6018540927,-5.9575432604\C,-3.372135704,-2.7689220547,-5.366678984\C,

 Normal termination of Gaussian 16 at Tue Dec  8 10:30:06 2020.

 ----------------------------------------------------------------------
 # B3LYP/6-311++G(d,p) empiricaldispersion=gd3bj scf=xqc pop=npa geom=c
 heck
 ----------------------------------------------------------------------

 -------------------------------------
 CID_54019861_JID_288_Energie_neutraal
 -------------------------------------
 Structure from the checkpoint file:  "JID_288.chk"
 Charge =  0 Multiplicity = 1

 SCF Done:  E(RB3LYP) =  -409.291593263     A.U. after   13 cycles
 Normal termination of Gaussian 16 at Tue Dec  8 10:32:56 2020.

 ----------------------------------------------------------------------
 # B3LYP/6-311++G(d,p) empiricaldispersion=gd3bj scf=xqc pop=npa geom=c
 heck
 ----------------------------------------------------------------------

 -----------------------------------
 CID_54019861_JID_288_Energie_kation
 -----------------------------------
 Structure from the checkpoint file:  "JID_288.chk"
 Charge =  1 Multiplicity = 2

 SCF Done:  E(UB3LYP) =  -409.000401771     A.U. after   21 cycles
 Normal termination of Gaussian 16 at Tue Dec  8 10:42:02 2020.
 Gaussian 16:  ES64L-G16RevA.03 25-Dec-2016

 ----------------------------------
 CID_54019861_JID_288_Energie_anion
 ----------------------------------
 Structure from the checkpoint file:  "JID_288.chk"
 Charge = -1 Multiplicity = 2

                         Standard orientation:
 ---------------------------------------------------------------------
 Center     Atomic      Atomic             Coordinates (Angstroms)
 Number     Number       Type             X           Y           Z
 ---------------------------------------------------------------------
      1          6           0       -4.636137   -0.550008   -0.037014
      2          6           0       -3.322312    0.070315   -0.413877
      3          6           0       -2.169100   -0.126175    0.225044
      4          6           0       -0.852375    0.514499   -0.134938
      5          6           0       -0.421543    1.487236    0.984496
      6          7           0        0.102479   -0.548106   -0.468586
      7          6           0        1.433471   -0.166758   -0.925934
      8          6           0        2.545454    0.047137    0.127828
      9          6           0        2.772492   -1.213943    0.969274
     10          6           0        3.840497    0.470745   -0.575540
     11          1           0       -4.536095   -1.198306    0.840062
     12          1           0       -5.041259   -1.152831   -0.860800
     13          1           0       -5.389112    0.216467    0.191248
     14          1           0       -3.332787    0.729668   -1.283504
     15          1           0       -2.149371   -0.783162    1.098991
     16          1           0       -0.996828    1.101772   -1.052402
     17          1           0       -0.218132    0.942241    1.914879
     18          1           0        0.482110    2.039740    0.709027
     19          1           0       -1.215979    2.215305    1.184535
     20          1           0        0.148390   -1.236558    0.277841
     21          1           0        1.791304   -0.945026   -1.618959
     22          1           0        1.324394    0.746069   -1.525881
     23          1           0        2.243182    0.855664    0.804428
     24          1           0        3.058072   -2.062111    0.333144
     25          1           0        3.573526   -1.060136    1.701117
     26          1           0        1.873502   -1.500608    1.527778
     27          1           0        3.699263    1.394139   -1.149945
     28          1           0        4.647685    0.643049    0.145447
     29          1           0        4.178104   -0.306917   -1.272940
 ---------------------------------------------------------------------

 SCF Done:  E(UB3LYP) =  -409.273673699     A.U. after   31 cycles

 The electronic state is 2-A.
 Alpha  occ. eigenvalues --  -14.19186 -10.10327 -10.08893 -10.07322 -10.07007
 Alpha  occ. eigenvalues --  -10.06920 -10.06732 -10.05759 -10.05731 -10.05706
 Alpha  occ. eigenvalues --   -0.80620  -0.70879  -0.68777  -0.64452  -0.58728
 Alpha  occ. eigenvalues --   -0.58540  -0.56228  -0.49805  -0.46944  -0.45763
 Alpha  occ. eigenvalues --   -0.39799  -0.36518  -0.35447  -0.34447  -0.33256
 Alpha  occ. eigenvalues --   -0.31705  -0.31425  -0.30527  -0.29797  -0.29625
 Alpha  occ. eigenvalues --   -0.28612  -0.27652  -0.26507  -0.25124  -0.24748
 Alpha  occ. eigenvalues --   -0.23607  -0.23115  -0.22008  -0.15368  -0.11726
 Alpha  occ. eigenvalues --    0.04602
 Alpha virt. eigenvalues --    0.06109   0.07308   0.07927   0.08538   0.08806
 Alpha virt. eigenvalues --    0.09334   0.10226   0.10327   0.10500   0.10853
 Alpha virt. eigenvalues --    0.11535   0.11722   0.12375   0.13111   0.13787

  Beta  occ. eigenvalues --  -14.19178 -10.10322 -10.08883 -10.07313 -10.06996
  Beta  occ. eigenvalues --  -10.06885 -10.06725 -10.05725 -10.05708 -10.05671
  Beta  occ. eigenvalues --   -0.80604  -0.70854  -0.68746  -0.64418  -0.58677
  Beta  occ. eigenvalues --   -0.58475  -0.56180  -0.49756  -0.46887  -0.45711
  Beta  occ. eigenvalues --   -0.39766  -0.36491  -0.35399  -0.34414  -0.33218
  Beta  occ. eigenvalues --   -0.31666  -0.31381  -0.30484  -0.29762  -0.29591
  Beta  occ. eigenvalues --   -0.28579  -0.27617  -0.26469  -0.25093  -0.24708
  Beta  occ. eigenvalues --   -0.23566  -0.23079  -0.21966  -0.15344  -0.11708
  Beta virt. eigenvalues --    0.06698   0.07139   0.07875   0.08384   0.08922
  Beta virt. eigenvalues --    0.09492   0.09859   0.10318   0.10654   0.10934
  Beta virt. eigenvalues --    0.11510   0.11776   0.12005   0.12690   0.13543

 Mulliken charges and spin densities:
               1          2
     1  C    1.715963  -2.429011
     2  C   -0.697592   0.655017
     3  C    0.245623   0.066524
     4  C   -1.438403   0.998656
     5  C    0.817760  -1.452305
     6  N    0.088274   0.023737
     7  C    0.612648  -1.142752
     8  C   -1.666347   2.110907
     9  C    0.938123  -1.530426
    10  C    0.855801  -1.440586
    11  H   -0.282209   0.424753
    12  H   -0.126146   0.261205
    13  H   -0.347564   0.492860
    14  H   -0.246399   0.373239
    15  H   -0.185287   0.317015
    16  H    0.058485   0.091278
    17  H   -0.241960   0.418110
    18  H   -0.237640   0.364681
    19  H    0.031206   0.112819
    20  H    0.153586   0.001351
    21  H    0.052045   0.122010
    22  H    0.097755   0.033218
    23  H    0.276345  -0.147840
    24  H   -0.071526   0.212933
    25  H   -0.421726   0.567680
    26  H   -0.184577   0.294206
    27  H   -0.387747   0.520174
    28  H   -0.395335   0.545731
    29  H   -0.013156   0.134816
 Sum of Mulliken charges =  -1.00000   1.00000

 Dipole moment (field-independent basis, Debye):
    X=             -0.4280    Y=             -0.2915    Z=             -2.1873  Tot=              2.2478
 Quadrupole moment (field-independent basis, Debye-Ang):
   XX=           -169.0914   YY=           -100.3344   ZZ=           -101.1619
   XY=             -3.9806   XZ=             -1.8348   YZ=              0.5339

 Summary of Natural Population Analysis:

                                       Natural Population
                Natural  -----------------------------------------------
    Atom  No    Charge         Core      Valence    Rydberg      Total
 -----------------------------------------------------------------------
      C    1   -0.29956      0.99965     2.29403    0.00588     3.29956
      C    2   -0.08536      0.99952     2.07673    0.00912     3.08536
      C    3   -0.08833      0.99949     2.07747    0.01138     3.08833
      C    4   -0.02049      0.99958     2.00826    0.01265     3.02049
      C    5   -0.29287      0.99965     2.28729    0.00593     3.29287
      N    6   -0.34074      0.99973     2.82986    0.01114     3.84074
      C    7   -0.08279      0.99960     2.07233    0.01086     3.08279
      C    8   -0.12617      0.99961     2.11720    0.00937     3.12617
      C    9   -0.28665      0.99965     2.28044    0.00656     3.28665
      C   10   -0.28445      0.99965     2.27843    0.00637     3.28445
      H   11    0.10075      0.00000     0.39800    0.00125     0.39925
      H   12    0.10093      0.00000     0.39796    0.00110     0.39907
      H   13    0.10310      0.00000     0.39530    0.00160     0.39690
      H   14    0.08877      0.00000     0.40998    0.00125     0.41123
      H   15    0.08944      0.00000     0.40932    0.00124     0.41056
      H   16    0.08845      0.00000     0.40929    0.00226     0.41155
      H   17    0.09757      0.00000     0.40094    0.00149     0.40243
      H   18    0.09920      0.00000     0.39943    0.00137     0.40080
      H   19    0.10086      0.00000     0.39813    0.00102     0.39914
      H   20    0.17197      0.00000     0.32487    0.00316     0.32803
      H   21    0.08848      0.00000     0.41025    0.00127     0.41152
      H   22    0.09312      0.00000     0.40554    0.00134     0.40688
      H   23    0.09494      0.00000     0.40261    0.00244     0.40506
      H   24    0.09485      0.00000     0.40410    0.00105     0.40515
      H   25    0.10284      0.00000     0.39595    0.00120     0.39716
      H   26    0.09636      0.00000     0.40218    0.00145     0.40364
      H   27    0.09919      0.00000     0.39959    0.00122     0.40081
      H   28    0.10192      0.00000     0.39682    0.00126     0.39808
      H   29    0.09468      0.00000     0.40419    0.00113     0.40532
 =======================================================================
   * Total *    0.00000      9.99613    29.88650    0.11737    40.00000

 Normal termination of Gaussian 16 at Tue Dec  8 10:52:43 2020.
