 Gaussian 16, Revision A.03,

 -----------------------------------------------------------
 # opt freq B3LYP/6-31G(d) empiricaldispersion=gd3bj scf=xqc
 -----------------------------------------------------------

 -------------------------------
 CID_116170265_JID_4091_neutraal
 -------------------------------
 Symbolic Z-matrix:
 Charge =  0 Multiplicity = 1

 SCF Done:  E(RB3LYP) =  -667.895435395     A.U. after   15 cycles
 SCF Done:  E(RB3LYP) =  -667.899173604     A.U. after   12 cycles
 SCF Done:  E(RB3LYP) =  -667.899739944     A.U. after   12 cycles
 SCF Done:  E(RB3LYP) =  -667.900063311     A.U. after   12 cycles
 SCF Done:  E(RB3LYP) =  -667.900249234     A.U. after   11 cycles
 SCF Done:  E(RB3LYP) =  -667.900473362     A.U. after   12 cycles
 SCF Done:  E(RB3LYP) =  -667.900573218     A.U. after   12 cycles
 SCF Done:  E(RB3LYP) =  -667.900637245     A.U. after   11 cycles
 SCF Done:  E(RB3LYP) =  -667.900786550     A.U. after   11 cycles
 SCF Done:  E(RB3LYP) =  -667.900925916     A.U. after   12 cycles
 SCF Done:  E(RB3LYP) =  -667.900951590     A.U. after   10 cycles
 SCF Done:  E(RB3LYP) =  -667.900954418     A.U. after    9 cycles
 SCF Done:  E(RB3LYP) =  -667.900955565     A.U. after   10 cycles
 SCF Done:  E(RB3LYP) =  -667.900956008     A.U. after    9 cycles
 SCF Done:  E(RB3LYP) =  -667.900956203     A.U. after    8 cycles
 SCF Done:  E(RB3LYP) =  -667.900956329     A.U. after    7 cycles
 Optimization completed.
    -- Stationary point found.
 Normal termination of Gaussian 16 at Thu Dec 10 09:19:36 2020.

 --------------------------------------------------------------------
 #N Geom=AllCheck Guess=TCheck SCRF=Check GenChk RB3LYP/6-31G(d) Freq
 --------------------------------------------------------------------

 Structure from the checkpoint file:  "JID_4091.chk"
 -------------------------------
 CID_116170265_JID_4091_neutraal
 -------------------------------
 Charge =  0 Multiplicity = 1

 SCF Done:  E(RB3LYP) =  -667.900956329     A.U. after    1 cycles

  Exact polarizability: 142.677  -7.860 102.716  -4.900  -4.812 105.827
 Approx polarizability: 190.439 -13.112 145.476  -9.756 -16.496 174.912

                      1                      2                      3
                      A                      A                      A
 Frequencies --     18.5843                28.0070                52.3562
 Red. masses --      3.9882                 5.0962                 4.2791
 Frc consts  --      0.0008                 0.0024                 0.0069
 IR Inten    --      1.5561                 1.1627                 1.4823

                      4                      5                      6
                      A                      A                      A
 Frequencies --     72.1208                85.5418               129.9471
 Red. masses --      3.9245                 3.3070                 1.8909
 Frc consts  --      0.0120                 0.0143                 0.0188
 IR Inten    --      5.2642                 1.4350                 0.8931

                      7                      8                      9
                      A                      A                      A
 Frequencies --    146.9033               189.1000               210.3344
 Red. masses --      3.5887                 3.1547                 2.8634
 Frc consts  --      0.0456                 0.0665                 0.0746
 IR Inten    --      1.3642                 2.0451                 4.3545

                     10                     11                     12
                      A                      A                      A
 Frequencies --    241.5487               256.5096               269.4642
 Red. masses --      1.4907                 2.6611                 1.2099
 Frc consts  --      0.0512                 0.1032                 0.0518
 IR Inten    --      0.1382                 1.0481                 1.8733

                     13                     14                     15
                      A                      A                      A
 Frequencies --    307.0955               333.0313               358.2789
 Red. masses --      1.2232                 2.2887                 2.3815
 Frc consts  --      0.0680                 0.1496                 0.1801
 IR Inten    --     71.8321                11.2669                32.1891

                     16                     17                     18
                      A                      A                      A
 Frequencies --    390.9322               409.0383               414.4281
 Red. masses --      1.1966                 2.7974                 3.1195
 Frc consts  --      0.1077                 0.2758                 0.3157
 IR Inten    --    111.5331                17.4444                10.9399

                     19                     20                     21
                      A                      A                      A
 Frequencies --    447.3869               470.4101               513.5868
 Red. masses --      2.9929                 2.7969                 4.3187
 Frc consts  --      0.3529                 0.3646                 0.6712
 IR Inten    --     18.3640                 3.2009                 0.5730

                     22                     23                     24
                      A                      A                      A
 Frequencies --    544.8071               669.6367               684.3856
 Red. masses --      3.2920                 3.8441                 2.9003
 Frc consts  --      0.5757                 1.0156                 0.8004
 IR Inten    --      4.3384                 2.5560                 3.2426

                     25                     26                     27
                      A                      A                      A
 Frequencies --    727.9168               739.4795               782.1742
 Red. masses --      2.5356                 3.4871                 2.2305
 Frc consts  --      0.7916                 1.1235                 0.8040
 IR Inten    --      2.5466                 5.0417                 4.8550

                     28                     29                     30
                      A                      A                      A
 Frequencies --    786.7156               839.6223               906.4859
 Red. masses --      1.7282                 1.3641                 1.8659
 Frc consts  --      0.6302                 0.5666                 0.9033
 IR Inten    --     14.8816                13.8258                15.0948

                     31                     32                     33
                      A                      A                      A
 Frequencies --    912.9633               933.4599               994.8316
 Red. masses --      1.6509                 1.7417                 2.0061
 Frc consts  --      0.8107                 0.8941                 1.1698
 IR Inten    --      4.6237                 5.5941                17.0427

                     34                     35                     36
                      A                      A                      A
 Frequencies --   1009.2832              1031.4235              1054.0888
 Red. masses --      2.0468                 3.3639                 4.1907
 Frc consts  --      1.2284                 2.1085                 2.7434
 IR Inten    --      0.6192                10.2827                22.7643

                     37                     38                     39
                      A                      A                      A
 Frequencies --   1068.5375              1070.2487              1090.6078
 Red. masses --      3.1242                 2.9599                 1.8261
 Frc consts  --      2.1017                 1.9975                 1.2797
 IR Inten    --    111.2112                18.5296                73.8922

                     40                     41                     42
                      A                      A                      A
 Frequencies --   1112.2459              1123.2147              1131.9009
 Red. masses --      2.3213                 2.0270                 2.0016
 Frc consts  --      1.6919                 1.5067                 1.5110
 IR Inten    --     33.3934                 5.0310                 2.6733

                     43                     44                     45
                      A                      A                      A
 Frequencies --   1155.1457              1163.2264              1206.2831
 Red. masses --      1.9739                 1.9205                 1.8461
 Frc consts  --      1.5518                 1.5311                 1.5827
 IR Inten    --     27.4717                47.9508                 9.9048

                     46                     47                     48
                      A                      A                      A
 Frequencies --   1239.7214              1259.5496              1286.5370
 Red. masses --      1.3856                 1.9490                 1.2671
 Frc consts  --      1.2547                 1.8218                 1.2357
 IR Inten    --      2.3046                28.1223                 6.4984

                     49                     50                     51
                      A                      A                      A
 Frequencies --   1302.6407              1324.3650              1342.6629
 Red. masses --      3.2968                 1.5206                 1.4321
 Frc consts  --      3.2961                 1.5713                 1.5211
 IR Inten    --     13.5328                 8.4290                21.1480

                     52                     53                     54
                      A                      A                      A
 Frequencies --   1364.7832              1379.0819              1384.2469
 Red. masses --      1.5678                 1.3873                 2.4368
 Frc consts  --      1.7205                 1.5545                 2.7511
 IR Inten    --      5.2118                 7.6191                 6.6130

                     55                     56                     57
                      A                      A                      A
 Frequencies --   1393.9224              1399.9018              1419.3165
 Red. masses --      1.4209                 1.6219                 1.4124
 Frc consts  --      1.6267                 1.8727                 1.6763
 IR Inten    --      2.9102                20.6611                31.0910

                     58                     59                     60
                      A                      A                      A
 Frequencies --   1432.6214              1440.4108              1449.7680
 Red. masses --      1.2272                 1.2429                 1.2711
 Frc consts  --      1.4840                 1.5194                 1.5741
 IR Inten    --     22.7869                 3.2340                49.8278

                     61                     62                     63
                      A                      A                      A
 Frequencies --   1456.9398              1490.2591              1509.2730
 Red. masses --      1.4740                 2.4664                 1.1273
 Frc consts  --      1.8435                 3.2273                 1.5130
 IR Inten    --    101.1996                 0.2516                 0.5424

                     64                     65                     66
                      A                      A                      A
 Frequencies --   1515.6055              1519.3331              1525.3871
 Red. masses --      1.0786                 1.1993                 1.0697
 Frc consts  --      1.4598                 1.6312                 1.4665
 IR Inten    --      2.6480                 9.1292                 1.6599

                     67                     68                     69
                      A                      A                      A
 Frequencies --   1529.8022              1537.6357              1539.3198
 Red. masses --      1.0413                 1.0623                 1.0584
 Frc consts  --      1.4358                 1.4797                 1.4775
 IR Inten    --      3.4678                 4.7077                 9.4156

                     70                     71                     72
                      A                      A                      A
 Frequencies --   1601.0678              3033.3125              3036.7842
 Red. masses --      5.7544                 1.0510                 1.0605
 Frc consts  --      8.6910                 5.6978                 5.7620
 IR Inten    --      5.9908                12.0160                33.2764

                     73                     74                     75
                      A                      A                      A
 Frequencies --   3043.5959              3047.4473              3058.3261
 Red. masses --      1.0397                 1.0675                 1.0773
 Frc consts  --      5.6744                 5.8411                 5.9370
 IR Inten    --     15.3561                12.3491                41.0112

                     76                     77                     78
                      A                      A                      A
 Frequencies --   3077.6375              3085.3672              3090.5850
 Red. masses --      1.0849                 1.0660                 1.1010
 Frc consts  --      6.0543                 5.9792                 6.1961
 IR Inten    --     10.3835                33.2332                 4.3779

                     79                     80                     81
                      A                      A                      A
 Frequencies --   3092.9947              3111.9687              3117.1621
 Red. masses --      1.0972                 1.1018                 1.0919
 Frc consts  --      6.1845                 6.2870                 6.2512
 IR Inten    --     37.1668                59.4469                29.3342

                     82                     83                     84
                      A                      A                      A
 Frequencies --   3123.3224              3143.2664              3154.1794
 Red. masses --      1.1017                 1.1031                 1.0995
 Frc consts  --      6.3318                 6.4213                 6.4452
 IR Inten    --     45.6949                15.1340                 5.9970

                     85                     86                     87
                      A                      A                      A
 Frequencies --   3298.4354              3704.1984              3721.7212
 Red. masses --      1.0991                 1.0658                 1.0659
 Frc consts  --      7.0455                 8.6162                 8.6986
 IR Inten    --      0.4510                33.8930                 8.5807

 - Thermochemistry -
 -------------------
 Temperature   298.150 Kelvin.  Pressure   1.00000 Atm.
 Atom     1 has atomic number  6 and mass  12.00000

 Molecular mass:   199.13208 amu.
 Principal axes and moments of inertia in atomic units:
                           1         2         3
     Eigenvalues --  1620.398684771.974465483.35538
           X            0.99962  -0.02709   0.00428
           Y            0.02706   0.99962   0.00607
           Z           -0.00445  -0.00595   0.99997
 This molecule is an asymmetric top.
 Rotational symmetry number  1.
 Warning -- assumption of classical behavior for rotation
           may cause significant error
 Rotational temperatures (Kelvin)      0.05345     0.01815     0.01580
 Rotational constants (GHZ):           1.11376     0.37820     0.32913
 Zero-point vibrational energy     703809.4 (Joules/Mol)
                                  168.21449 (Kcal/Mol)
 Warning -- explicit consideration of  22 degrees of freedom as
           vibrations may cause significant error
 Vibrational temperatures:     26.74    40.30    75.33   103.77   123.08
          (Kelvin)            186.96   211.36   272.07   302.62   347.53
                              369.06   387.70   441.84   479.16   515.48
                              562.46   588.51   596.27   643.69   676.82
                              738.94   783.86   963.46   984.68  1047.31
                             1063.95  1125.37  1131.91  1208.03  1304.23
                             1313.55  1343.04  1431.34  1452.13  1483.99
                             1516.60  1537.39  1539.85  1569.14  1600.27
                             1616.06  1628.55  1662.00  1673.62  1735.57
                             1783.68  1812.21  1851.04  1874.21  1905.47
                             1931.79  1963.62  1984.19  1991.62  2005.54
                             2014.15  2042.08  2061.22  2072.43  2085.89
                             2096.21  2144.15  2171.51  2180.62  2185.98
                             2194.69  2201.04  2212.31  2214.74  2303.58
                             4364.26  4369.26  4379.06  4384.60  4400.25
                             4428.03  4439.16  4446.66  4450.13  4477.43
                             4484.90  4493.76  4522.46  4538.16  4745.71
                             5329.52  5354.73

 Zero-point correction=                           0.268067 (Hartree/Particle)
 Thermal correction to Energy=                    0.283283
 Thermal correction to Enthalpy=                  0.284227
 Thermal correction to Gibbs Free Energy=         0.223862
 Sum of electronic and zero-point Energies=           -667.632889
 Sum of electronic and thermal Energies=              -667.617674
 Sum of electronic and thermal Enthalpies=            -667.616729
 Sum of electronic and thermal Free Energies=         -667.677094

                     E (Thermal)             CV                S
                      KCal/Mol        Cal/Mol-Kelvin    Cal/Mol-Kelvin
 Total                  177.763             55.831            127.048
 Electronic               0.000              0.000              0.000
 Translational            0.889              2.981             41.771
 Rotational               0.889              2.981             32.117
 Vibrational            175.985             49.870             53.160
 Vibration     1          0.593              1.986              6.780
 Vibration     2          0.593              1.984              5.966
 Vibration     3          0.596              1.977              4.726
 Vibration     4          0.598              1.967              4.095
 Vibration     5          0.601              1.959              3.760
 Vibration     6          0.612              1.923              2.947
 Vibration     7          0.617              1.906              2.712
 Vibration     8          0.633              1.855              2.237
 Vibration     9          0.642              1.825              2.041
 Vibration    10          0.658              1.777              1.791
 Vibration    11          0.666              1.752              1.685
 Vibration    12          0.674              1.729              1.600
 Vibration    13          0.697              1.660              1.378
 Vibration    14          0.715              1.610              1.245
 Vibration    15          0.733              1.558              1.130
 Vibration    16          0.759              1.490              0.997
 Vibration    17          0.773              1.451              0.930
 Vibration    18          0.778              1.439              0.911
 Vibration    19          0.807              1.367              0.804
 Vibration    20          0.827              1.316              0.736
 Vibration    21          0.869              1.220              0.625
 Vibration    22          0.900              1.151              0.555

 Optimization completed.
    -- Stationary point found.
 Normal termination of Gaussian 16 at Thu Dec 10 09:27:40 2020.

 ----------------------------------------------------------------------
 # B3LYP/6-311++G(d,p) empiricaldispersion=gd3bj scf=xqc pop=npa geom=c
 heck
 ----------------------------------------------------------------------

 ---------------------------------------
 CID_116170265_JID_4091_Energie_neutraal
 ---------------------------------------
 Structure from the checkpoint file:  "JID_4091.chk"
 Charge =  0 Multiplicity = 1

 SCF Done:  E(RB3LYP) =  -668.106447917     A.U. after   14 cycles
 Normal termination of Gaussian 16 at Thu Dec 10 09:30:51 2020.

 ----------------------------------------------------------------------
 # B3LYP/6-311++G(d,p) empiricaldispersion=gd3bj scf=xqc pop=npa geom=c
 heck
 ----------------------------------------------------------------------

 -------------------------------------
 CID_116170265_JID_4091_Energie_kation
 -------------------------------------
 Structure from the checkpoint file:  "JID_4091.chk"
 Charge =  1 Multiplicity = 2

 SCF Done:  E(UB3LYP) =  -667.773408694     A.U. after   31 cycles
 Normal termination of Gaussian 16 at Thu Dec 10 09:40:45 2020.
 Gaussian 16:  ES64L-G16RevA.03 25-Dec-2016

 ----------------------------------------------------------------------
 # B3LYP/6-311++G(d,p) empiricaldispersion=gd3bj scf=xqc pop=npa geom=c
 heck
 ----------------------------------------------------------------------

 ------------------------------------
 CID_116170265_JID_4091_Energie_anion
 ------------------------------------
 Structure from the checkpoint file:  "JID_4091.chk"
 Charge = -1 Multiplicity = 2

                         Standard orientation:
 ---------------------------------------------------------------------
 Center     Atomic      Atomic             Coordinates (Angstroms)
 Number     Number       Type             X           Y           Z
 ---------------------------------------------------------------------
      1          6           0       -2.153954    2.459841   -0.352513
      2          6           0       -2.990863    1.411309    0.382642
      3          6           0       -2.937275    0.012352   -0.258541
      4          6           0       -1.548268   -0.562878   -0.212946
      5          6           0       -0.521064   -0.598468   -1.130620
      6          7           0        0.493386   -1.229801   -0.482489
      7          7           0        0.123487   -1.564226    0.772627
      8          7           0       -1.109199   -1.161739    0.932905
      9          6           0        1.866618   -1.451379   -0.918335
     10          6           0        2.661841   -0.144215   -1.005596
     11          6           0        2.640326    0.712830    0.270244
     12          6           0        3.203383   -0.002857    1.495771
     13          8           0        3.313281    1.948278    0.023206
     14          8           0       -3.852357   -0.871413    0.378911
     15          1           0       -1.088891    2.202216   -0.343152
     16          1           0       -2.261605    3.444588    0.113603
     17          1           0       -2.465959    2.553299   -1.400650
     18          1           0       -2.655830    1.320762    1.424013
     19          1           0       -4.044747    1.711407    0.408347
     20          1           0       -3.262352    0.091203   -1.303389
     21          1           0       -0.433774   -0.246970   -2.146862
     22          1           0        2.296869   -2.138034   -0.187288
     23          1           0        1.847235   -1.958225   -1.888392
     24          1           0        3.701875   -0.401193   -1.252889
     25          1           0        2.283201    0.469919   -1.830898
     26          1           0        1.605568    1.006273    0.477687
     27          1           0        4.218863   -0.376009    1.300700
     28          1           0        3.249459    0.694413    2.337484
     29          1           0        2.573277   -0.848737    1.786983
     30          1           0        4.260370    1.749245   -0.055332
     31          1           0       -3.389137   -1.217923    1.161142
 ---------------------------------------------------------------------

 SCF Done:  E(UB3LYP) =  -668.100205957     A.U. after   30 cycles

 The electronic state is 2-A.
 Alpha  occ. eigenvalues --  -19.03117 -19.02214 -14.30150 -14.26813 -14.23599
 Alpha  occ. eigenvalues --  -10.14118 -10.12458 -10.11893 -10.11400 -10.10339
 Alpha  occ. eigenvalues --  -10.08300 -10.07801 -10.07284 -10.06180  -1.00038
 Alpha  occ. eigenvalues --   -0.93688  -0.92482  -0.82120  -0.72463  -0.69696
 Alpha  occ. eigenvalues --   -0.68571  -0.63862  -0.60111  -0.57503  -0.53461
 Alpha  occ. eigenvalues --   -0.51896  -0.50317  -0.47897  -0.44170  -0.40698
 Alpha  occ. eigenvalues --   -0.39622  -0.38866  -0.38064  -0.36448  -0.35880
 Alpha  occ. eigenvalues --   -0.34537  -0.34191  -0.33131  -0.31536  -0.30213
 Alpha  occ. eigenvalues --   -0.29952  -0.29105  -0.27354  -0.27069  -0.26734
 Alpha  occ. eigenvalues --   -0.25426  -0.25338  -0.23599  -0.22628  -0.19614
 Alpha  occ. eigenvalues --   -0.18988  -0.18139  -0.17696  -0.16224   0.04145
 Alpha virt. eigenvalues --    0.06437   0.06920   0.07980   0.08548   0.08915
 Alpha virt. eigenvalues --    0.09183   0.09321   0.10559   0.10912   0.11400
 Alpha virt. eigenvalues --    0.11499   0.12009   0.12586   0.12945   0.13505

  Beta  occ. eigenvalues --  -19.03116 -19.02186 -14.30099 -14.26720 -14.23584
  Beta  occ. eigenvalues --  -10.14113 -10.12459 -10.11862 -10.11337 -10.10347
  Beta  occ. eigenvalues --  -10.08299 -10.07794 -10.07240 -10.06156  -0.99936
  Beta  occ. eigenvalues --   -0.93682  -0.92426  -0.82026  -0.72396  -0.69641
  Beta  occ. eigenvalues --   -0.68530  -0.63804  -0.60083  -0.57423  -0.53433
  Beta  occ. eigenvalues --   -0.51809  -0.50261  -0.47817  -0.44104  -0.40583
  Beta  occ. eigenvalues --   -0.39524  -0.38812  -0.38033  -0.36374  -0.35822
  Beta  occ. eigenvalues --   -0.34478  -0.34150  -0.33107  -0.31427  -0.30158
  Beta  occ. eigenvalues --   -0.29912  -0.29067  -0.27337  -0.27033  -0.26700
  Beta  occ. eigenvalues --   -0.25386  -0.25308  -0.23541  -0.22569  -0.19422
  Beta  occ. eigenvalues --   -0.18964  -0.18065  -0.17621  -0.15969
  Beta virt. eigenvalues --    0.06536   0.07345   0.07811   0.08384   0.09001
  Beta virt. eigenvalues --    0.09348   0.09641   0.09746   0.10771   0.11373
  Beta virt. eigenvalues --    0.11789   0.11944   0.12284   0.12633   0.13299

 Mulliken charges and spin densities:
               1          2
     1  C   -0.333553  -0.268831
     2  C   -0.135809   0.161391
     3  C    0.032227  -0.493079
     4  C    0.389679  -0.227695
     5  C   -0.326558  -0.314062
     6  N    0.345984   0.033851
     7  N   -0.136421   0.100071
     8  N   -0.145025  -0.049538
     9  C    0.258322  -0.601573
    10  C    0.995014  -1.265544
    11  C   -0.607608   0.552158
    12  C    0.524992  -1.137410
    13  O   -0.213725  -0.004674
    14  O   -0.185806   0.004893
    15  H    0.171194   0.001802
    16  H    0.068676   0.058402
    17  H    0.021069   0.110298
    18  H    0.116685   0.020227
    19  H    0.158432  -0.011456
    20  H    0.048438   0.171671
    21  H   -0.628342   0.813088
    22  H    0.053100   0.127298
    23  H   -0.958486   1.191943
    24  H   -0.842132   1.021461
    25  H   -0.050717   0.241000
    26  H    0.168959   0.014313
    27  H   -0.342893   0.503772
    28  H    0.110262   0.032254
    29  H    0.154843  -0.000445
    30  H    0.027611   0.214147
    31  H    0.261590   0.000266
 Sum of Mulliken charges =  -1.00000   1.00000

 Dipole moment (field-independent basis, Debye):
    X=             -6.3503    Y=              2.8357    Z=              4.7623  Tot=              8.4290
 Quadrupole moment (field-independent basis, Debye-Ang):
   XX=           -165.1007   YY=           -121.9120   ZZ=           -127.5676
   XY=             -2.8330   XZ=             10.4577   YZ=             -4.4465

 Summary of Natural Population Analysis:

                                       Natural Population
                Natural  -----------------------------------------------
    Atom  No    Charge         Core      Valence    Rydberg      Total
 -----------------------------------------------------------------------
      C    1   -0.28966      0.99966     2.28568    0.00432     3.28966
      C    2   -0.19519      0.99962     2.18807    0.00749     3.19519
      C    3    0.05254      0.99951     1.93162    0.01633     2.94746
      C    4    0.02611      0.99955     1.95812    0.01622     2.97389
      C    5   -0.01299      0.99947     2.00180    0.01171     3.01299
      N    6   -0.09644      0.99966     2.58172    0.01505     3.59644
      N    7   -0.03279      0.99978     2.51762    0.01540     3.53279
      N    8   -0.16005      0.99970     2.64742    0.01294     3.66005
      C    9   -0.08670      0.99960     2.07439    0.01272     3.08670
      C   10   -0.20486      0.99960     2.19416    0.01110     3.20486
      C   11    0.05938      0.99957     1.92845    0.01260     2.94062
      C   12   -0.30318      0.99964     2.29780    0.00574     3.30318
      O   13   -0.37062      0.99990     3.36440    0.00632     4.37062
      O   14   -0.37067      0.99990     3.36480    0.00597     4.37067
      H   15    0.10299      0.00000     0.39583    0.00118     0.39701
      H   16    0.09811      0.00000     0.40102    0.00087     0.40189
      H   17    0.09606      0.00000     0.40280    0.00114     0.40394
      H   18    0.09789      0.00000     0.40095    0.00116     0.40211
      H   19    0.09701      0.00000     0.40184    0.00114     0.40299
      H   20    0.08895      0.00000     0.40906    0.00200     0.41105
      H   21    0.11562      0.00000     0.38247    0.00190     0.38438
      H   22    0.10853      0.00000     0.38944    0.00203     0.39147
      H   23    0.11123      0.00000     0.38381    0.00496     0.38877
      H   24    0.10745      0.00000     0.38577    0.00678     0.39255
      H   25    0.10467      0.00000     0.39353    0.00181     0.39533
      H   26    0.08518      0.00000     0.41207    0.00275     0.41482
      H   27    0.09727      0.00000     0.40152    0.00121     0.40273
      H   28    0.10142      0.00000     0.39778    0.00080     0.39858
      H   29    0.10955      0.00000     0.38930    0.00115     0.39045
      H   30    0.22721      0.00000     0.26943    0.00336     0.27279
      H   31    0.23598      0.00000     0.26130    0.00271     0.26402
 =======================================================================
   * Total *   -0.00000     13.99517    39.81398    0.19085    54.00000

 Normal termination of Gaussian 16 at Thu Dec 10 09:51:36 2020.
