 Gaussian 16, Revision A.03,

 -----------------------------------------------------------
 # opt freq B3LYP/6-31G(d) empiricaldispersion=gd3bj scf=xqc
 -----------------------------------------------------------

 -------------------------------
 CID_154258298_JID_9516_neutraal
 -------------------------------
 Symbolic Z-matrix:
 Charge =  0 Multiplicity = 1

 SCF Done:  E(RB3LYP) =  -824.024189839     A.U. after   15 cycles
 SCF Done:  E(RB3LYP) =  -824.028499827     A.U. after   12 cycles
 SCF Done:  E(RB3LYP) =  -824.029222390     A.U. after   12 cycles
 SCF Done:  E(RB3LYP) =  -824.028048032     A.U. after   12 cycles
 SCF Done:  E(RB3LYP) =  -824.029711641     A.U. after   12 cycles
 SCF Done:  E(RB3LYP) =  -824.029786816     A.U. after   11 cycles
 SCF Done:  E(RB3LYP) =  -824.029803740     A.U. after   10 cycles
 SCF Done:  E(RB3LYP) =  -824.029807558     A.U. after    8 cycles
 SCF Done:  E(RB3LYP) =  -824.029809686     A.U. after    8 cycles
 SCF Done:  E(RB3LYP) =  -824.029810623     A.U. after    8 cycles
 SCF Done:  E(RB3LYP) =  -824.029810792     A.U. after    7 cycles
 Optimization completed.
    -- Stationary point found.
 Normal termination of Gaussian 16 at Mon Dec 14 18:51:22 2020.

 --------------------------------------------------------------------
 #N Geom=AllCheck Guess=TCheck SCRF=Check GenChk RB3LYP/6-31G(d) Freq
 --------------------------------------------------------------------

 Structure from the checkpoint file:  "JID_9516.chk"
 -------------------------------
 CID_154258298_JID_9516_neutraal
 -------------------------------
 Charge =  0 Multiplicity = 1

 SCF Done:  E(RB3LYP) =  -824.029810792     A.U. after    1 cycles

  Exact polarizability: 244.726 -15.026 174.091   3.031   2.446 102.331
 Approx polarizability: 350.907 -28.176 296.077   9.127   8.135 160.537

                      1                      2                      3
                      A                      A                      A
 Frequencies --     40.9632                43.7273                52.0273
 Red. masses --      6.3720                10.0026                 4.1334
 Frc consts  --      0.0063                 0.0113                 0.0066
 IR Inten    --      0.3635                 1.2086                 0.2684

                      4                      5                      6
                      A                      A                      A
 Frequencies --     82.6757                93.4093               125.8234
 Red. masses --      4.5429                 5.3056                 4.2113
 Frc consts  --      0.0183                 0.0273                 0.0393
 IR Inten    --      0.4585                 0.3052                 0.6302

                      7                      8                      9
                      A                      A                      A
 Frequencies --    194.0924               201.6897               220.7171
 Red. masses --      1.3623                 2.2919                 3.9267
 Frc consts  --      0.0302                 0.0549                 0.1127
 IR Inten    --     20.3700                10.4807                 4.5247

                     10                     11                     12
                      A                      A                      A
 Frequencies --    251.9136               263.6695               280.7544
 Red. masses --      3.2849                 2.8136                 3.6225
 Frc consts  --      0.1228                 0.1152                 0.1682
 IR Inten    --      1.6131                 6.2812                 5.6021

                     13                     14                     15
                      A                      A                      A
 Frequencies --    306.4103               351.6359               367.1600
 Red. masses --      4.8824                 3.8946                 4.3503
 Frc consts  --      0.2701                 0.2837                 0.3455
 IR Inten    --      1.7451                 8.3685                 6.6148

                     16                     17                     18
                      A                      A                      A
 Frequencies --    418.4070               434.1083               456.8284
 Red. masses --      3.0553                 5.7470                 3.4925
 Frc consts  --      0.3151                 0.6381                 0.4294
 IR Inten    --      0.0070                 5.5470                 3.5853

                     19                     20                     21
                      A                      A                      A
 Frequencies --    483.2416               506.5618               560.0083
 Red. masses --      3.5436                 3.5196                 3.4990
 Frc consts  --      0.4876                 0.5321                 0.6465
 IR Inten    --      4.3334                 5.3632                 5.8631

                     22                     23                     24
                      A                      A                      A
 Frequencies --    571.4194               605.7702               631.6826
 Red. masses --      4.2229                 3.9791                 2.4883
 Frc consts  --      0.8124                 0.8603                 0.5850
 IR Inten    --      2.0403                14.2910                45.6885

                     25                     26                     27
                      A                      A                      A
 Frequencies --    638.6815               646.2715               655.0572
 Red. masses --      2.8614                 4.3432                 3.9841
 Frc consts  --      0.6877                 1.0688                 1.0073
 IR Inten    --     46.3537                12.0443                15.0559

                     28                     29                     30
                      A                      A                      A
 Frequencies --    695.7558               715.7166               735.8021
 Red. masses --      4.0868                 1.8151                 2.1565
 Frc consts  --      1.1656                 0.5478                 0.6879
 IR Inten    --     12.7411                26.8300                 0.0681

                     31                     32                     33
                      A                      A                      A
 Frequencies --    752.2543               776.4076               792.2270
 Red. masses --      2.9587                 1.7322                 2.7353
 Frc consts  --      0.9865                 0.6152                 1.0115
 IR Inten    --      5.2186                49.5005                25.0057

                     34                     35                     36
                      A                      A                      A
 Frequencies --    817.7912               832.3900               861.7068
 Red. masses --      2.3944                 4.5762                 1.2459
 Frc consts  --      0.9435                 1.8682                 0.5451
 IR Inten    --      5.6698                 2.0175                 0.6297

                     37                     38                     39
                      A                      A                      A
 Frequencies --    882.5780               910.2807               926.7955
 Red. masses --      3.3858                 1.4229                 1.7549
 Frc consts  --      1.5539                 0.6947                 0.8881
 IR Inten    --      5.0901                 5.8765                38.0897

                     40                     41                     42
                      A                      A                      A
 Frequencies --    932.9507               968.4607               969.9824
 Red. masses --      1.4389                 1.3195                 1.3882
 Frc consts  --      0.7379                 0.7292                 0.7696
 IR Inten    --      2.7619                 2.1887                 2.8111

                     43                     44                     45
                      A                      A                      A
 Frequencies --    977.5145               989.2925               995.2830
 Red. masses --      2.0052                 1.9041                 1.2467
 Frc consts  --      1.1289                 1.0980                 0.7276
 IR Inten    --     21.1314                99.6123                 1.9819

                     46                     47                     48
                      A                      A                      A
 Frequencies --   1021.8686              1023.3847              1055.6152
 Red. masses --      4.8083                 3.0972                 3.0008
 Frc consts  --      2.9582                 1.9111                 1.9701
 IR Inten    --      1.3697                 2.6371                 8.6037

                     49                     50                     51
                      A                      A                      A
 Frequencies --   1081.4212              1099.4735              1102.4090
 Red. masses --      2.1853                 2.3057                 2.5090
 Frc consts  --      1.5058                 1.6422                 1.7966
 IR Inten    --     29.8016                 2.1541                18.4527

                     52                     53                     54
                      A                      A                      A
 Frequencies --   1115.4782              1164.9030              1170.9086
 Red. masses --      1.6002                 2.4652                 1.5661
 Frc consts  --      1.1732                 1.9710                 1.2650
 IR Inten    --      5.3636               130.9413                20.4266

                     55                     56                     57
                      A                      A                      A
 Frequencies --   1194.0790              1198.4051              1214.2576
 Red. masses --      1.1012                 1.6436                 1.5480
 Frc consts  --      0.9251                 1.3908                 1.3448
 IR Inten    --      0.1229                10.4843                 6.3160

                     58                     59                     60
                      A                      A                      A
 Frequencies --   1217.9328              1244.8657              1265.4601
 Red. masses --      1.1766                 1.5475                 2.3740
 Frc consts  --      1.0283                 1.4129                 2.2399
 IR Inten    --      0.7729                 6.1017                 9.7230

                     61                     62                     63
                      A                      A                      A
 Frequencies --   1271.1275              1312.7637              1333.4655
 Red. masses --      1.5062                 2.5383                 1.6744
 Frc consts  --      1.4339                 2.5773                 1.7542
 IR Inten    --      1.3560                 1.3441                 0.3921

                     64                     65                     66
                      A                      A                      A
 Frequencies --   1335.7155              1344.9913              1357.6846
 Red. masses --      2.2542                 2.5455                 1.9403
 Frc consts  --      2.3696                 2.7131                 2.1072
 IR Inten    --      2.9886                 0.2302                 8.0573

                     67                     68                     69
                      A                      A                      A
 Frequencies --   1368.5101              1378.5353              1385.6937
 Red. masses --      1.8343                 2.5877                 2.2214
 Frc consts  --      2.0241                 2.8974                 2.5131
 IR Inten    --      0.9969                 3.6746                 7.1470

                     70                     71                     72
                      A                      A                      A
 Frequencies --   1473.4832              1502.6955              1511.9614
 Red. masses --      2.5449                 1.8861                 1.3234
 Frc consts  --      3.2554                 2.5093                 1.7825
 IR Inten    --      9.8871                 1.4287                 3.5849

                     73                     74                     75
                      A                      A                      A
 Frequencies --   1517.6538              1524.3901              1552.7247
 Red. masses --      2.4236                 1.1036                 2.4946
 Frc consts  --      3.2890                 1.5109                 3.5435
 IR Inten    --     19.4393                 4.6858                 5.5166

                     76                     77                     78
                      A                      A                      A
 Frequencies --   1632.9051              1646.5474              1657.1831
 Red. masses --      5.5506                 6.7311                 6.3897
 Frc consts  --      8.7200                10.7519                10.3389
 IR Inten    --      3.1668                 2.2013                 2.0473

                     79                     80                     81
                      A                      A                      A
 Frequencies --   1666.1418              1709.6588              1829.5934
 Red. masses --      5.5942                 1.0873                10.0786
 Frc consts  --      9.1499                 1.8724                19.8775
 IR Inten    --      6.4871                30.1822               302.3676

                     82                     83                     84
                      A                      A                      A
 Frequencies --   3065.2573              3078.0224              3105.0422
 Red. masses --      1.0619                 1.0617                 1.1000
 Frc consts  --      5.8786                 5.9264                 6.2487
 IR Inten    --     20.5746                22.2798                15.0721

                     85                     86                     87
                      A                      A                      A
 Frequencies --   3129.6392              3182.0759              3186.2493
 Red. masses --      1.1067                 1.0848                 1.0858
 Frc consts  --      6.3863                 6.4716                 6.4948
 IR Inten    --     24.4118                 3.3385                 2.3392

                     88                     89                     90
                      A                      A                      A
 Frequencies --   3189.8956              3197.3271              3200.8472
 Red. masses --      1.0879                 1.0908                 1.0917
 Frc consts  --      6.5221                 6.5700                 6.5898
 IR Inten    --      6.9898                20.1885                14.6294

                     91                     92                     93
                      A                      A                      A
 Frequencies --   3208.8776              3210.3260              3216.9025
 Red. masses --      1.0954                 1.0960                 1.0951
 Frc consts  --      6.6458                 6.6554                 6.6769
 IR Inten    --     35.5974                29.7354                 8.9886

                     94                     95                     96
                      A                      A                      A
 Frequencies --   3452.3539              3530.8788              3676.6163
 Red. masses --      1.0508                 1.0898                 1.0641
 Frc consts  --      7.3791                 8.0053                 8.4747
 IR Inten    --      0.6185                 2.1508                47.8943

 - Thermochemistry -
 -------------------
 Temperature   298.150 Kelvin.  Pressure   1.00000 Atm.
 Atom     1 has atomic number  6 and mass  12.00000

 Molecular mass:   253.11028 amu.
 Principal axes and moments of inertia in atomic units:
                           1         2         3
     Eigenvalues --  2135.130097983.920068953.58311
           X            0.99999  -0.00266  -0.00470
           Y            0.00261   0.99994  -0.01056
           Z            0.00473   0.01054   0.99993
 This molecule is an asymmetric top.
 Rotational symmetry number  1.
 Warning -- assumption of classical behavior for rotation
           may cause significant error
 Rotational temperatures (Kelvin)      0.04057     0.01085     0.00967
 Rotational constants (GHZ):           0.84526     0.22605     0.20157
 Zero-point vibrational energy     730512.2 (Joules/Mol)
                                  174.59659 (Kcal/Mol)
 Warning -- explicit consideration of  23 degrees of freedom as
           vibrations may cause significant error
 Vibrational temperatures:     58.94    62.91    74.86   118.95   134.40
          (Kelvin)            181.03   279.26   290.19   317.56   362.45
                              379.36   403.94   440.86   505.93   528.26
                              601.99   624.59   657.27   695.28   728.83
                              805.73   822.15   871.57   908.85   918.92
                              929.84   942.48  1001.04  1029.76  1058.66
                             1082.33  1117.08  1139.84  1176.62  1197.62
                             1239.80  1269.83  1309.69  1333.45  1342.31
                             1393.40  1395.59  1406.43  1423.37  1431.99
                             1470.24  1472.42  1518.79  1555.92  1581.90
                             1586.12  1604.92  1676.04  1684.68  1718.01
                             1724.24  1747.05  1752.33  1791.08  1820.71
                             1828.87  1888.77  1918.56  1921.80  1935.14
                             1953.41  1968.98  1983.40  1993.70  2120.01
                             2162.04  2175.38  2183.57  2193.26  2234.02
                             2349.39  2369.01  2384.32  2397.21  2459.82
                             2632.38  4410.22  4428.59  4467.46  4502.85
                             4578.30  4584.30  4589.55  4600.24  4605.31
                             4616.86  4618.94  4628.41  4967.17  5080.15
                             5289.83

 Zero-point correction=                           0.278237 (Hartree/Particle)
 Thermal correction to Energy=                    0.293968
 Thermal correction to Enthalpy=                  0.294913
 Thermal correction to Gibbs Free Energy=         0.234468
 Sum of electronic and zero-point Energies=           -823.751573
 Sum of electronic and thermal Energies=              -823.735842
 Sum of electronic and thermal Enthalpies=            -823.734898
 Sum of electronic and thermal Free Energies=         -823.795343

                     E (Thermal)             CV                S
                      KCal/Mol        Cal/Mol-Kelvin    Cal/Mol-Kelvin
 Total                  184.468             62.677            127.217
 Electronic               0.000              0.000              0.000
 Translational            0.889              2.981             42.486
 Rotational               0.889              2.981             33.389
 Vibrational            182.690             56.715             51.342
 Vibration     1          0.594              1.981              5.212
 Vibration     2          0.595              1.980              5.083
 Vibration     3          0.596              1.977              4.739
 Vibration     4          0.600              1.961              3.826
 Vibration     5          0.602              1.954              3.587
 Vibration     6          0.611              1.927              3.009
 Vibration     7          0.635              1.848              2.188
 Vibration     8          0.639              1.837              2.118
 Vibration     9          0.647              1.810              1.953
 Vibration    10          0.664              1.760              1.717
 Vibration    11          0.670              1.739              1.637
 Vibration    12          0.680              1.709              1.529
 Vibration    13          0.697              1.662              1.382
 Vibration    14          0.728              1.572              1.159
 Vibration    15          0.740              1.540              1.092
 Vibration    16          0.781              1.430              0.897
 Vibration    17          0.795              1.396              0.845
 Vibration    18          0.815              1.346              0.775
 Vibration    19          0.839              1.287              0.701
 Vibration    20          0.862              1.235              0.642
 Vibration    21          0.916              1.118              0.524
 Vibration    22          0.928              1.093              0.502
 Vibration    23          0.964              1.020              0.440

 Optimization completed.
    -- Stationary point found.
 Normal termination of Gaussian 16 at Mon Dec 14 19:10:22 2020.

 ----------------------------------------------------------------------
 # B3LYP/6-311++G(d,p) empiricaldispersion=gd3bj scf=xqc pop=npa geom=c
 heck
 ----------------------------------------------------------------------

 ---------------------------------------
 CID_154258298_JID_9516_Energie_neutraal
 ---------------------------------------
 Structure from the checkpoint file:  "JID_9516.chk"
 Charge =  0 Multiplicity = 1

 SCF Done:  E(RB3LYP) =  -824.260654367     A.U. after   15 cycles
 Normal termination of Gaussian 16 at Mon Dec 14 19:17:59 2020.

 ----------------------------------------------------------------------
 # B3LYP/6-311++G(d,p) empiricaldispersion=gd3bj scf=xqc pop=npa geom=c
 heck
 ----------------------------------------------------------------------

 -------------------------------------
 CID_154258298_JID_9516_Energie_kation
 -------------------------------------
 Structure from the checkpoint file:  "JID_9516.chk"
 Charge =  1 Multiplicity = 2

 SCF Done:  E(UB3LYP) =  -823.966549949     A.U. after   31 cycles
 Normal termination of Gaussian 16 at Mon Dec 14 19:40:20 2020.
 Gaussian 16:  ES64L-G16RevA.03 25-Dec-2016

 ----------------------------------------------------------------------
 # B3LYP/6-311++G(d,p) empiricaldispersion=gd3bj scf=xqc pop=npa geom=c
 heck
 ----------------------------------------------------------------------

 ------------------------------------
 CID_154258298_JID_9516_Energie_anion
 ------------------------------------
 Structure from the checkpoint file:  "JID_9516.chk"
 Charge = -1 Multiplicity = 2

                         Standard orientation:
 ---------------------------------------------------------------------
 Center     Atomic      Atomic             Coordinates (Angstroms)
 Number     Number       Type             X           Y           Z
 ---------------------------------------------------------------------
      1          6           0       -0.287231   -1.353010    0.696462
      2          6           0       -1.695610   -1.380429    1.331361
      3          6           0       -2.509647   -0.254592    0.640760
      4          6           0       -1.409375    0.694435    0.171577
      5          6           0       -1.562355    2.013528   -0.239122
      6          6           0       -0.420591    2.731503   -0.601000
      7          6           0        0.834888    2.127079   -0.552792
      8          6           0        0.995894    0.787751   -0.154677
      9          6           0       -0.157486    0.072597    0.203605
     10          6           0        2.352974    0.191298   -0.095512
     11          6           0        3.417851    0.911583    0.469033
     12          6           0        4.700523    0.369791    0.520981
     13          6           0        4.945224   -0.904712    0.007372
     14          6           0        3.896694   -1.630561   -0.559297
     15          6           0        2.613852   -1.088137   -0.609586
     16          6           0       -3.257338   -0.740476   -0.612224
     17          8           0       -4.353712   -0.348237   -0.950086
     18          8           0       -2.551101   -1.634004   -1.345882
     19          7           0       -3.429549    0.388069    1.578183
     20          1           0       -0.235559   -2.059607   -0.139265
     21          1           0        0.501251   -1.630638    1.403141
     22          1           0       -2.178574   -2.358831    1.257163
     23          1           0       -1.633660   -1.103769    2.388597
     24          1           0       -2.542432    2.481055   -0.265815
     25          1           0       -0.507631    3.765674   -0.921573
     26          1           0        1.714024    2.693162   -0.846742
     27          1           0        3.227393    1.895197    0.888538
     28          1           0        5.508584    0.941044    0.969632
     29          1           0        5.944507   -1.328697    0.048740
     30          1           0        4.078462   -2.619913   -0.970128
     31          1           0        1.810296   -1.649803   -1.074264
     32          1           0       -3.093510   -1.826624   -2.134091
     33          1           0       -4.058616    0.988369    1.044316
     34          1           0       -4.038793   -0.331065    1.970582
 ---------------------------------------------------------------------

 SCF Done:  E(UB3LYP) =  -824.255963723     A.U. after   31 cycles

 The electronic state is 2-A.
 Alpha  occ. eigenvalues --  -19.06349 -19.01209 -14.19477 -10.19691 -10.11613
 Alpha  occ. eigenvalues --  -10.06653 -10.06466 -10.06263 -10.06062 -10.05975
 Alpha  occ. eigenvalues --  -10.05850 -10.05707 -10.05684 -10.05669 -10.05655
 Alpha  occ. eigenvalues --  -10.05517 -10.05395 -10.04826 -10.04632  -1.00529
 Alpha  occ. eigenvalues --   -0.91688  -0.80328  -0.75421  -0.73644  -0.69318
 Alpha  occ. eigenvalues --   -0.66274  -0.63499  -0.61595  -0.60555  -0.58769
 Alpha  occ. eigenvalues --   -0.52845  -0.51160  -0.49450  -0.48356  -0.46337
 Alpha  occ. eigenvalues --   -0.45157  -0.41481  -0.39751  -0.38819  -0.38163
 Alpha  occ. eigenvalues --   -0.37411  -0.35351  -0.34991  -0.34450  -0.33921
 Alpha  occ. eigenvalues --   -0.33091  -0.31626  -0.31292  -0.31149  -0.29868
 Alpha  occ. eigenvalues --   -0.29587  -0.26554  -0.25607  -0.25352  -0.24935
 Alpha  occ. eigenvalues --   -0.24283  -0.24054  -0.22743  -0.22454  -0.22101
 Alpha  occ. eigenvalues --   -0.21300  -0.18384  -0.16175  -0.15373  -0.14651
 Alpha  occ. eigenvalues --   -0.12730  -0.11567   0.04512
 Alpha virt. eigenvalues --    0.06661   0.07288   0.07921   0.08446   0.08799
 Alpha virt. eigenvalues --    0.09116   0.09340   0.09542   0.10488   0.10873
 Alpha virt. eigenvalues --    0.11145   0.11666   0.12090   0.12509   0.12668

  Beta  occ. eigenvalues --  -19.06291 -19.01188 -14.19465 -10.19660 -10.11608
  Beta  occ. eigenvalues --  -10.06636 -10.06492 -10.06265 -10.05972 -10.05956
  Beta  occ. eigenvalues --  -10.05837 -10.05643 -10.05638 -10.05634 -10.05555
  Beta  occ. eigenvalues --  -10.05501 -10.05266 -10.04712 -10.04426  -1.00437
  Beta  occ. eigenvalues --   -0.91615  -0.80278  -0.75223  -0.73495  -0.69181
  Beta  occ. eigenvalues --   -0.65977  -0.63362  -0.61418  -0.60437  -0.58581
  Beta  occ. eigenvalues --   -0.52757  -0.50783  -0.49387  -0.48217  -0.46231
  Beta  occ. eigenvalues --   -0.45049  -0.41404  -0.39686  -0.38722  -0.38120
  Beta  occ. eigenvalues --   -0.37313  -0.35240  -0.34862  -0.34326  -0.33825
  Beta  occ. eigenvalues --   -0.33012  -0.31519  -0.31211  -0.31114  -0.29778
  Beta  occ. eigenvalues --   -0.29489  -0.26215  -0.25464  -0.25247  -0.24730
  Beta  occ. eigenvalues --   -0.24216  -0.23893  -0.22500  -0.22321  -0.22009
  Beta  occ. eigenvalues --   -0.21192  -0.18308  -0.15489  -0.15127  -0.14291
  Beta  occ. eigenvalues --   -0.12329  -0.10711
  Beta virt. eigenvalues --    0.07061   0.07418   0.08228   0.08401   0.08604
  Beta virt. eigenvalues --    0.09056   0.09227   0.09389   0.09656   0.10478
  Beta virt. eigenvalues --    0.10880   0.11314   0.11901   0.12301   0.12567

 Mulliken charges and spin densities:
               1          2
     1  C   -0.249439   0.083375
     2  C   -0.023321  -0.986920
     3  C   -0.702088   0.578708
     4  C    0.758110  -0.144079
     5  C   -0.216046   0.071952
     6  C   -0.478682   0.009745
     7  C   -0.547562   0.197108
     8  C    0.539455  -0.004448
     9  C    0.291116  -0.197415
    10  C    0.933243   0.095547
    11  C   -0.499382   0.066900
    12  C   -0.365055   0.011604
    13  C   -0.304861   0.040692
    14  C   -0.265641  -0.090095
    15  C   -0.429388   0.071486
    16  C    0.219326  -0.317523
    17  O   -0.249752   0.019308
    18  O   -0.208575   0.058436
    19  N   -0.288358  -0.028452
    20  H    0.171072  -0.011083
    21  H    0.164622   0.010004
    22  H   -0.332072   0.535264
    23  H    0.212844  -0.045068
    24  H    0.079064   0.025419
    25  H    0.129706   0.004160
    26  H    0.131148  -0.013677
    27  H    0.125981   0.021884
    28  H    0.111729   0.024224
    29  H    0.110633  -0.009501
    30  H    0.095215   0.051508
    31  H    0.038170   0.111488
    32  H   -0.291808   0.593602
    33  H    0.222502   0.041463
    34  H    0.118092   0.124385
 Sum of Mulliken charges =  -1.00000   1.00000

 Dipole moment (field-independent basis, Debye):
    X=              2.6137    Y=              1.5300    Z=              1.8834  Tot=              3.5664
 Quadrupole moment (field-independent basis, Debye-Ang):
   XX=           -175.2353   YY=           -135.3758   ZZ=           -135.9634
   XY=             -4.8757   XZ=             -6.0236   YZ=             -4.6522

 Summary of Natural Population Analysis:

                                       Natural Population
                Natural  -----------------------------------------------
    Atom  No    Charge         Core      Valence    Rydberg      Total
 -----------------------------------------------------------------------
      C    1   -0.19822      0.99961     2.19071    0.00790     3.19822
      C    2   -0.18127      0.99962     2.17193    0.00972     3.18127
      C    3    0.01124      0.99947     1.97344    0.01585     2.98876
      C    4   -0.01466      0.99943     2.00376    0.01146     3.01466
      C    5   -0.06455      0.99950     2.05452    0.01053     3.06455
      C    6   -0.11059      0.99958     2.10288    0.00813     3.11059
      C    7   -0.07323      0.99954     2.06628    0.00741     3.07323
      C    8   -0.00340      0.99940     1.99409    0.00991     3.00340
      C    9    0.00260      0.99943     1.98871    0.00925     2.99740
      C   10   -0.00601      0.99950     1.99567    0.01085     3.00601
      C   11   -0.08399      0.99953     2.07696    0.00750     3.08399
      C   12   -0.11267      0.99957     2.10427    0.00883     3.11267
      C   13   -0.08256      0.99957     2.07399    0.00900     3.08256
      C   14   -0.10736      0.99957     2.09853    0.00926     3.10736
      C   15   -0.08892      0.99953     2.07949    0.00990     3.08892
      C   16    0.41570      0.99964     1.55757    0.02709     2.58430
      O   17   -0.31725      0.99987     3.31072    0.00666     4.31725
      O   18   -0.34336      0.99987     3.33606    0.00743     4.34336
      N   19   -0.41327      0.99976     2.90372    0.00978     3.91327
      H   20    0.10770      0.00000     0.39074    0.00155     0.39230
      H   21    0.10450      0.00000     0.39454    0.00096     0.39550
      H   22    0.10255      0.00000     0.39608    0.00137     0.39745
      H   23    0.10264      0.00000     0.39618    0.00118     0.39736
      H   24    0.09533      0.00000     0.40337    0.00130     0.40467
      H   25    0.09343      0.00000     0.40567    0.00090     0.40657
      H   26    0.09493      0.00000     0.40391    0.00117     0.40507
      H   27    0.09774      0.00000     0.40093    0.00133     0.40226
      H   28    0.09293      0.00000     0.40561    0.00145     0.40707
      H   29    0.09130      0.00000     0.40773    0.00097     0.40870
      H   30    0.09524      0.00000     0.40390    0.00086     0.40476
      H   31    0.10069      0.00000     0.39787    0.00144     0.39931
      H   32    0.24090      0.00000     0.24631    0.01279     0.25910
      H   33    0.17988      0.00000     0.31839    0.00174     0.32012
      H   34    0.17201      0.00000     0.32651    0.00148     0.32799
 =======================================================================
   * Total *    0.00000     18.99199    47.78104    0.22697    67.00000

 Normal termination of Gaussian 16 at Mon Dec 14 20:02:44 2020.
