 Gaussian 16, Revision A.03,

 -----------------------------------------------------------
 # opt freq B3LYP/6-31G(d) empiricaldispersion=gd3bj scf=xqc
 -----------------------------------------------------------

 -------------------------------
 CID_153439808_JID_1947_neutraal
 -------------------------------
 Symbolic Z-matrix:
 Charge =  0 Multiplicity = 1

 SCF Done:  E(RB3LYP) =  -499.197064553     A.U. after   13 cycles
 SCF Done:  E(RB3LYP) =  -499.201598743     A.U. after   11 cycles
 SCF Done:  E(RB3LYP) =  -499.202360420     A.U. after   11 cycles
 SCF Done:  E(RB3LYP) =  -499.202850845     A.U. after   11 cycles
 SCF Done:  E(RB3LYP) =  -499.203085931     A.U. after   11 cycles
 SCF Done:  E(RB3LYP) =  -499.203279499     A.U. after   11 cycles
 SCF Done:  E(RB3LYP) =  -499.203536717     A.U. after   11 cycles
 SCF Done:  E(RB3LYP) =  -499.203625025     A.U. after   10 cycles
 SCF Done:  E(RB3LYP) =  -499.203383723     A.U. after   10 cycles
 SCF Done:  E(RB3LYP) =  -499.203837781     A.U. after   14 cycles
 SCF Done:  E(RB3LYP) =  -499.204642786     A.U. after   11 cycles
 SCF Done:  E(RB3LYP) =  -499.204649207     A.U. after   10 cycles
 SCF Done:  E(RB3LYP) =  -499.204650529     A.U. after    8 cycles
 SCF Done:  E(RB3LYP) =  -499.204650700     A.U. after    8 cycles
 SCF Done:  E(RB3LYP) =  -499.204650733     A.U. after    7 cycles
 Optimization completed.
    -- Stationary point found.
 Normal termination of Gaussian 16 at Tue Dec  8 21:52:33 2020.

 --------------------------------------------------------------------
 #N Geom=AllCheck Guess=TCheck SCRF=Check GenChk RB3LYP/6-31G(d) Freq
 --------------------------------------------------------------------

 Structure from the checkpoint file:  "JID_1947.chk"
 -------------------------------
 CID_153439808_JID_1947_neutraal
 -------------------------------
 Charge =  0 Multiplicity = 1

 SCF Done:  E(RB3LYP) =  -499.204650733     A.U. after    1 cycles

  Exact polarizability: 112.207  -6.619 103.899  -1.192  -0.371  83.713
 Approx polarizability: 142.348 -13.516 153.300   0.633   0.485 122.083

                      1                      2                      3
                      A                      A                      A
 Frequencies --     33.2392                83.2511               127.4628
 Red. masses --      2.9945                 2.9926                 2.6690
 Frc consts  --      0.0019                 0.0122                 0.0255
 IR Inten    --      0.2329                 0.8528                 5.0601

                      4                      5                      6
                      A                      A                      A
 Frequencies --    177.4132               199.3792               213.3814
 Red. masses --      2.6503                 3.2577                 2.0575
 Frc consts  --      0.0492                 0.0763                 0.0552
 IR Inten    --      1.1009                 4.0874                 1.5375

                      7                      8                      9
                      A                      A                      A
 Frequencies --    233.5054               267.5849               291.6257
 Red. masses --      1.1398                 1.1696                 2.4040
 Frc consts  --      0.0366                 0.0493                 0.1205
 IR Inten    --      0.6843                 1.1230                 9.9649

                     10                     11                     12
                      A                      A                      A
 Frequencies --    296.7746               350.3692               357.2076
 Red. masses --      1.3367                 2.2709                 2.7565
 Frc consts  --      0.0694                 0.1642                 0.2072
 IR Inten    --     21.3670                 6.3212                22.9456

                     13                     14                     15
                      A                      A                      A
 Frequencies --    389.6971               412.0950               461.9582
 Red. masses --      2.1863                 2.6911                 4.2082
 Frc consts  --      0.1956                 0.2693                 0.5291
 IR Inten    --      1.8715                 0.6900                 1.5138

                     16                     17                     18
                      A                      A                      A
 Frequencies --    505.5922               558.4537               609.2611
 Red. masses --      3.3424                 3.6113                 2.9307
 Frc consts  --      0.5034                 0.6636                 0.6410
 IR Inten    --     12.7996                 3.9750                 2.0693

                     19                     20                     21
                      A                      A                      A
 Frequencies --    734.1559               794.7803               843.4573
 Red. masses --      2.8050                 1.8003                 2.4181
 Frc consts  --      0.8908                 0.6700                 1.0136
 IR Inten    --     32.5847                 7.5533                54.3369

                     22                     23                     24
                      A                      A                      A
 Frequencies --    887.3195               893.9104               940.7358
 Red. masses --      1.7100                 2.1805                 2.3441
 Frc consts  --      0.7932                 1.0266                 1.2223
 IR Inten    --     18.0874                38.0998                28.5614

                     25                     26                     27
                      A                      A                      A
 Frequencies --    955.1676               992.2971              1028.0599
 Red. masses --      2.2885                 2.6546                 1.7205
 Frc consts  --      1.2302                 1.5400                 1.0714
 IR Inten    --     18.3960                 3.4390                 4.9156

                     28                     29                     30
                      A                      A                      A
 Frequencies --   1044.7379              1076.2985              1088.9709
 Red. masses --      2.4712                 2.0298                 2.0894
 Frc consts  --      1.5892                 1.3854                 1.4599
 IR Inten    --     28.0601                11.6741                 2.7248

                     31                     32                     33
                      A                      A                      A
 Frequencies --   1104.5379              1111.2135              1152.0813
 Red. masses --      2.1667                 2.5741                 2.4141
 Frc consts  --      1.5574                 1.8727                 1.8879
 IR Inten    --     70.3623                65.0365                68.0095

                     34                     35                     36
                      A                      A                      A
 Frequencies --   1168.5224              1187.8843              1194.6625
 Red. masses --      1.3872                 1.2940                 2.3541
 Frc consts  --      1.1160                 1.0758                 1.9796
 IR Inten    --     17.9429                 2.8780                19.5237

                     37                     38                     39
                      A                      A                      A
 Frequencies --   1230.0586              1238.2239              1243.9878
 Red. masses --      1.4289                 1.4646                 1.3364
 Frc consts  --      1.2738                 1.3230                 1.2185
 IR Inten    --      7.5944                 7.0736                 9.1963

                     40                     41                     42
                      A                      A                      A
 Frequencies --   1268.9522              1307.2080              1338.8049
 Red. masses --      1.4619                 1.6592                 1.4113
 Frc consts  --      1.3870                 1.6704                 1.4904
 IR Inten    --     28.8217                16.0630                15.7749

                     43                     44                     45
                      A                      A                      A
 Frequencies --   1360.3060              1392.9619              1400.9991
 Red. masses --      1.3992                 1.5620                 1.4190
 Frc consts  --      1.5255                 1.7857                 1.6410
 IR Inten    --     20.4534                16.4926                14.0269

                     46                     47                     48
                      A                      A                      A
 Frequencies --   1417.5701              1435.4677              1446.8245
 Red. masses --      1.4684                 1.4769                 1.4742
 Frc consts  --      1.7385                 1.7931                 1.8182
 IR Inten    --      4.6041                29.6852                19.4320

                     49                     50                     51
                      A                      A                      A
 Frequencies --   1485.4402              1490.1228              1500.2902
 Red. masses --      1.2076                 1.1628                 1.0946
 Frc consts  --      1.5699                 1.5213                 1.4516
 IR Inten    --      0.4050                 0.8069                 2.9611

                     52                     53                     54
                      A                      A                      A
 Frequencies --   1512.9948              1518.3843              1523.8731
 Red. masses --      1.0638                 1.0632                 1.0657
 Frc consts  --      1.4347                 1.4442                 1.4581
 IR Inten    --     12.7229                 5.3270                 3.3866

                     55                     56                     57
                      A                      A                      A
 Frequencies --   1535.8629              1538.6734              1544.7113
 Red. masses --      1.0569                 1.0978                 1.0497
 Frc consts  --      1.4688                 1.5313                 1.4758
 IR Inten    --      3.7468                 6.2319                 8.3268

                     58                     59                     60
                      A                      A                      A
 Frequencies --   1674.5747              1750.9924              2904.2926
 Red. masses --      1.1001                 7.0627                 1.0742
 Frc consts  --      1.8175                12.7583                 5.3386
 IR Inten    --     47.0119                 8.0760                34.4208

                     61                     62                     63
                      A                      A                      A
 Frequencies --   2911.9750              2933.0529              3001.8289
 Red. masses --      1.0719                 1.0633                 1.0843
 Frc consts  --      5.3553                 5.3897                 5.7565
 IR Inten    --     56.6229               136.6066                72.9325

                     64                     65                     66
                      A                      A                      A
 Frequencies --   3024.2081              3026.7702              3059.9117
 Red. masses --      1.0387                 1.0623                 1.0993
 Frc consts  --      5.5971                 5.7341                 6.0644
 IR Inten    --     44.5506                34.0095                35.4470

                     67                     68                     69
                      A                      A                      A
 Frequencies --   3074.2107              3081.2462              3084.0317
 Red. masses --      1.0704                 1.0849                 1.0852
 Frc consts  --      5.9603                 6.0688                 6.0815
 IR Inten    --     29.0749                37.3540                40.6795

                     70                     71                     72
                      A                      A                      A
 Frequencies --   3093.0899              3119.3776              3135.8704
 Red. masses --      1.0972                 1.1040                 1.1035
 Frc consts  --      6.1848                 6.3292                 6.3934
 IR Inten    --     40.7809                33.5920                37.5581

                     73                     74                     75
                      A                      A                      A
 Frequencies --   3156.7324              3473.3730              3563.1948
 Red. masses --      1.0896                 1.0495                 1.0931
 Frc consts  --      6.3974                 7.4597                 8.1769
 IR Inten    --     25.9715                 0.2718                 0.1519

 - Thermochemistry -
 -------------------
 Temperature   298.150 Kelvin.  Pressure   1.00000 Atm.
 Atom     1 has atomic number  6 and mass  12.00000

 Molecular mass:   156.12626 amu.
 Principal axes and moments of inertia in atomic units:
                           1         2         3
     Eigenvalues --  1035.443782526.906742860.66044
           X            0.99998  -0.00256  -0.00650
           Y            0.00239   0.99970  -0.02454
           Z            0.00656   0.02452   0.99968
 This molecule is an asymmetric top.
 Rotational symmetry number  1.
 Warning -- assumption of classical behavior for rotation
           may cause significant error
 Rotational temperatures (Kelvin)      0.08365     0.03428     0.03028
 Rotational constants (GHZ):           1.74296     0.71421     0.63088
 Zero-point vibrational energy     637415.2 (Joules/Mol)
                                  152.34588 (Kcal/Mol)
 Warning -- explicit consideration of  18 degrees of freedom as
           vibrations may cause significant error
 Vibrational temperatures:     47.82   119.78   183.39   255.26   286.86
          (Kelvin)            307.01   335.96   384.99   419.58   426.99
                              504.10   513.94   560.69   592.91   664.65
                              727.43   803.49   876.59  1056.29  1143.51
                             1213.55  1276.65  1286.14  1353.51  1374.27
                             1427.69  1479.15  1503.14  1548.55  1566.79
                             1589.18  1598.79  1657.59  1681.24  1709.10
                             1718.85  1769.78  1781.53  1789.82  1825.74
                             1880.78  1926.24  1957.18  2004.16  2015.73
                             2039.57  2065.32  2081.66  2137.22  2143.95
                             2158.58  2176.86  2184.62  2192.51  2209.76
                             2213.81  2222.50  2409.34  2519.29  4178.63
                             4189.68  4220.01  4318.96  4351.16  4354.85
                             4402.53  4423.10  4433.23  4437.23  4450.27
                             4488.09  4511.82  4541.83  4997.41  5126.64

 Zero-point correction=                           0.242779 (Hartree/Particle)
 Thermal correction to Energy=                    0.254494
 Thermal correction to Enthalpy=                  0.255438
 Thermal correction to Gibbs Free Energy=         0.205269
 Sum of electronic and zero-point Energies=           -498.961872
 Sum of electronic and thermal Energies=              -498.950157
 Sum of electronic and thermal Enthalpies=            -498.949212
 Sum of electronic and thermal Free Energies=         -498.999382

                     E (Thermal)             CV                S
                      KCal/Mol        Cal/Mol-Kelvin    Cal/Mol-Kelvin
 Total                  159.697             44.338            105.591
 Electronic               0.000              0.000              0.000
 Translational            0.889              2.981             41.046
 Rotational               0.889              2.981             30.394
 Vibrational            157.920             38.376             34.151
 Vibration     1          0.594              1.983              5.626
 Vibration     2          0.600              1.961              3.813
 Vibration     3          0.611              1.926              2.984
 Vibration     4          0.628              1.870              2.355
 Vibration     5          0.638              1.841              2.139
 Vibration     6          0.644              1.821              2.015
 Vibration     7          0.654              1.790              1.852
 Vibration     8          0.673              1.733              1.612
 Vibration     9          0.687              1.689              1.465
 Vibration    10          0.690              1.680              1.435
 Vibration    11          0.727              1.574              1.165
 Vibration    12          0.732              1.560              1.134
 Vibration    13          0.758              1.492              1.001
 Vibration    14          0.776              1.444              0.919
 Vibration    15          0.820              1.334              0.760
 Vibration    16          0.861              1.238              0.644
 Vibration    17          0.914              1.121              0.527
 Vibration    18          0.968              1.012              0.434

 Optimization completed.
    -- Stationary point found.
 Normal termination of Gaussian 16 at Tue Dec  8 21:58:37 2020.

 ----------------------------------------------------------------------
 # B3LYP/6-311++G(d,p) empiricaldispersion=gd3bj scf=xqc pop=npa geom=c
 heck
 ----------------------------------------------------------------------

 ---------------------------------------
 CID_153439808_JID_1947_Energie_neutraal
 ---------------------------------------
 Structure from the checkpoint file:  "JID_1947.chk"
 Charge =  0 Multiplicity = 1

 SCF Done:  E(RB3LYP) =  -499.354893929     A.U. after   15 cycles
 Normal termination of Gaussian 16 at Tue Dec  8 22:01:28 2020.

 ----------------------------------------------------------------------
 # B3LYP/6-311++G(d,p) empiricaldispersion=gd3bj scf=xqc pop=npa geom=c
 heck
 ----------------------------------------------------------------------

 -------------------------------------
 CID_153439808_JID_1947_Energie_kation
 -------------------------------------
 Structure from the checkpoint file:  "JID_1947.chk"
 Charge =  1 Multiplicity = 2

 SCF Done:  E(UB3LYP) =  -499.057529078     A.U. after   30 cycles
 Normal termination of Gaussian 16 at Tue Dec  8 22:09:18 2020.
 Gaussian 16:  ES64L-G16RevA.03 25-Dec-2016

 ----------------------------------------------------------------------
 # B3LYP/6-311++G(d,p) empiricaldispersion=gd3bj scf=xqc pop=npa geom=c
 heck
 ----------------------------------------------------------------------

 ------------------------------------
 CID_153439808_JID_1947_Energie_anion
 ------------------------------------
 Structure from the checkpoint file:  "JID_1947.chk"
 Charge = -1 Multiplicity = 2

                         Standard orientation:
 ---------------------------------------------------------------------
 Center     Atomic      Atomic             Coordinates (Angstroms)
 Number     Number       Type             X           Y           Z
 ---------------------------------------------------------------------
      1          6           0        2.683439    1.762451   -0.070232
      2          7           0        1.927844    0.568940    0.265649
      3          6           0        2.335934   -0.582922   -0.531035
      4          6           0        1.708511   -1.854114    0.041436
      5          6           0        0.250558   -1.646033    0.336874
      6          6           0       -0.323687   -0.439095    0.363785
      7          6           0        0.493910    0.813505    0.141084
      8          6           0       -1.821124   -0.328771    0.613109
      9          7           0       -2.141777    0.918086    1.303768
     10          8           0       -2.626952   -0.420321   -0.555511
     11          6           0       -2.339625    0.514663   -1.584020
     12          1           0        3.751434    1.582204    0.092542
     13          1           0        2.372923    2.589184    0.578214
     14          1           0        2.544122    2.085396   -1.121583
     15          1           0        2.040435   -0.466569   -1.594290
     16          1           0        3.428895   -0.653789   -0.507072
     17          1           0        1.837061   -2.685851   -0.664375
     18          1           0        2.233874   -2.145021    0.962497
     19          1           0       -0.355293   -2.530010    0.533401
     20          1           0        0.206406    1.580175    0.868698
     21          1           0        0.246286    1.246235   -0.850555
     22          1           0       -2.130741   -1.225375    1.170728
     23          1           0       -3.130742    0.906395    1.546848
     24          1           0       -1.614941    0.981751    2.173483
     25          1           0       -2.275442    1.537358   -1.195385
     26          1           0       -1.403618    0.265058   -2.103132
     27          1           0       -3.164998    0.448147   -2.297853
 ---------------------------------------------------------------------

 SCF Done:  E(UB3LYP) =  -499.338699130     A.U. after   33 cycles
 SCF Done:  E(UB3LYP) =  -499.338699130     a.u. after    1 cycles

 The electronic state is 2-A.
 Alpha  occ. eigenvalues --  -19.01886 -14.20077 -14.18955 -10.14319 -10.10196
 Alpha  occ. eigenvalues --  -10.08781 -10.08773 -10.08181 -10.06892 -10.06857
 Alpha  occ. eigenvalues --  -10.06606  -0.93463  -0.82822  -0.77574  -0.70137
 Alpha  occ. eigenvalues --   -0.65593  -0.60827  -0.58765  -0.54368  -0.51759
 Alpha  occ. eigenvalues --   -0.48145  -0.42151  -0.40737  -0.39069  -0.37339
 Alpha  occ. eigenvalues --   -0.36975  -0.35981  -0.34850  -0.33034  -0.32459
 Alpha  occ. eigenvalues --   -0.30984  -0.29981  -0.28940  -0.28434  -0.27344
 Alpha  occ. eigenvalues --   -0.26170  -0.24282  -0.23061  -0.21010  -0.16644
 Alpha  occ. eigenvalues --   -0.14833  -0.14272  -0.11659   0.04671
 Alpha virt. eigenvalues --    0.06756   0.07479   0.07763   0.09139   0.09311
 Alpha virt. eigenvalues --    0.09645   0.10184   0.10852   0.11032   0.12069
 Alpha virt. eigenvalues --    0.12378   0.12710   0.13150   0.14389   0.14861

  Beta  occ. eigenvalues --  -19.01882 -14.20064 -14.18906 -10.14306 -10.10176
  Beta  occ. eigenvalues --  -10.08758 -10.08753 -10.08148 -10.06891 -10.06839
  Beta  occ. eigenvalues --  -10.06599  -0.93448  -0.82797  -0.77497  -0.70106
  Beta  occ. eigenvalues --   -0.65553  -0.60782  -0.58714  -0.54321  -0.51702
  Beta  occ. eigenvalues --   -0.48081  -0.42111  -0.40687  -0.39020  -0.37293
  Beta  occ. eigenvalues --   -0.36936  -0.35945  -0.34804  -0.33003  -0.32428
  Beta  occ. eigenvalues --   -0.30945  -0.29946  -0.28911  -0.28400  -0.27302
  Beta  occ. eigenvalues --   -0.26139  -0.24248  -0.23026  -0.20986  -0.16623
  Beta  occ. eigenvalues --   -0.14784  -0.14252  -0.11591
  Beta virt. eigenvalues --    0.06888   0.07872   0.07999   0.08367   0.09697
  Beta virt. eigenvalues --    0.09858   0.09988   0.10577   0.11309   0.11376
  Beta virt. eigenvalues --    0.12424   0.12929   0.13250   0.13531   0.14517

 Mulliken charges and spin densities:
               1          2
     1  C    0.579123  -0.859607
     2  N   -0.070703   0.241758
     3  C    0.509429  -0.837391
     4  C    0.934190  -1.590958
     5  C    2.781353  -2.473295
     6  C   -2.068458   2.974268
     7  C   -2.077974   1.421243
     8  C    0.808015  -2.217576
     9  N   -0.448741   0.199076
    10  O   -0.116633   0.045828
    11  C    0.193007  -0.477849
    12  H   -0.337652   0.479809
    13  H   -0.345235   0.466160
    14  H   -0.245048   0.351739
    15  H    0.047549   0.050740
    16  H   -0.295652   0.477228
    17  H   -0.183782   0.326798
    18  H   -0.086117   0.237648
    19  H   -0.110368   0.286113
    20  H    0.415434  -0.233256
    21  H    0.135111  -0.014286
    22  H   -0.444207   0.640496
    23  H   -0.110260   0.362389
    24  H   -0.324543   0.558538
    25  H    0.022196   0.146098
    26  H   -0.014691   0.149842
    27  H   -0.145342   0.288446
 Sum of Mulliken charges =  -1.00000   1.00000

 Dipole moment (field-independent basis, Debye):
    X=             -0.4714    Y=             -1.1296    Z=             -2.2171  Tot=              2.5325
 Quadrupole moment (field-independent basis, Debye-Ang):
   XX=           -135.1745   YY=           -106.2783   ZZ=           -105.0298
   XY=             -1.6037   XZ=              5.5719   YZ=             -2.2976

 Summary of Natural Population Analysis:

                                       Natural Population
                Natural  -----------------------------------------------
    Atom  No    Charge         Core      Valence    Rydberg      Total
 -----------------------------------------------------------------------
      C    1   -0.17498      0.99965     2.16636    0.00897     3.17498
      N    2   -0.27652      0.99972     2.76338    0.01342     3.77652
      C    3   -0.08135      0.99962     2.07013    0.01160     3.08135
      C    4   -0.20690      0.99961     2.19817    0.00912     3.20690
      C    5   -0.07585      0.99945     2.06659    0.00981     3.07585
      C    6   -0.03395      0.99944     2.02224    0.01227     3.03395
      C    7   -0.09998      0.99956     2.08840    0.01202     3.09998
      C    8    0.14715      0.99954     1.83406    0.01926     2.85285
      N    9   -0.43212      0.99976     2.92133    0.01103     3.93212
      O   10   -0.30091      0.99989     3.29122    0.00981     4.30091
      C   11   -0.10453      0.99960     2.09635    0.00858     3.10453
      H   12    0.09647      0.00000     0.40203    0.00150     0.40353
      H   13    0.09590      0.00000     0.40277    0.00133     0.40410
      H   14    0.07887      0.00000     0.41960    0.00153     0.42113
      H   15    0.07790      0.00000     0.42041    0.00170     0.42210
      H   16    0.09817      0.00000     0.40003    0.00180     0.40183
      H   17    0.10070      0.00000     0.39819    0.00111     0.39930
      H   18    0.10378      0.00000     0.39453    0.00169     0.39622
      H   19    0.09701      0.00000     0.40163    0.00136     0.40299
      H   20    0.10756      0.00000     0.39012    0.00232     0.39244
      H   21    0.08653      0.00000     0.41154    0.00193     0.41347
      H   22    0.07989      0.00000     0.41708    0.00302     0.42011
      H   23    0.18115      0.00000     0.31577    0.00308     0.31885
      H   24    0.18152      0.00000     0.31518    0.00330     0.31848
      H   25    0.08884      0.00000     0.40937    0.00179     0.41116
      H   26    0.07957      0.00000     0.41882    0.00161     0.42043
      H   27    0.08607      0.00000     0.41277    0.00116     0.41393
 =======================================================================
   * Total *    0.00000     10.99582    31.84807    0.15610    43.00000

 Normal termination of Gaussian 16 at Tue Dec  8 22:17:58 2020.
