 Gaussian 16, Revision A.03,

 -----------------------------------------------------------
 # opt freq B3LYP/6-31G(d) empiricaldispersion=gd3bj scf=xqc
 -----------------------------------------------------------

 ------------------------------
 CID_83695837_JID_1147_neutraal
 ------------------------------
 Symbolic Z-matrix:
 Charge =  0 Multiplicity = 1

 SCF Done:  E(RB3LYP) =  -859.273669155     A.U. after   14 cycles
 SCF Done:  E(RB3LYP) =  -859.282836661     A.U. after   13 cycles
 SCF Done:  E(RB3LYP) =  -859.286529304     A.U. after   13 cycles
 SCF Done:  E(RB3LYP) =  -859.287679289     A.U. after   14 cycles
 SCF Done:  E(RB3LYP) =  -859.288804744     A.U. after   13 cycles
 SCF Done:  E(RB3LYP) =  -859.289034976     A.U. after   12 cycles
 SCF Done:  E(RB3LYP) =  -859.289211638     A.U. after   12 cycles
 SCF Done:  E(RB3LYP) =  -859.289281874     A.U. after   10 cycles
 SCF Done:  E(RB3LYP) =  -859.289302471     A.U. after   10 cycles
 SCF Done:  E(RB3LYP) =  -859.289303262     A.U. after   10 cycles
 SCF Done:  E(RB3LYP) =  -859.289306559     A.U. after    8 cycles
 Optimization completed.
    -- Stationary point found.
 Normal termination of Gaussian 16 at Tue Dec  8 19:15:28 2020.

 --------------------------------------------------------------------
 #N Geom=AllCheck Guess=TCheck SCRF=Check GenChk RB3LYP/6-31G(d) Freq
 --------------------------------------------------------------------

 Structure from the checkpoint file:  "JID_1147.chk"
 ------------------------------
 CID_83695837_JID_1147_neutraal
 ------------------------------
 Charge =  0 Multiplicity = 1

 SCF Done:  E(RB3LYP) =  -859.289306559     A.U. after    1 cycles

  Exact polarizability: 126.098  -2.251  95.210  -0.074   1.857  95.056
 Approx polarizability: 159.621  -0.504 150.644   2.973   8.830 144.049

                      1                      2                      3
                      A                      A                      A
 Frequencies --     42.2934                64.8184                80.6123
 Red. masses --      3.9089                 3.3105                 2.8177
 Frc consts  --      0.0041                 0.0082                 0.0108
 IR Inten    --      1.8762                 1.2105                 0.0819

                      4                      5                      6
                      A                      A                      A
 Frequencies --    140.2997               157.4157               191.0410
 Red. masses --      3.9368                 3.5451                 3.4638
 Frc consts  --      0.0457                 0.0518                 0.0745
 IR Inten    --      6.8836                 1.4973                 3.5143

                      7                      8                      9
                      A                      A                      A
 Frequencies --    203.1721               240.3340               283.2322
 Red. masses --      2.3668                 2.8061                 2.5362
 Frc consts  --      0.0576                 0.0955                 0.1199
 IR Inten    --      2.9465                21.7863                 8.7450

                     10                     11                     12
                      A                      A                      A
 Frequencies --    315.1970               337.1360               378.7023
 Red. masses --      2.7138                 3.0892                 1.2637
 Frc consts  --      0.1589                 0.2069                 0.1068
 IR Inten    --      4.0094                 9.3172                84.8086

                     13                     14                     15
                      A                      A                      A
 Frequencies --    412.3108               483.5223               537.9624
 Red. masses --      3.2283                 3.5386                 2.1004
 Frc consts  --      0.3234                 0.4874                 0.3581
 IR Inten    --      6.1849                10.7602                22.0902

                     16                     17                     18
                      A                      A                      A
 Frequencies --    574.5440               596.3226               647.5614
 Red. masses --      2.4101                 2.9435                 4.2053
 Frc consts  --      0.4687                 0.6167                 1.0390
 IR Inten    --     17.8003                 9.6276                54.1608

                     19                     20                     21
                      A                      A                      A
 Frequencies --    677.3001               813.2031               839.7038
 Red. masses --      2.8463                 1.2894                 1.7412
 Frc consts  --      0.7693                 0.5024                 0.7234
 IR Inten    --      3.9195                35.1259                 0.3943

                     22                     23                     24
                      A                      A                      A
 Frequencies --    876.9655               879.4831               912.9112
 Red. masses --      2.1579                 2.5468                 3.7496
 Frc consts  --      0.9778                 1.1607                 1.8411
 IR Inten    --      5.3595                 9.1530                 1.2208

                     25                     26                     27
                      A                      A                      A
 Frequencies --    915.3954               928.4975               948.0244
 Red. masses --      2.1446                 1.9135                 1.5528
 Frc consts  --      1.0588                 0.9719                 0.8223
 IR Inten    --      1.9564                 0.8795                51.2895

                     28                     29                     30
                      A                      A                      A
 Frequencies --    952.9465               964.1955              1041.4412
 Red. masses --      1.4499                 1.7248                 1.5986
 Frc consts  --      0.7758                 0.9448                 1.0215
 IR Inten    --     55.7035                47.5043                 2.0583

                     31                     32                     33
                      A                      A                      A
 Frequencies --   1048.3960              1057.8044              1070.8341
 Red. masses --      1.8821                 1.9733                 6.1609
 Frc consts  --      1.2188                 1.3009                 4.1623
 IR Inten    --     16.1563                57.7736               131.0647

                     34                     35                     36
                      A                      A                      A
 Frequencies --   1097.3965              1108.8361              1139.8858
 Red. masses --      1.9989                 2.2401                 2.1295
 Frc consts  --      1.4183                 1.6228                 1.6303
 IR Inten    --      7.3143                 0.7526                25.9369

                     37                     38                     39
                      A                      A                      A
 Frequencies --   1166.4301              1200.8848              1220.8868
 Red. masses --      1.3894                 1.4838                 1.2958
 Frc consts  --      1.1138                 1.2608                 1.1380
 IR Inten    --      4.2587                 0.1364                 0.7510

                     40                     41                     42
                      A                      A                      A
 Frequencies --   1245.1116              1267.3017              1274.9077
 Red. masses --      1.3717                 1.3715                 1.1919
 Frc consts  --      1.2530                 1.2978                 1.1415
 IR Inten    --      0.6597                 4.8760                 7.3744

                     43                     44                     45
                      A                      A                      A
 Frequencies --   1298.8396              1315.6119              1337.5349
 Red. masses --      1.2549                 1.2649                 1.3208
 Frc consts  --      1.2473                 1.2900                 1.3922
 IR Inten    --      2.1024                 0.7173                 2.0164

                     46                     47                     48
                      A                      A                      A
 Frequencies --   1367.1634              1369.5694              1375.1468
 Red. masses --      1.2472                 1.3477                 1.4177
 Frc consts  --      1.3735                 1.4894                 1.5796
 IR Inten    --      3.3709                 1.1723                 0.1391

                     49                     50                     51
                      A                      A                      A
 Frequencies --   1377.5783              1391.4161              1433.9610
 Red. masses --      1.2201                 1.2251                 1.3701
 Frc consts  --      1.3642                 1.3975                 1.6598
 IR Inten    --      3.0586                 9.6105                 5.7321

                     52                     53                     54
                      A                      A                      A
 Frequencies --   1455.8395              1507.4872              1513.8972
 Red. masses --      1.1716                 1.0874                 1.0861
 Frc consts  --      1.4630                 1.4559                 1.4666
 IR Inten    --     34.3733                 2.3986                 1.8031

                     55                     56                     57
                      A                      A                      A
 Frequencies --   1521.3762              1526.7716              1529.4905
 Red. masses --      1.0860                 1.0859                 1.0891
 Frc consts  --      1.4809                 1.4914                 1.5011
 IR Inten    --      3.7637                 2.3133                 5.4783

                     58                     59                     60
                      A                      A                      A
 Frequencies --   1547.6182              1706.1211              3012.2228
 Red. masses --      1.0967                 1.0821                 1.0680
 Frc consts  --      1.5477                 1.8558                 5.7093
 IR Inten    --      2.6337                45.3882                41.2671

                     61                     62                     63
                      A                      A                      A
 Frequencies --   3047.3670              3063.6138              3065.2985
 Red. masses --      1.0676                 1.0687                 1.0639
 Frc consts  --      5.8414                 5.9097                 5.8897
 IR Inten    --     33.5321                18.3460                19.8909

                     64                     65                     66
                      A                      A                      A
 Frequencies --   3066.4550              3076.4082              3083.2045
 Red. masses --      1.0601                 1.0608                 1.0912
 Frc consts  --      5.8730                 5.9153                 6.1118
 IR Inten    --     21.2057                19.1360                61.6826

                     67                     68                     69
                      A                      A                      A
 Frequencies --   3094.1500              3103.1402              3106.6546
 Red. masses --      1.0873                 1.0962                 1.0972
 Frc consts  --      6.1330                 6.2191                 6.2389
 IR Inten    --     16.1450                17.0630                22.2720

                     70                     71                     72
                      A                      A                      A
 Frequencies --   3115.4401              3116.1090              3125.6225
 Red. masses --      1.1078                 1.1060                 1.1054
 Frc consts  --      6.3352                 6.3275                 6.3625
 IR Inten    --     30.0548                31.2874                46.4809

                     73                     74                     75
                      A                      A                      A
 Frequencies --   3439.9093              3446.7696              3551.6919
 Red. masses --      1.0723                 1.0544                 1.0890
 Frc consts  --      7.4761                 7.3803                 8.0938
 IR Inten    --     10.7672                31.3409                 5.4979

 - Thermochemistry -
 -------------------
 Temperature   298.150 Kelvin.  Pressure   1.00000 Atm.
 Atom     1 has atomic number  6 and mass  12.00000

 Molecular mass:   176.09834 amu.
 Principal axes and moments of inertia in atomic units:
                           1         2         3
     Eigenvalues --  1055.295253056.275893176.22074
           X            0.99999  -0.00448  -0.00252
           Y            0.00453   0.99981   0.01907
           Z            0.00244  -0.01908   0.99981
 This molecule is an asymmetric top.
 Rotational symmetry number  1.
 Warning -- assumption of classical behavior for rotation
           may cause significant error
 Rotational temperatures (Kelvin)      0.08208     0.02834     0.02727
 Rotational constants (GHZ):           1.71018     0.59050     0.56820
 Zero-point vibrational energy     630579.7 (Joules/Mol)
                                  150.71218 (Kcal/Mol)
 Warning -- explicit consideration of  17 degrees of freedom as
           vibrations may cause significant error
 Vibrational temperatures:     60.85    93.26   115.98   201.86   226.49
          (Kelvin)            274.87   292.32   345.79   407.51   453.50
                              485.06   544.87   593.22   695.68   774.01
                              826.64   857.98   931.70   974.48  1170.02
                             1208.15  1261.76  1265.38  1313.48  1317.05
                             1335.90  1364.00  1371.08  1387.26  1498.40
                             1508.41  1521.94  1540.69  1578.91  1595.37
                             1640.04  1678.23  1727.81  1756.58  1791.44
                             1823.36  1834.31  1868.74  1892.87  1924.41
                             1967.04  1970.50  1978.53  1982.03  2001.94
                             2063.15  2094.63  2168.94  2178.16  2188.92
                             2196.68  2200.60  2226.68  2454.73  4333.92
                             4384.48  4407.86  4410.28  4411.94  4426.27
                             4436.04  4451.79  4464.73  4469.78  4482.42
                             4483.39  4497.07  4949.26  4959.13  5110.09

 Zero-point correction=                           0.240175 (Hartree/Particle)
 Thermal correction to Energy=                    0.252168
 Thermal correction to Enthalpy=                  0.253112
 Thermal correction to Gibbs Free Energy=         0.201662
 Sum of electronic and zero-point Energies=           -859.049131
 Sum of electronic and thermal Energies=              -859.037138
 Sum of electronic and thermal Enthalpies=            -859.036194
 Sum of electronic and thermal Free Energies=         -859.087645

                     E (Thermal)             CV                S
                      KCal/Mol        Cal/Mol-Kelvin    Cal/Mol-Kelvin
 Total                  158.238             45.273            108.287
 Electronic               0.000              0.000              0.000
 Translational            0.889              2.981             41.405
 Rotational               0.889              2.981             30.705
 Vibrational            156.460             39.311             36.177
 Vibration     1          0.595              1.980              5.149
 Vibration     2          0.597              1.971              4.305
 Vibration     3          0.600              1.962              3.876
 Vibration     4          0.615              1.913              2.800
 Vibration     5          0.621              1.894              2.581
 Vibration     6          0.634              1.852              2.218
 Vibration     7          0.639              1.835              2.104
 Vibration     8          0.657              1.779              1.800
 Vibration     9          0.682              1.705              1.514
 Vibration    10          0.703              1.645              1.335
 Vibration    11          0.718              1.601              1.226
 Vibration    12          0.749              1.516              1.044
 Vibration    13          0.776              1.444              0.918
 Vibration    14          0.840              1.287              0.701
 Vibration    15          0.893              1.166              0.570
 Vibration    16          0.931              1.086              0.496
 Vibration    17          0.954              1.040              0.456

 Optimization completed.
    -- Stationary point found.
 Normal termination of Gaussian 16 at Tue Dec  8 19:21:35 2020.

 ----------------------------------------------------------------------
 # B3LYP/6-311++G(d,p) empiricaldispersion=gd3bj scf=xqc pop=npa geom=c
 heck
 ----------------------------------------------------------------------

 --------------------------------------
 CID_83695837_JID_1147_Energie_neutraal
 --------------------------------------
 Structure from the checkpoint file:  "JID_1147.chk"
 Charge =  0 Multiplicity = 1

 SCF Done:  E(RB3LYP) =  -859.459988610     A.U. after   14 cycles
 Normal termination of Gaussian 16 at Tue Dec  8 19:24:29 2020.

 ----------------------------------------------------------------------
 # B3LYP/6-311++G(d,p) empiricaldispersion=gd3bj scf=xqc pop=npa geom=c
 heck
 ----------------------------------------------------------------------

 ------------------------------------
 CID_83695837_JID_1147_Energie_kation
 ------------------------------------
 Structure from the checkpoint file:  "JID_1147.chk"
 Charge =  1 Multiplicity = 2

 SCF Done:  E(UB3LYP) =  -859.152479023     A.U. after   23 cycles
 Normal termination of Gaussian 16 at Tue Dec  8 19:31:23 2020.
 Gaussian 16:  ES64L-G16RevA.03 25-Dec-2016

 ----------------------------------------------------------------------
 # B3LYP/6-311++G(d,p) empiricaldispersion=gd3bj scf=xqc pop=npa geom=c
 heck
 ----------------------------------------------------------------------

 -----------------------------------
 CID_83695837_JID_1147_Energie_anion
 -----------------------------------
 Structure from the checkpoint file:  "JID_1147.chk"
 Charge = -1 Multiplicity = 2

                         Standard orientation:
 ---------------------------------------------------------------------
 Center     Atomic      Atomic             Coordinates (Angstroms)
 Number     Number       Type             X           Y           Z
 ---------------------------------------------------------------------
      1          6           0       -3.175638   -0.819984   -0.288371
      2          6           0       -2.298035   -1.203445    0.913075
      3          6           0       -1.646918    0.131419    1.314565
      4          6           0       -1.451643    0.895715   -0.017739
      5          6           0       -2.302056    0.169176   -1.087384
      6         16           0        0.327100    1.045579   -0.509510
      7          8           0        1.015085    1.680881    0.684547
      8          7           0        0.650820   -0.645759   -0.581788
      9          6           0        1.989672   -0.975452   -1.103771
     10          6           0        3.149419   -0.473165   -0.223271
     11          7           0        2.818614   -0.692267    1.190669
     12          1           0       -4.085188   -0.317118    0.065154
     13          1           0       -3.488289   -1.680537   -0.888441
     14          1           0       -2.864515   -1.657722    1.732390
     15          1           0       -1.535061   -1.923391    0.595938
     16          1           0       -0.715517    0.036637    1.882391
     17          1           0       -2.333136    0.703651    1.948999
     18          1           0       -1.729976    1.947873    0.091258
     19          1           0       -1.647118   -0.385646   -1.766572
     20          1           0       -2.890590    0.868609   -1.688197
     21          1           0        0.589502   -1.032612    0.364732
     22          1           0        2.019117   -2.068353   -1.165372
     23          1           0        2.071908   -0.580224   -2.122127
     24          1           0        4.050154   -1.043190   -0.479465
     25          1           0        3.354904    0.582916   -0.453899
     26          1           0        3.672262   -0.735745    1.742255
     27          1           0        2.302404    0.129134    1.511940
 ---------------------------------------------------------------------

 SCF Done:  E(UB3LYP) =  -859.444518896     A.U. after   27 cycles

 The electronic state is 2-A.
 Alpha  occ. eigenvalues --  -88.86233 -18.98938 -14.23242 -14.19237 -10.10607
 Alpha  occ. eigenvalues --  -10.10392 -10.09456 -10.07439 -10.07225 -10.06699
 Alpha  occ. eigenvalues --  -10.06653  -7.93741  -5.90086  -5.89857  -5.89307
 Alpha  occ. eigenvalues --   -0.92702  -0.82111  -0.77679  -0.74591  -0.65206
 Alpha  occ. eigenvalues --   -0.61918  -0.61538  -0.55627  -0.50283  -0.47835
 Alpha  occ. eigenvalues --   -0.46833  -0.41655  -0.39985  -0.39729  -0.37890
 Alpha  occ. eigenvalues --   -0.35956  -0.34607  -0.33429  -0.32029  -0.30426
 Alpha  occ. eigenvalues --   -0.29240  -0.28572  -0.27536  -0.26103  -0.25341
 Alpha  occ. eigenvalues --   -0.24467  -0.24166  -0.23719  -0.22984  -0.20093
 Alpha  occ. eigenvalues --   -0.16335  -0.15206  -0.14007   0.04463
 Alpha virt. eigenvalues --    0.05930   0.07617   0.07692   0.08495   0.09135
 Alpha virt. eigenvalues --    0.09477   0.10285   0.10427   0.11189   0.11220
 Alpha virt. eigenvalues --    0.11955   0.12521   0.12828   0.14028   0.14550

  Beta  occ. eigenvalues --  -88.86231 -18.98934 -14.23236 -14.19215 -10.10590
  Beta  occ. eigenvalues --  -10.10382 -10.09434 -10.07421 -10.07206 -10.06680
  Beta  occ. eigenvalues --  -10.06623  -7.93739  -5.90084  -5.89856  -5.89302
  Beta  occ. eigenvalues --   -0.92696  -0.82094  -0.77645  -0.74555  -0.65172
  Beta  occ. eigenvalues --   -0.61872  -0.61486  -0.55589  -0.50229  -0.47751
  Beta  occ. eigenvalues --   -0.46800  -0.41625  -0.39926  -0.39676  -0.37856
  Beta  occ. eigenvalues --   -0.35921  -0.34584  -0.33400  -0.31989  -0.30387
  Beta  occ. eigenvalues --   -0.29211  -0.28540  -0.27504  -0.26070  -0.25304
  Beta  occ. eigenvalues --   -0.24418  -0.24128  -0.23685  -0.22941  -0.20077
  Beta  occ. eigenvalues --   -0.16320  -0.15176  -0.13989
  Beta virt. eigenvalues --    0.06754   0.07296   0.08197   0.08317   0.09191
  Beta virt. eigenvalues --    0.09627   0.09927   0.10600   0.10706   0.11478
  Beta virt. eigenvalues --    0.11837   0.12237   0.12798   0.13097   0.14415

 Mulliken charges and spin densities:
               1          2
     1  C    0.974001  -1.446792
     2  C   -0.067316  -0.079991
     3  C    0.377578  -0.927335
     4  C   -0.851074   0.986404
     5  C    0.388463  -0.812950
     6  S    0.463968  -0.283711
     7  O   -0.434644   0.010965
     8  N   -0.272548   0.011380
     9  C    0.294817  -0.364738
    10  C    0.474170  -0.992499
    11  N   -0.463514   0.003392
    12  H   -0.243345   0.399316
    13  H   -0.260831   0.420008
    14  H   -0.230328   0.404905
    15  H   -0.054583   0.169486
    16  H    0.106751   0.048667
    17  H   -0.399318   0.579376
    18  H   -0.283233   0.599583
    19  H    0.031398   0.118448
    20  H   -0.365434   0.528083
    21  H    0.414287  -0.143530
    22  H   -0.161228   0.340902
    23  H   -0.132016   0.273091
    24  H   -0.629483   0.802136
    25  H    0.097499   0.043410
    26  H   -0.057387   0.301933
    27  H    0.283352   0.010061
 Sum of Mulliken charges =  -1.00000   1.00000

 Dipole moment (field-independent basis, Debye):
    X=              1.8021    Y=              0.5845    Z=             -0.9485  Tot=              2.1187
 Quadrupole moment (field-independent basis, Debye-Ang):
   XX=           -160.7905   YY=           -115.4041   ZZ=           -110.2219
   XY=              8.0875   XZ=              1.4691   YZ=             -2.3799

 Summary of Natural Population Analysis:

                                       Natural Population
                Natural  -----------------------------------------------
    Atom  No    Charge         Core      Valence    Rydberg      Total
 -----------------------------------------------------------------------
      C    1   -0.18783      0.99963     2.17970    0.00850     3.18783
      C    2   -0.19187      0.99963     2.18384    0.00839     3.19187
      C    3   -0.20196      0.99961     2.19248    0.00987     3.20196
      C    4   -0.18763      0.99956     2.17112    0.01695     3.18763
      C    5   -0.20068      0.99961     2.19154    0.00953     3.20068
      S    6    0.66234      4.99940     2.28241    0.05585     7.33766
      O    7   -0.49126      0.99993     3.48566    0.00567     4.49126
      N    8   -0.42596      0.99978     2.91436    0.01181     3.92596
      C    9   -0.09293      0.99963     2.07957    0.01373     3.09293
      C   10   -0.10291      0.99964     2.09163    0.01164     3.10291
      N   11   -0.43898      0.99977     2.92827    0.01094     3.93898
      H   12    0.09772      0.00000     0.39942    0.00286     0.40228
      H   13    0.10016      0.00000     0.39878    0.00106     0.39984
      H   14    0.10185      0.00000     0.39698    0.00117     0.39815
      H   15    0.09519      0.00000     0.40301    0.00181     0.40481
      H   16    0.10712      0.00000     0.39150    0.00138     0.39288
      H   17    0.10642      0.00000     0.39198    0.00161     0.39358
      H   18    0.11079      0.00000     0.38759    0.00163     0.38921
      H   19    0.10573      0.00000     0.39200    0.00227     0.39427
      H   20    0.10514      0.00000     0.39306    0.00180     0.39486
      H   21    0.18904      0.00000     0.30694    0.00402     0.31096
      H   22    0.09886      0.00000     0.39992    0.00122     0.40114
      H   23    0.09510      0.00000     0.40352    0.00138     0.40490
      H   24    0.09436      0.00000     0.40288    0.00276     0.40564
      H   25    0.08434      0.00000     0.41411    0.00154     0.41566
      H   26    0.17753      0.00000     0.32077    0.00170     0.32247
      H   27    0.19033      0.00000     0.30744    0.00223     0.30967
 =======================================================================
   * Total *   -0.00000     14.99620    32.81049    0.19332    48.00000

 Normal termination of Gaussian 16 at Tue Dec  8 19:39:15 2020.
