 Gaussian 16, Revision A.03,

 -----------------------------------------------------------
 # opt freq B3LYP/6-31G(d) empiricaldispersion=gd3bj scf=xqc
 -----------------------------------------------------------

 ------------------------------
 CID_19009677_JID_5049_neutraal
 ------------------------------
 Symbolic Z-matrix:
 Charge =  0 Multiplicity = 1

 SCF Done:  E(RB3LYP) =  -610.972373558     A.U. after   15 cycles
 SCF Done:  E(RB3LYP) =  -610.980377861     A.U. after   13 cycles
 SCF Done:  E(RB3LYP) =  -610.980164634     A.U. after   13 cycles
 SCF Done:  E(RB3LYP) =  -610.982588292     A.U. after   12 cycles
 SCF Done:  E(RB3LYP) =  -610.982921212     A.U. after   11 cycles
 SCF Done:  E(RB3LYP) =  -610.982960199     A.U. after   10 cycles
 SCF Done:  E(RB3LYP) =  -610.982963565     A.U. after    9 cycles
 SCF Done:  E(RB3LYP) =  -610.982963783     A.U. after    7 cycles
 SCF Done:  E(RB3LYP) =  -610.982963824     A.U. after    7 cycles
 Optimization completed.
    -- Stationary point found.
 Normal termination of Gaussian 16 at Thu Dec 10 14:41:34 2020.

 --------------------------------------------------------------------
 #N Geom=AllCheck Guess=TCheck SCRF=Check GenChk RB3LYP/6-31G(d) Freq
 --------------------------------------------------------------------

 Structure from the checkpoint file:  "JID_5049.chk"
 ------------------------------
 CID_19009677_JID_5049_neutraal
 ------------------------------
 Charge =  0 Multiplicity = 1

 SCF Done:  E(RB3LYP) =  -610.982963825     A.U. after    1 cycles

  Exact polarizability: 238.596   2.325 164.539   3.436  -1.923  50.123
 Approx polarizability: 402.237   9.761 307.874   8.968  -6.404  80.901

                      1                      2                      3
                      A                      A                      A
 Frequencies --     82.7044               104.6561               193.3447
 Red. masses --      4.6771                 3.7704                 4.3953
 Frc consts  --      0.0188                 0.0243                 0.0968
 IR Inten    --      0.1327                 2.2882                 0.1426

                      4                      5                      6
                      A                      A                      A
 Frequencies --    229.6245               249.1720               289.5842
 Red. masses --      4.4643                 4.3934                 4.2455
 Frc consts  --      0.1387                 0.1607                 0.2098
 IR Inten    --      1.5334                 3.2943                 3.5036

                      7                      8                      9
                      A                      A                      A
 Frequencies --    348.8212               381.9949               411.2972
 Red. masses --      4.1835                 1.2871                 6.0047
 Frc consts  --      0.2999                 0.1107                 0.5985
 IR Inten    --      3.0504                26.7288                 0.6633

                     10                     11                     12
                      A                      A                      A
 Frequencies --    439.4692               485.7951               501.0595
 Red. masses --      2.9504                 4.2776                 4.3706
 Frc consts  --      0.3357                 0.5948                 0.6465
 IR Inten    --      8.6551                 2.4708                 0.2629

                     13                     14                     15
                      A                      A                      A
 Frequencies --    518.8468               534.5512               557.7307
 Red. masses --      4.9445                 3.5934                 5.8336
 Frc consts  --      0.7842                 0.6050                 1.0692
 IR Inten    --      5.0992                 0.8619                 1.4730

                     16                     17                     18
                      A                      A                      A
 Frequencies --    570.9005               582.5315               650.0018
 Red. masses --      6.4879                 3.6562                 3.3594
 Frc consts  --      1.2459                 0.7310                 0.8363
 IR Inten    --      3.2657                 1.0185                41.0925

                     19                     20                     21
                      A                      A                      A
 Frequencies --    687.7744               730.0415               741.8026
 Red. masses --      5.9998                 3.0502                 5.4779
 Frc consts  --      1.6722                 0.9578                 1.7760
 IR Inten    --      3.6201                17.2635                26.8388

                     22                     23                     24
                      A                      A                      A
 Frequencies --    760.4034               781.5366               791.0858
 Red. masses --      1.6285                 1.3601                 1.7589
 Frc consts  --      0.5548                 0.4895                 0.6486
 IR Inten    --     96.5407                53.8811                22.2471

                     25                     26                     27
                      A                      A                      A
 Frequencies --    816.2962               842.7535               881.6754
 Red. masses --      4.1073                 3.0239                 1.5125
 Frc consts  --      1.6125                 1.2654                 0.6927
 IR Inten    --      8.6847                79.3585                 2.0930

                     28                     29                     30
                      A                      A                      A
 Frequencies --    886.8166               900.2482               953.0288
 Red. masses --      4.1983                 1.4326                 1.4059
 Frc consts  --      1.9453                 0.6841                 0.7523
 IR Inten    --     12.9437                 6.2126                 4.3280

                     31                     32                     33
                      A                      A                      A
 Frequencies --    969.5278               976.2324              1009.1678
 Red. masses --      1.2663                 1.4002                 1.3960
 Frc consts  --      0.7013                 0.7862                 0.8376
 IR Inten    --      0.7064                 5.5179                 6.9545

                     34                     35                     36
                      A                      A                      A
 Frequencies --   1019.4059              1030.2239              1082.9530
 Red. masses --      6.1485                 2.8305                 2.0732
 Frc consts  --      3.7645                 1.7700                 1.4326
 IR Inten    --      1.1351                 5.5882                 3.4428

                     37                     38                     39
                      A                      A                      A
 Frequencies --   1105.3479              1155.8051              1172.2420
 Red. masses --      1.9082                 1.4372                 1.6117
 Frc consts  --      1.3737                 1.1312                 1.3048
 IR Inten    --      1.7470                 7.5162                 4.8338

                     40                     41                     42
                      A                      A                      A
 Frequencies --   1190.0146              1207.2304              1246.5819
 Red. masses --      1.2676                 1.2047                 2.2487
 Frc consts  --      1.0577                 1.0345                 2.0588
 IR Inten    --      0.9129                 0.3259                 3.9158

                     43                     44                     45
                      A                      A                      A
 Frequencies --   1269.2425              1299.3697              1328.4302
 Red. masses --      1.9997                 2.0263                 3.1025
 Frc consts  --      1.8981                 2.0156                 3.2259
 IR Inten    --     26.0070                 6.3265                 2.1684

                     46                     47                     48
                      A                      A                      A
 Frequencies --   1336.9865              1373.0748              1394.3228
 Red. masses --      2.2412                 3.9709                 7.5031
 Frc consts  --      2.3604                 4.4109                 8.5944
 IR Inten    --     11.9752                12.3880                10.4257

                     49                     50                     51
                      A                      A                      A
 Frequencies --   1442.1399              1444.9665              1494.0050
 Red. masses --      2.1965                 2.0850                 2.4672
 Frc consts  --      2.6915                 2.5649                 3.2445
 IR Inten    --      2.3523                 2.1410                15.3428

                     52                     53                     54
                      A                      A                      A
 Frequencies --   1506.6888              1541.5836              1586.2613
 Red. masses --      2.7811                 2.9468                 4.1473
 Frc consts  --      3.7198                 4.1261                 6.1485
 IR Inten    --     17.3726                15.2725                12.5489

                     55                     56                     57
                      A                      A                      A
 Frequencies --   1629.2244              1652.3296              1659.0533
 Red. masses --      6.4849                 5.7369                 5.3234
 Frc consts  --     10.1418                 9.2282                 8.6329
 IR Inten    --     35.8171                57.9820                 6.6130

                     58                     59                     60
                      A                      A                      A
 Frequencies --   1675.4247              1698.9449              3134.7126
 Red. masses --      6.0661                 1.1832                 1.0895
 Frc consts  --     10.0324                 2.0123                 6.3080
 IR Inten    --     11.8012                86.8372                32.4528

                     61                     62                     63
                      A                      A                      A
 Frequencies --   3171.3956              3182.2126              3191.6372
 Red. masses --      1.0882                 1.0867                 1.0899
 Frc consts  --      6.4485                 6.4839                 6.5414
 IR Inten    --     17.5369                 4.0787                17.9968

                     64                     65                     66
                      A                      A                      A
 Frequencies --   3200.4413              3210.8154              3229.5410
 Red. masses --      1.0912                 1.0962                 1.0942
 Frc consts  --      6.5853                 6.6583                 6.7242
 IR Inten    --     22.5785                31.4319                10.7754

                     67                     68                     69
                      A                      A                      A
 Frequencies --   3255.7857              3517.0998              3610.8071
 Red. masses --      1.0912                 1.0488                 1.0965
 Frc consts  --      6.8150                 7.6436                 8.4231
 IR Inten    --      4.3846                 3.8044                 5.8100

 - Thermochemistry -
 -------------------
 Temperature   298.150 Kelvin.  Pressure   1.00000 Atm.
 Atom     1 has atomic number  6 and mass  12.00000

 Molecular mass:   194.08440 amu.
 Principal axes and moments of inertia in atomic units:
                           1         2         3
     Eigenvalues --  1522.812263359.013054846.14043
           X            0.99998  -0.00679  -0.00045
           Y            0.00679   0.99997   0.00348
           Z            0.00043  -0.00348   0.99999
 This molecule is an asymmetric top.
 Rotational symmetry number  1.
 Warning -- assumption of classical behavior for rotation
           may cause significant error
 Rotational temperatures (Kelvin)      0.05688     0.02579     0.01787
 Rotational constants (GHZ):           1.18514     0.53728     0.37241
 Zero-point vibrational energy     526995.6 (Joules/Mol)
                                  125.95496 (Kcal/Mol)
 Warning -- explicit consideration of  17 degrees of freedom as
           vibrations may cause significant error
 Vibrational temperatures:    118.99   150.58   278.18   330.38   358.50
          (Kelvin)            416.65   501.88   549.61   591.76   632.30
                              698.95   720.91   746.50   769.10   802.45
                              821.40   838.13   935.21   989.55  1050.37
                             1067.29  1094.05  1124.46  1138.20  1174.47
                             1212.53  1268.53  1275.93  1295.26  1371.20
                             1394.93  1404.58  1451.97  1466.70  1482.26
                             1558.13  1590.35  1662.95  1686.59  1712.17
                             1736.94  1793.55  1826.16  1869.50  1911.31
                             1923.63  1975.55  2006.12  2074.92  2078.98
                             2149.54  2167.79  2217.99  2282.28  2344.09
                             2377.33  2387.01  2410.56  2444.40  4510.15
                             4562.93  4578.49  4592.05  4604.72  4619.65
                             4646.59  4684.35  5060.32  5195.15

 Zero-point correction=                           0.200722 (Hartree/Particle)
 Thermal correction to Energy=                    0.211200
 Thermal correction to Enthalpy=                  0.212144
 Thermal correction to Gibbs Free Energy=         0.164801
 Sum of electronic and zero-point Energies=           -610.782242
 Sum of electronic and thermal Energies=              -610.771764
 Sum of electronic and thermal Enthalpies=            -610.770819
 Sum of electronic and thermal Free Energies=         -610.818163

                     E (Thermal)             CV                S
                      KCal/Mol        Cal/Mol-Kelvin    Cal/Mol-Kelvin
 Total                  132.530             44.603             99.643
 Electronic               0.000              0.000              0.000
 Translational            0.889              2.981             41.695
 Rotational               0.889              2.981             31.583
 Vibrational            130.753             38.641             26.365
 Vibration     1          0.600              1.961              3.826
 Vibration     2          0.605              1.945              3.366
 Vibration     3          0.635              1.849              2.196
 Vibration     4          0.652              1.796              1.882
 Vibration     5          0.662              1.764              1.736
 Vibration     6          0.686              1.693              1.476
 Vibration     7          0.726              1.578              1.172
 Vibration     8          0.751              1.509              1.031
 Vibration     9          0.775              1.446              0.922
 Vibration    10          0.800              1.384              0.828
 Vibration    11          0.842              1.282              0.695
 Vibration    12          0.856              1.248              0.655
 Vibration    13          0.874              1.208              0.613
 Vibration    14          0.890              1.174              0.577
 Vibration    15          0.913              1.123              0.528
 Vibration    16          0.927              1.094              0.503
 Vibration    17          0.939              1.069              0.481

                           ! Non-Optimized Parameters !
 Normal termination of Gaussian 16 at Thu Dec 10 14:48:56 2020.

 ----------------------------------------------------------------------
 # B3LYP/6-311++G(d,p) empiricaldispersion=gd3bj scf=xqc pop=npa geom=c
 heck
 ----------------------------------------------------------------------

 --------------------------------------
 CID_19009677_JID_5049_Energie_neutraal
 --------------------------------------
 Structure from the checkpoint file:  "JID_5049.chk"
 Charge =  0 Multiplicity = 1

 SCF Done:  E(RB3LYP) =  -611.139030543     A.U. after   16 cycles
 Normal termination of Gaussian 16 at Thu Dec 10 14:51:46 2020.

 ----------------------------------------------------------------------
 # B3LYP/6-311++G(d,p) empiricaldispersion=gd3bj scf=xqc pop=npa geom=c
 heck
 ----------------------------------------------------------------------

 ------------------------------------
 CID_19009677_JID_5049_Energie_kation
 ------------------------------------
 Structure from the checkpoint file:  "JID_5049.chk"
 Charge =  1 Multiplicity = 2

 SCF Done:  E(UB3LYP) =  -610.863499926     A.U. after   23 cycles
 Normal termination of Gaussian 16 at Thu Dec 10 14:57:05 2020.
 Gaussian 16:  ES64L-G16RevA.03 25-Dec-2016

 ----------------------------------------------------------------------
 # B3LYP/6-311++G(d,p) empiricaldispersion=gd3bj scf=xqc pop=npa geom=c
 heck
 ----------------------------------------------------------------------

 -----------------------------------
 CID_19009677_JID_5049_Energie_anion
 -----------------------------------
 Structure from the checkpoint file:  "JID_5049.chk"
 Charge = -1 Multiplicity = 2

                         Standard orientation:
 ---------------------------------------------------------------------
 Center     Atomic      Atomic             Coordinates (Angstroms)
 Number     Number       Type             X           Y           Z
 ---------------------------------------------------------------------
      1          6           0        3.635147    0.280487   -0.036551
      2          6           0        2.902101    1.464260   -0.227080
      3          6           0        1.516952    1.459633   -0.221855
      4          6           0        0.788997    0.259260   -0.021505
      5          6           0        1.546214   -0.941954    0.098677
      6          6           0        2.954934   -0.912347    0.108991
      7          6           0        0.847510   -2.193080    0.147979
      8          7           0       -0.439214   -2.327137    0.049185
      9          6           0       -1.211687   -1.181162   -0.030767
     10          6           0       -2.600941   -1.386237   -0.139173
     11          6           0       -3.456771   -0.304049   -0.170625
     12          6           0       -2.947751    0.992478   -0.036952
     13          6           0       -1.579526    1.231901    0.078297
     14          6           0       -0.660534    0.138756    0.007654
     15          7           0       -1.140391    2.557919    0.247845
     16          1           0        4.720765    0.302729   -0.029592
     17          1           0        3.427034    2.400957   -0.393594
     18          1           0        0.990271    2.378999   -0.435976
     19          1           0        3.494480   -1.850278    0.215440
     20          1           0        1.435712   -3.108013    0.242323
     21          1           0       -2.955347   -2.409669   -0.184669
     22          1           0       -4.529342   -0.451130   -0.258345
     23          1           0       -3.630062    1.838667    0.003937
     24          1           0       -0.399086    2.653185    0.934150
     25          1           0       -1.905063    3.181413    0.484578
 ---------------------------------------------------------------------

 SCF Done:  E(UB3LYP) =  -611.146094398     A.U. after   30 cycles

 The electronic state is 2-A.
 Alpha  occ. eigenvalues --  -14.19614 -14.12915 -10.07804 -10.05424 -10.04164
 Alpha  occ. eigenvalues --  -10.03953 -10.03750 -10.03520 -10.02935 -10.02724
 Alpha  occ. eigenvalues --  -10.02712 -10.02404 -10.02343 -10.02205 -10.01782
 Alpha  occ. eigenvalues --   -0.79828  -0.77745  -0.71020  -0.69161  -0.63531
 Alpha  occ. eigenvalues --   -0.61586  -0.58764  -0.58147  -0.49550  -0.49128
 Alpha  occ. eigenvalues --   -0.47570  -0.44654  -0.40882  -0.39100  -0.38498
 Alpha  occ. eigenvalues --   -0.34806  -0.34220  -0.32911  -0.31665  -0.28961
 Alpha  occ. eigenvalues --   -0.28762  -0.28637  -0.26988  -0.26291  -0.23657
 Alpha  occ. eigenvalues --   -0.23519  -0.23015  -0.21336  -0.21162  -0.19022
 Alpha  occ. eigenvalues --   -0.17063  -0.14511  -0.12198  -0.09809  -0.08806
 Alpha  occ. eigenvalues --   -0.07317   0.04892
 Alpha virt. eigenvalues --    0.07859   0.08978   0.09501   0.10113   0.10544
 Alpha virt. eigenvalues --    0.11047   0.12075   0.12657   0.12813   0.13235
 Alpha virt. eigenvalues --    0.14484   0.15073   0.15713   0.16586   0.16749

  Beta  occ. eigenvalues --  -14.19612 -14.12559 -10.07782 -10.05436 -10.04082
  Beta  occ. eigenvalues --  -10.04004 -10.03671 -10.03625 -10.02722 -10.02596
  Beta  occ. eigenvalues --  -10.02575 -10.02308 -10.02140 -10.01907 -10.01668
  Beta  occ. eigenvalues --   -0.79743  -0.77186  -0.70697  -0.68932  -0.63276
  Beta  occ. eigenvalues --   -0.61115  -0.58463  -0.57973  -0.49223  -0.48784
  Beta  occ. eigenvalues --   -0.47187  -0.44516  -0.40642  -0.38960  -0.38394
  Beta  occ. eigenvalues --   -0.34662  -0.33999  -0.32739  -0.31521  -0.28809
  Beta  occ. eigenvalues --   -0.28636  -0.28521  -0.26362  -0.26087  -0.23443
  Beta  occ. eigenvalues --   -0.23174  -0.22615  -0.21079  -0.20524  -0.18585
  Beta  occ. eigenvalues --   -0.16398  -0.13651  -0.11008  -0.09384  -0.07781
  Beta  occ. eigenvalues --   -0.06421
  Beta virt. eigenvalues --    0.07820   0.08933   0.09450   0.10241   0.10292
  Beta virt. eigenvalues --    0.10549   0.11018   0.12088   0.12674   0.13148
  Beta virt. eigenvalues --    0.13743   0.14479   0.15065   0.16030   0.16651

 Mulliken charges and spin densities:
               1          2
     1  C   -0.342645  -0.079968
     2  C   -0.254529   0.269543
     3  C   -0.388955   0.020591
     4  C    1.856160   0.021160
     5  C    0.201761  -0.001179
     6  C   -0.957831   0.213691
     7  C   -0.139333   0.213953
     8  N    0.020731   0.153018
     9  C   -1.336636  -0.048305
    10  C   -0.656052   0.117945
    11  C   -0.274507  -0.062171
    12  C   -0.450350   0.176279
    13  C   -0.785876   0.027004
    14  C    1.493635  -0.026496
    15  N   -0.255566  -0.008648
    16  H    0.103558   0.005308
    17  H    0.104902  -0.017304
    18  H    0.160946  -0.012122
    19  H    0.087030  -0.012040
    20  H    0.116351  -0.022896
    21  H    0.129263  -0.004957
    22  H    0.112515   0.002706
    23  H    0.061563   0.005234
    24  H    0.193904   0.033299
    25  H    0.199961   0.036356
 Sum of Mulliken charges =  -1.00000   1.00000

 Dipole moment (field-independent basis, Debye):
    X=             -0.4897    Y=              3.4038    Z=              0.8244  Tot=              3.5363
 Quadrupole moment (field-independent basis, Debye-Ang):
   XX=           -113.7750   YY=           -106.7973   ZZ=            -99.1845
   XY=             -5.6372   XZ=             -0.1827   YZ=              2.7858

 Summary of Natural Population Analysis:

                                       Natural Population
                Natural  -----------------------------------------------
    Atom  No    Charge         Core      Valence    Rydberg      Total
 -----------------------------------------------------------------------
      C    1   -0.13884      0.99957     2.12911    0.01016     3.13884
      C    2   -0.06018      0.99961     2.04589    0.01468     3.06018
      C    3   -0.08280      0.99954     2.07793    0.00532     3.08280
      C    4   -0.02523      0.99956     2.00923    0.01645     3.02523
      C    5   -0.05082      0.99949     2.04308    0.00825     3.05082
      C    6   -0.03978      0.99954     2.03072    0.00952     3.03978
      C    7    0.10961      0.99959     1.87606    0.01475     2.89039
      N    8   -0.20019      0.99968     2.68728    0.01323     3.70019
      C    9    0.06695      0.99954     1.91685    0.01666     2.93305
      C   10   -0.09322      0.99953     2.08321    0.01049     3.09322
      C   11   -0.11526      0.99957     2.10600    0.00969     3.11526
      C   12   -0.11249      0.99953     2.10428    0.00868     3.11249
      C   13    0.06860      0.99954     1.91587    0.01599     2.93140
      C   14    0.01326      0.99944     1.97393    0.01337     2.98674
      N   15   -0.39204      0.99973     2.88110    0.01122     3.89204
      H   16    0.08984      0.00000     0.40908    0.00108     0.41016
      H   17    0.08478      0.00000     0.41366    0.00157     0.41522
      H   18    0.09759      0.00000     0.40021    0.00220     0.40241
      H   19    0.08718      0.00000     0.41094    0.00187     0.41282
      H   20    0.07014      0.00000     0.42813    0.00174     0.42986
      H   21    0.09756      0.00000     0.40052    0.00192     0.40244
      H   22    0.09030      0.00000     0.40860    0.00110     0.40970
      H   23    0.08525      0.00000     0.41307    0.00168     0.41475
      H   24    0.18416      0.00000     0.31391    0.00193     0.31584
      H   25    0.17422      0.00000     0.32382    0.00195     0.32578
 =======================================================================
   * Total *    0.00858     14.99347    35.80247    0.19549    50.99142

 Normal termination of Gaussian 16 at Thu Dec 10 15:06:50 2020.
