 Gaussian 16, Revision A.03,

 -----------------------------------------------------------
 # opt freq B3LYP/6-31G(d) empiricaldispersion=gd3bj scf=xqc
 -----------------------------------------------------------

 --------------------------------
 CID_138995420_JID_10846_neutraal
 --------------------------------
 Symbolic Z-matrix:
 Charge =  0 Multiplicity = 1

 SCF Done:  E(RB3LYP) =  -1653.81026962     A.U. after   15 cycles
 SCF Done:  E(RB3LYP) =  -1653.82041832     A.U. after   13 cycles
 SCF Done:  E(RB3LYP) =  -1653.82240864     A.U. after   12 cycles
 SCF Done:  E(RB3LYP) =  -1653.82490214     A.U. after   13 cycles
 SCF Done:  E(RB3LYP) =  -1653.82503713     A.U. after   14 cycles
 SCF Done:  E(RB3LYP) =  -1653.82367565     A.U. after   13 cycles
 SCF Done:  E(RB3LYP) =  -1653.82534895     A.U. after   13 cycles
 SCF Done:  E(RB3LYP) =  -1653.82467480     A.U. after   13 cycles
 SCF Done:  E(RB3LYP) =  -1653.82693775     A.U. after   12 cycles
 SCF Done:  E(RB3LYP) =  -1653.82712629     A.U. after   12 cycles
 SCF Done:  E(RB3LYP) =  -1653.82749374     A.U. after    9 cycles
 SCF Done:  E(RB3LYP) =  -1653.82750355     A.U. after   10 cycles
 SCF Done:  E(RB3LYP) =  -1653.82751055     A.U. after    9 cycles
 SCF Done:  E(RB3LYP) =  -1653.82751280     A.U. after   10 cycles
 SCF Done:  E(RB3LYP) =  -1653.82751349     A.U. after    8 cycles
 SCF Done:  E(RB3LYP) =  -1653.82751357     A.U. after    7 cycles
 Optimization completed.
    -- Stationary point found.
 Normal termination of Gaussian 16 at Sun Dec 13 13:40:20 2020.

 --------------------------------------------------------------------
 #N Geom=AllCheck Guess=TCheck SCRF=Check GenChk RB3LYP/6-31G(d) Freq
 --------------------------------------------------------------------

 Structure from the checkpoint file:  "JID_10846.chk"
 --------------------------------
 CID_138995420_JID_10846_neutraal
 --------------------------------
 Charge =  0 Multiplicity = 1

 SCF Done:  E(RB3LYP) =  -1653.82751357     A.U. after    1 cycles

  Exact polarizability: 211.608  12.462 169.318  14.680 -20.402 157.356
 Approx polarizability: 299.753  17.399 271.693  28.845 -47.455 271.157

                      1                      2                      3
                      A                      A                      A
 Frequencies --     28.8318                49.3492                53.5546
 Red. masses --      8.1311                 6.8929                 4.3951
 Frc consts  --      0.0040                 0.0099                 0.0074
 IR Inten    --      0.7963                 1.8191                 0.8707

                      4                      5                      6
                      A                      A                      A
 Frequencies --     72.4564                79.6397                84.0889
 Red. masses --      3.9438                 4.8320                 7.6339
 Frc consts  --      0.0122                 0.0181                 0.0318
 IR Inten    --      0.7915                 0.7565                 1.5233

                      7                      8                      9
                      A                      A                      A
 Frequencies --     99.3932               145.4733               171.8599
 Red. masses --      4.6015                 4.2037                 5.4556
 Frc consts  --      0.0268                 0.0524                 0.0949
 IR Inten    --      0.5342                 0.5230                 2.4356

                     10                     11                     12
                      A                      A                      A
 Frequencies --    184.5132               210.3347               226.7249
 Red. masses --      3.6968                 4.0516                 3.4212
 Frc consts  --      0.0742                 0.1056                 0.1036
 IR Inten    --      3.4323                11.4222                 3.6814

                     13                     14                     15
                      A                      A                      A
 Frequencies --    234.2786               257.1200               276.8347
 Red. masses --      2.0098                 3.3511                 3.1030
 Frc consts  --      0.0650                 0.1305                 0.1401
 IR Inten    --     43.5708                16.1302                 6.5566

                     16                     17                     18
                      A                      A                      A
 Frequencies --    328.7881               335.3346               344.4619
 Red. masses --      5.6755                 4.8030                 3.9850
 Frc consts  --      0.3615                 0.3182                 0.2786
 IR Inten    --      2.5686                 5.1554                 4.7028

                     19                     20                     21
                      A                      A                      A
 Frequencies --    361.9302               372.5051               394.9333
 Red. masses --      2.8761                 3.3690                 3.5186
 Frc consts  --      0.2220                 0.2754                 0.3233
 IR Inten    --      1.5104                 0.7264                 0.9749

                     22                     23                     24
                      A                      A                      A
 Frequencies --    427.1465               452.0650               467.3174
 Red. masses --      2.9130                 4.7161                 3.2444
 Frc consts  --      0.3131                 0.5679                 0.4175
 IR Inten    --     26.3158                14.7015                 1.1854

                     25                     26                     27
                      A                      A                      A
 Frequencies --    484.6960               501.6056               526.8840
 Red. masses --      5.0747                 3.2449                 3.3021
 Frc consts  --      0.7024                 0.4810                 0.5401
 IR Inten    --      8.0774                 2.2230                 1.7892

                     28                     29                     30
                      A                      A                      A
 Frequencies --    567.4807               596.9133               626.3310
 Red. masses --      5.9669                 5.5880                 3.9271
 Frc consts  --      1.1321                 1.1731                 0.9077
 IR Inten    --      1.1528                 1.1902                18.0032

                     31                     32                     33
                      A                      A                      A
 Frequencies --    646.2477               661.5941               674.6471
 Red. masses --      5.1604                 6.3177                 2.7855
 Frc consts  --      1.2698                 1.6293                 0.7470
 IR Inten    --     11.9445                37.8035                95.3580

                     34                     35                     36
                      A                      A                      A
 Frequencies --    729.6583               749.7599               755.7092
 Red. masses --      2.9819                 2.5834                 2.4034
 Frc consts  --      0.9354                 0.8556                 0.8087
 IR Inten    --      9.8323                14.6199                24.3505

                     37                     38                     39
                      A                      A                      A
 Frequencies --    803.5568               810.3591               817.0219
 Red. masses --      2.1766                 1.7448                 1.8540
 Frc consts  --      0.8281                 0.6751                 0.7292
 IR Inten    --     14.6109                 9.1974                 8.6824

                     40                     41                     42
                      A                      A                      A
 Frequencies --    832.5589               845.4055               875.7686
 Red. masses --      1.5763                 2.9709                 1.6920
 Frc consts  --      0.6437                 1.2510                 0.7646
 IR Inten    --      4.7477                 1.7568                13.0252

                     43                     44                     45
                      A                      A                      A
 Frequencies --    883.7220               893.3040               897.3773
 Red. masses --      2.2348                 3.0236                 3.2356
 Frc consts  --      1.0283                 1.4216                 1.5352
 IR Inten    --     59.8524                31.7023                 6.2849

                     46                     47                     48
                      A                      A                      A
 Frequencies --    913.1421               922.6695               951.5888
 Red. masses --      2.8099                 2.8222                 1.9740
 Frc consts  --      1.3805                 1.4156                 1.0532
 IR Inten    --      2.5872                 2.4586                22.0527

                     49                     50                     51
                      A                      A                      A
 Frequencies --    977.4828              1034.4857              1051.5673
 Red. masses --      3.4596                 2.1048                 2.0151
 Frc consts  --      1.9476                 1.3271                 1.3129
 IR Inten    --     10.1337                32.6400                 2.6579

                     52                     53                     54
                      A                      A                      A
 Frequencies --   1076.4985              1092.8673              1099.1107
 Red. masses --      1.4994                 1.9813                 1.8012
 Frc consts  --      1.0238                 1.3942                 1.2821
 IR Inten    --     22.9760                70.0295                13.4103

                     55                     56                     57
                      A                      A                      A
 Frequencies --   1102.5623              1107.5767              1120.5642
 Red. masses --      1.7131                 1.4915                 1.4721
 Frc consts  --      1.2269                 1.0780                 1.0891
 IR Inten    --     50.8206                23.4240                 6.4682

                     58                     59                     60
                      A                      A                      A
 Frequencies --   1122.4193              1125.7393              1145.5201
 Red. masses --      2.6058                 1.1236                 2.0612
 Frc consts  --      1.9342                 0.8389                 1.5936
 IR Inten    --    100.5582                 1.8590                21.5873

                     61                     62                     63
                      A                      A                      A
 Frequencies --   1161.1248              1169.1186              1219.7064
 Red. masses --      1.9593                 1.6624                 1.3581
 Frc consts  --      1.5563                 1.3388                 1.1904
 IR Inten    --     21.2828                16.0452                 0.9775

                     64                     65                     66
                      A                      A                      A
 Frequencies --   1228.7342              1235.8387              1270.0669
 Red. masses --      1.4478                 2.0614                 1.5637
 Frc consts  --      1.2879                 1.8550                 1.4861
 IR Inten    --     18.5870                14.3535               124.2969

                     67                     68                     69
                      A                      A                      A
 Frequencies --   1286.6165              1298.9567              1324.8032
 Red. masses --      2.2544                 1.4245                 2.0722
 Frc consts  --      2.1988                 1.4162                 2.1428
 IR Inten    --     38.6199                64.9069                41.7772

                     70                     71                     72
                      A                      A                      A
 Frequencies --   1335.1441              1353.5869              1364.8486
 Red. masses --      2.7969                 1.5772                 3.3536
 Frc consts  --      2.9375                 1.7025                 3.6807
 IR Inten    --    188.0191                14.8784                10.9359

                     73                     74                     75
                      A                      A                      A
 Frequencies --   1377.9172              1405.0245              1406.3876
 Red. masses --      1.3079                 1.4006                 1.4384
 Frc consts  --      1.4630                 1.6291                 1.6763
 IR Inten    --      0.6976                13.3054                 0.1192

                     76                     77                     78
                      A                      A                      A
 Frequencies --   1424.4704              1428.4076              1473.3347
 Red. masses --      1.3421                 1.7022                 2.4396
 Frc consts  --      1.6045                 2.0463                 3.1201
 IR Inten    --      8.2539                15.4712               100.7606

                     79                     80                     81
                      A                      A                      A
 Frequencies --   1492.6465              1508.9189              1510.9733
 Red. masses --      1.0986                 1.1467                 1.0806
 Frc consts  --      1.4421                 1.5383                 1.4535
 IR Inten    --      3.5397                 7.0540                 5.0087

                     82                     83                     84
                      A                      A                      A
 Frequencies --   1520.7766              1525.8446              1528.5786
 Red. masses --      1.1941                 1.8300                 1.4759
 Frc consts  --      1.6271                 2.5103                 2.0318
 IR Inten    --     25.5051                12.6517                21.7613

                     85                     86                     87
                      A                      A                      A
 Frequencies --   1540.8759              1571.5243              1621.0472
 Red. masses --      1.5554                 7.6360                 1.0972
 Frc consts  --      2.1758                11.1112                 1.6987
 IR Inten    --     70.7414                66.2545                26.7496

                     88                     89                     90
                      A                      A                      A
 Frequencies --   1725.2385              3031.9641              3035.2492
 Red. masses --     10.9259                 1.0739                 1.0728
 Frc consts  --     19.1604                 5.8166                 5.8232
 IR Inten    --    245.2119                 3.4908                27.5248

                     91                     92                     93
                      A                      A                      A
 Frequencies --   3039.0273              3068.3072              3073.4560
 Red. masses --      1.0724                 1.0665                 1.0841
 Frc consts  --      5.8352                 5.9156                 6.0338
 IR Inten    --     77.6756                44.8731                11.0291

                     94                     95                     96
                      A                      A                      A
 Frequencies --   3114.2645              3133.5068              3158.8410
 Red. masses --      1.0930                 1.0982                 1.0512
 Frc consts  --      6.2457                 6.3533                 6.1803
 IR Inten    --      9.6000                16.9299                10.3968

                     97                     98                     99
                      A                      A                      A
 Frequencies --   3160.6642              3179.8478              3186.3631
 Red. masses --      1.0588                 1.0921                 1.0899
 Frc consts  --      6.2317                 6.5059                 6.5200
 IR Inten    --     20.2773                 4.0264                 9.4365

                    100                    101                    102
                      A                      A                      A
 Frequencies --   3196.8887              3243.9178              3257.6923
 Red. masses --      1.0908                 1.1195                 1.1166
 Frc consts  --      6.5680                 6.9407                 6.9818
 IR Inten    --     36.4124                 6.2812                 3.7829

                    103                    104                    105
                      A                      A                      A
 Frequencies --   3298.9158              3480.4454              3596.8957
 Red. masses --      1.0941                 1.0476                 1.0980
 Frc consts  --      7.0156                 7.4770                 8.3694
 IR Inten    --      9.5226                37.5949                83.2244

 - Thermochemistry -
 -------------------
 Temperature   298.150 Kelvin.  Pressure   1.00000 Atm.
 Atom     1 has atomic number  6 and mass  12.00000

 Molecular mass:   315.07114 amu.
 Principal axes and moments of inertia in atomic units:
                           1         2         3
     Eigenvalues --  4136.285287517.377338976.47862
           X            0.99936   0.03558  -0.00298
           Y           -0.03566   0.99889  -0.03086
           Z            0.00188   0.03095   0.99952
 This molecule is an asymmetric top.
 Rotational symmetry number  1.
 Warning -- assumption of classical behavior for rotation
           may cause significant error
 Rotational temperatures (Kelvin)      0.02094     0.01152     0.00965
 Rotational constants (GHZ):           0.43632     0.24008     0.20105
 Zero-point vibrational energy     779068.5 (Joules/Mol)
                                  186.20185 (Kcal/Mol)
 Warning -- explicit consideration of  29 degrees of freedom as
           vibrations may cause significant error
 Vibrational temperatures:     41.48    71.00    77.05   104.25   114.58
          (Kelvin)            120.99   143.00   209.30   247.27   265.47
                              302.62   326.21   337.07   369.94   398.30
                              473.05   482.47   495.60   520.74   535.95
                              568.22   614.57   650.42   672.37   697.37
                              721.70   758.07   816.48   858.83   901.15
                              929.81   951.89   970.67  1049.82  1078.74
                             1087.30  1156.14  1165.93  1175.51  1197.87
                             1216.35  1260.04  1271.48  1285.27  1291.13
                             1313.81  1327.52  1369.12  1406.38  1488.39
                             1512.97  1548.84  1572.39  1581.38  1586.34
                             1593.56  1612.24  1614.91  1619.69  1648.15
                             1670.60  1682.10  1754.89  1767.87  1778.10
                             1827.34  1851.15  1868.91  1906.10  1920.97
                             1947.51  1963.71  1982.52  2021.52  2023.48
                             2049.50  2055.16  2119.80  2147.59  2171.00
                             2173.95  2188.06  2195.35  2199.28  2216.98
                             2261.07  2332.33  2482.23  4362.32  4367.05
                             4372.48  4414.61  4422.02  4480.73  4508.42
                             4544.87  4547.49  4575.09  4584.47  4599.61
                             4667.27  4687.09  4746.40  5007.58  5175.13

 Zero-point correction=                           0.296732 (Hartree/Particle)
 Thermal correction to Energy=                    0.315558
 Thermal correction to Enthalpy=                  0.316502
 Thermal correction to Gibbs Free Energy=         0.249048
 Sum of electronic and zero-point Energies=          -1653.530782
 Sum of electronic and thermal Energies=             -1653.511955
 Sum of electronic and thermal Enthalpies=           -1653.511011
 Sum of electronic and thermal Free Energies=        -1653.578466

                     E (Thermal)             CV                S
                      KCal/Mol        Cal/Mol-Kelvin    Cal/Mol-Kelvin
 Total                  198.016             72.794            141.970
 Electronic               0.000              0.000              0.000
 Translational            0.889              2.981             43.139
 Rotational               0.889              2.981             33.989
 Vibrational            196.238             66.832             64.842
 Vibration     1          0.593              1.984              5.908
 Vibration     2          0.595              1.978              4.843
 Vibration     3          0.596              1.976              4.682
 Vibration     4          0.599              1.967              4.085
 Vibration     5          0.600              1.963              3.900
 Vibration     6          0.601              1.960              3.793
 Vibration     7          0.604              1.950              3.466
 Vibration     8          0.617              1.908              2.731
 Vibration     9          0.626              1.877              2.415
 Vibration    10          0.631              1.861              2.282
 Vibration    11          0.642              1.825              2.041
 Vibration    12          0.650              1.800              1.905
 Vibration    13          0.654              1.788              1.846
 Vibration    14          0.667              1.751              1.681
 Vibration    15          0.678              1.716              1.553
 Vibration    16          0.712              1.618              1.266
 Vibration    17          0.716              1.605              1.234
 Vibration    18          0.723              1.587              1.191
 Vibration    19          0.736              1.551              1.114
 Vibration    20          0.744              1.529              1.069
 Vibration    21          0.762              1.481              0.981
 Vibration    22          0.789              1.411              0.868
 Vibration    23          0.811              1.356              0.790
 Vibration    24          0.825              1.323              0.745
 Vibration    25          0.841              1.284              0.698
 Vibration    26          0.857              1.246              0.654
 Vibration    27          0.882              1.190              0.594
 Vibration    28          0.923              1.102              0.509
 Vibration    29          0.955              1.038              0.455

 Optimization completed.
    -- Stationary point found.
 Normal termination of Gaussian 16 at Sun Dec 13 14:02:09 2020.

 ----------------------------------------------------------------------
 # B3LYP/6-311++G(d,p) empiricaldispersion=gd3bj scf=xqc pop=npa geom=c
 heck
 ----------------------------------------------------------------------

 ----------------------------------------
 CID_138995420_JID_10846_Energie_neutraal
 ----------------------------------------
 Structure from the checkpoint file:  "JID_10846.chk"
 Charge =  0 Multiplicity = 1

 SCF Done:  E(RB3LYP) =  -1654.12366291     A.U. after   17 cycles
 Normal termination of Gaussian 16 at Sun Dec 13 14:12:56 2020.

 ----------------------------------------------------------------------
 # B3LYP/6-311++G(d,p) empiricaldispersion=gd3bj scf=xqc pop=npa geom=c
 heck
 ----------------------------------------------------------------------

 --------------------------------------
 CID_138995420_JID_10846_Energie_kation
 --------------------------------------
 Structure from the checkpoint file:  "JID_10846.chk"
 Charge =  1 Multiplicity = 2

 SCF Done:  E(UB3LYP) =  -1653.81650523     A.U. after   28 cycles
 Normal termination of Gaussian 16 at Sun Dec 13 14:38:06 2020.
 Gaussian 16:  ES64L-G16RevA.03 25-Dec-2016

 ----------------------------------------------------------------------
 # B3LYP/6-311++G(d,p) empiricaldispersion=gd3bj scf=xqc pop=npa geom=c
 heck
 ----------------------------------------------------------------------

 -------------------------------------
 CID_138995420_JID_10846_Energie_anion
 -------------------------------------
 Structure from the checkpoint file:  "JID_10846.chk"
 Charge = -1 Multiplicity = 2

                         Standard orientation:
 ---------------------------------------------------------------------
 Center     Atomic      Atomic             Coordinates (Angstroms)
 Number     Number       Type             X           Y           Z
 ---------------------------------------------------------------------
      1          6           0        3.611247    0.890340    0.363753
      2          6           0        3.499004   -0.608250    0.679938
      3          6           0        2.048054   -1.109828    0.757613
      4          6           0        1.122118   -0.149079    1.522163
      5          7           0        1.297753    1.237995    1.108941
      6          6           0        2.676782    1.712209    1.257072
      7          6           0        0.467622    1.964019    0.290062
      8          8           0        0.825950    3.028266   -0.215014
      9          6           0       -0.905705    1.456690   -0.038038
     10          6           0       -1.559660    1.955886   -1.136735
     11         16           0       -3.102933    1.198306   -1.309087
     12          6           0       -2.766421    0.248350    0.142681
     13          7           0       -1.606979    0.506310    0.675920
     14          6           0       -3.698888   -0.787157    0.613297
     15          6           0       -3.155230   -2.203563    0.786385
     16          6           0       -3.492696   -1.381355    1.990714
     17         16           0        1.360570   -1.604841   -0.861691
     18          8           0        2.325500   -2.511114   -1.495075
     19          8           0       -0.028177   -2.022199   -0.620141
     20          7           0        1.368570   -0.197688   -1.799440
     21          1           0        4.647227    1.217377    0.511280
     22          1           0        3.345106    1.079741   -0.679323
     23          1           0        4.062036   -1.213541   -0.036503
     24          1           0        3.940859   -0.798047    1.667878
     25          1           0        2.021492   -2.080844    1.267126
     26          1           0        0.080482   -0.443375    1.430811
     27          1           0        1.397722   -0.218708    2.583424
     28          1           0        2.956682    1.602555    2.314109
     29          1           0        2.698417    2.767848    0.993197
     30          1           0       -1.212132    2.739739   -1.792900
     31          1           0       -4.717674   -0.691360    0.250055
     32          1           0       -3.818152   -3.018010    0.508919
     33          1           0       -2.110503   -2.346120    0.529472
     34          1           0       -2.675025   -0.966996    2.571164
     35          1           0       -4.385409   -1.626301    2.558499
     36          1           0        1.730449   -0.428707   -2.722403
     37          1           0        0.437284    0.213789   -1.851872
 ---------------------------------------------------------------------

 SCF Done:  E(UB3LYP) =  -1654.12706198     A.U. after   32 cycles

 The electronic state is 2-A.
 Alpha  occ. eigenvalues --  -88.96273 -88.74985 -19.02092 -19.01796 -18.95151
 Alpha  occ. eigenvalues --  -14.24180 -14.22158 -14.18992 -10.13836 -10.11893
 Alpha  occ. eigenvalues --  -10.11037 -10.10428 -10.09064 -10.08926 -10.08369
 Alpha  occ. eigenvalues --  -10.07805 -10.07359 -10.07275 -10.06744 -10.05648
 Alpha  occ. eigenvalues --   -8.02512  -7.83651  -5.98817  -5.98761  -5.98543
 Alpha  occ. eigenvalues --   -5.79922  -5.79582  -5.79290  -1.02033  -0.91163
 Alpha  occ. eigenvalues --   -0.91007  -0.84144  -0.82611  -0.81037  -0.76261
 Alpha  occ. eigenvalues --   -0.71833  -0.67461  -0.66973  -0.63331  -0.58401
 Alpha  occ. eigenvalues --   -0.57870  -0.53484  -0.52277  -0.50503  -0.49692
 Alpha  occ. eigenvalues --   -0.46830  -0.44005  -0.43492  -0.42491  -0.41633
 Alpha  occ. eigenvalues --   -0.40566  -0.39499  -0.38199  -0.37027  -0.36114
 Alpha  occ. eigenvalues --   -0.35830  -0.35157  -0.34170  -0.32363  -0.30622
 Alpha  occ. eigenvalues --   -0.30523  -0.30095  -0.29312  -0.28228  -0.27916
 Alpha  occ. eigenvalues --   -0.27337  -0.26910  -0.26392  -0.25352  -0.24769
 Alpha  occ. eigenvalues --   -0.23442  -0.23295  -0.22756  -0.21572  -0.20996
 Alpha  occ. eigenvalues --   -0.20654  -0.20514  -0.19278  -0.16472  -0.15668
 Alpha  occ. eigenvalues --   -0.13655  -0.12658  -0.11497   0.04033
 Alpha virt. eigenvalues --    0.06201   0.06940   0.07818   0.08144   0.09107
 Alpha virt. eigenvalues --    0.09343   0.09602   0.10510   0.10589   0.10740
 Alpha virt. eigenvalues --    0.11596   0.11921   0.12282   0.13111   0.13649

  Beta  occ. eigenvalues --  -88.96271 -88.74931 -19.02089 -19.01793 -18.95031
  Beta  occ. eigenvalues --  -14.24176 -14.22134 -14.19056 -10.13684 -10.11886
  Beta  occ. eigenvalues --  -10.10868 -10.10422 -10.09061 -10.08939 -10.08350
  Beta  occ. eigenvalues --  -10.07796 -10.07339 -10.07221 -10.06730 -10.05224
  Beta  occ. eigenvalues --   -8.02510  -7.83602  -5.98814  -5.98759  -5.98540
  Beta  occ. eigenvalues --   -5.79900  -5.79562  -5.79104  -1.02025  -0.91147
  Beta  occ. eigenvalues --   -0.90785  -0.84030  -0.82514  -0.81020  -0.76219
  Beta  occ. eigenvalues --   -0.71789  -0.67365  -0.66663  -0.62953  -0.58324
  Beta  occ. eigenvalues --   -0.57793  -0.53381  -0.52190  -0.50455  -0.49524
  Beta  occ. eigenvalues --   -0.46427  -0.43874  -0.43457  -0.42358  -0.41607
  Beta  occ. eigenvalues --   -0.40524  -0.39417  -0.38080  -0.36939  -0.36058
  Beta  occ. eigenvalues --   -0.35772  -0.35076  -0.34114  -0.32192  -0.30590
  Beta  occ. eigenvalues --   -0.30361  -0.29722  -0.29129  -0.28045  -0.27745
  Beta  occ. eigenvalues --   -0.27171  -0.26813  -0.26339  -0.25170  -0.24543
  Beta  occ. eigenvalues --   -0.23373  -0.23001  -0.22741  -0.21544  -0.20898
  Beta  occ. eigenvalues --   -0.20501  -0.20309  -0.19258  -0.15908  -0.15474
  Beta  occ. eigenvalues --   -0.13418  -0.12346  -0.10146
  Beta virt. eigenvalues --    0.06594   0.06914   0.07859   0.08453   0.09104
  Beta virt. eigenvalues --    0.09176   0.09439   0.09626   0.10505   0.10933
  Beta virt. eigenvalues --    0.11316   0.11629   0.11907   0.12260   0.13168

 Mulliken charges and spin densities:
               1          2
     1  C   -0.274342   0.138063
     2  C    0.240403  -0.847301
     3  C   -0.215677   0.143836
     4  C   -0.582297  -0.016895
     5  N    0.189476  -0.002621
     6  C   -0.012103  -0.316666
     7  C   -0.098318   0.051716
     8  O   -0.372364   0.049049
     9  C   -0.982663  -0.012990
    10  C    0.487049   0.310302
    11  S   -0.454826   0.112584
    12  C   -0.137179   0.077545
    13  N    0.246081  -0.050718
    14  C    0.253230   0.022296
    15  C   -0.494700  -0.024757
    16  C   -0.287518  -0.085187
    17  S    0.419679  -0.266369
    18  O   -0.137274  -0.000094
    19  O   -0.072010   0.004608
    20  N   -0.580576   0.009191
    21  H   -0.193779   0.370739
    22  H    0.171023   0.017932
    23  H    0.126514   0.059562
    24  H   -0.236634   0.399801
    25  H    0.059324   0.235315
    26  H    0.258556  -0.091214
    27  H   -0.124375   0.299769
    28  H   -0.084878   0.221593
    29  H    0.218917  -0.004820
    30  H    0.239256   0.003403
    31  H    0.184359   0.054589
    32  H    0.102552   0.029400
    33  H    0.210642   0.006802
    34  H    0.140361   0.029771
    35  H    0.126300   0.019068
    36  H    0.274603   0.066043
    37  H    0.393187  -0.013347
 Sum of Mulliken charges =  -1.00000   1.00000

 Dipole moment (field-independent basis, Debye):
    X=             -2.0076    Y=             -2.0693    Z=             -0.7274  Tot=              2.9735
 Quadrupole moment (field-independent basis, Debye-Ang):
   XX=           -180.3757   YY=           -180.0201   ZZ=           -152.9021
   XY=              5.9095   XZ=             -7.6653   YZ=             -2.6710

 Summary of Natural Population Analysis:

                                       Natural Population
                Natural  -----------------------------------------------
    Atom  No    Charge         Core      Valence    Rydberg      Total
 -----------------------------------------------------------------------
      C    1   -0.19976      0.99962     2.19186    0.00827     3.19976
      C    2   -0.20134      0.99960     2.19124    0.01051     3.20134
      C    3   -0.20087      0.99953     2.18514    0.01621     3.20087
      C    4   -0.10304      0.99957     2.09029    0.01319     3.10304
      N    5   -0.25536      0.99965     2.74488    0.01083     3.75536
      C    6   -0.08804      0.99961     2.07714    0.01129     3.08804
      C    7    0.35583      0.99958     1.62253    0.02206     2.64417
      O    8   -0.32513      0.99988     3.32036    0.00488     4.32513
      C    9    0.00614      0.99942     1.97895    0.01549     2.99386
      C   10   -0.11002      0.99949     2.10043    0.01010     3.11002
      S   11    0.19162      4.99943     2.78833    0.02061     7.80838
      C   12    0.06955      0.99957     1.91283    0.01804     2.93045
      N   13   -0.27100      0.99962     2.75993    0.01144     3.77100
      C   14   -0.13903      0.99954     2.12866    0.01082     3.13903
      C   15   -0.18911      0.99963     2.18213    0.00736     3.18911
      C   16   -0.19207      0.99963     2.18528    0.00716     3.19207
      S   17    1.08941      4.99928     1.81221    0.09910     6.91059
      O   18   -0.47392      0.99991     3.46854    0.00548     4.47392
      O   19   -0.46477      0.99990     3.45890    0.00597     4.46477
      N   20   -0.52171      0.99978     3.01116    0.01077     4.02171
      H   21    0.09820      0.00000     0.40080    0.00100     0.40180
      H   22    0.10870      0.00000     0.38994    0.00136     0.39130
      H   23    0.11040      0.00000     0.38843    0.00116     0.38960
      H   24    0.10285      0.00000     0.39517    0.00198     0.39715
      H   25    0.11855      0.00000     0.38013    0.00133     0.38145
      H   26    0.13609      0.00000     0.36208    0.00184     0.36391
      H   27    0.09647      0.00000     0.40226    0.00127     0.40353
      H   28    0.08781      0.00000     0.41096    0.00123     0.41219
      H   29    0.11754      0.00000     0.38133    0.00113     0.38246
      H   30    0.11436      0.00000     0.38428    0.00136     0.38564
      H   31    0.10662      0.00000     0.39242    0.00096     0.39338
      H   32    0.09508      0.00000     0.40374    0.00118     0.40492
      H   33    0.12044      0.00000     0.37778    0.00179     0.37956
      H   34    0.11100      0.00000     0.38783    0.00118     0.38900
      H   35    0.09629      0.00000     0.40276    0.00094     0.40371
      H   36    0.19415      0.00000     0.30388    0.00197     0.30585
      H   37    0.20807      0.00000     0.28928    0.00265     0.29193
 =======================================================================
   * Total *    0.00000     27.99225    54.66385    0.34391    83.00000

 Normal termination of Gaussian 16 at Sun Dec 13 15:06:42 2020.
