 Gaussian 16, Revision A.03,

 -----------------------------------------------------------
 # opt freq B3LYP/6-31G(d) empiricaldispersion=gd3bj scf=xqc
 -----------------------------------------------------------

 ------------------------------
 CID_81121272_JID_5228_neutraal
 ------------------------------
 Symbolic Z-matrix:
 Charge =  0 Multiplicity = 1

 SCF Done:  E(RB3LYP) =  -1068.72845941     A.U. after   15 cycles
 SCF Done:  E(RB3LYP) =  -1068.73282834     A.U. after   13 cycles
 SCF Done:  E(RB3LYP) =  -1068.73331044     A.U. after   12 cycles
 SCF Done:  E(RB3LYP) =  -1068.73383229     A.U. after   12 cycles
 SCF Done:  E(RB3LYP) =  -1068.73402713     A.U. after   12 cycles
 SCF Done:  E(RB3LYP) =  -1068.73414615     A.U. after   12 cycles
 SCF Done:  E(RB3LYP) =  -1068.73421580     A.U. after   11 cycles
 SCF Done:  E(RB3LYP) =  -1068.73424488     A.U. after   11 cycles
 SCF Done:  E(RB3LYP) =  -1068.73425487     A.U. after   10 cycles
 SCF Done:  E(RB3LYP) =  -1068.73425576     A.U. after    8 cycles
 SCF Done:  E(RB3LYP) =  -1068.73425612     A.U. after    8 cycles
 SCF Done:  E(RB3LYP) =  -1068.73425638     A.U. after    8 cycles
 SCF Done:  E(RB3LYP) =  -1068.73425650     A.U. after    8 cycles
 SCF Done:  E(RB3LYP) =  -1068.73425656     A.U. after    7 cycles
 Optimization completed.
    -- Stationary point found.
 Normal termination of Gaussian 16 at Thu Dec 10 14:53:49 2020.

 --------------------------------------------------------------------
 #N Geom=AllCheck Guess=TCheck SCRF=Check GenChk RB3LYP/6-31G(d) Freq
 --------------------------------------------------------------------

 Structure from the checkpoint file:  "JID_5228.chk"
 ------------------------------
 CID_81121272_JID_5228_neutraal
 ------------------------------
 Charge =  0 Multiplicity = 1

 SCF Done:  E(RB3LYP) =  -1068.73425656     A.U. after    1 cycles

  Exact polarizability: 157.959  -4.158 145.927  11.843  10.663 102.911
 Approx polarizability: 226.160 -13.649 244.021  30.800  25.621 158.802

                      1                      2                      3
                      A                      A                      A
 Frequencies --     20.8381                36.7772                54.6139
 Red. masses --      3.8824                 4.9494                 3.2862
 Frc consts  --      0.0010                 0.0039                 0.0058
 IR Inten    --      0.4234                 0.3517                 0.5908

                      4                      5                      6
                      A                      A                      A
 Frequencies --     71.6458                80.3782                96.4203
 Red. masses --      2.9743                 4.3969                 6.2368
 Frc consts  --      0.0090                 0.0167                 0.0342
 IR Inten    --      1.2624                 1.6298                 6.2810

                      7                      8                      9
                      A                      A                      A
 Frequencies --    113.7420               148.1271               182.2465
 Red. masses --      3.6280                 4.4623                 1.8286
 Frc consts  --      0.0277                 0.0577                 0.0358
 IR Inten    --      1.1027                 0.6129                 1.1903

                     10                     11                     12
                      A                      A                      A
 Frequencies --    215.1283               236.0461               256.8206
 Red. masses --      1.8266                 2.0167                 3.7982
 Frc consts  --      0.0498                 0.0662                 0.1476
 IR Inten    --      1.4131                 1.2810                 7.9670

                     13                     14                     15
                      A                      A                      A
 Frequencies --    259.9348               285.2582               294.9115
 Red. masses --      2.6969                 1.8255                 3.2963
 Frc consts  --      0.1074                 0.0875                 0.1689
 IR Inten    --      0.7735                11.0498                 0.7088

                     16                     17                     18
                      A                      A                      A
 Frequencies --    346.8787               370.4445               378.8287
 Red. masses --      1.4422                 5.2072                 1.8282
 Frc consts  --      0.1022                 0.4210                 0.1546
 IR Inten    --     51.6517                 1.9888                91.2025

                     19                     20                     21
                      A                      A                      A
 Frequencies --    432.0116               446.5927               492.3157
 Red. masses --      4.8342                 5.6644                 5.4133
 Frc consts  --      0.5316                 0.6656                 0.7730
 IR Inten    --      0.9730                 0.3962                 1.4364

                     22                     23                     24
                      A                      A                      A
 Frequencies --    526.5044               590.9568               601.1358
 Red. masses --      5.7708                 5.8150                 3.5651
 Frc consts  --      0.9425                 1.1965                 0.7590
 IR Inten    --      1.7474                 7.6770                50.4743

                     25                     26                     27
                      A                      A                      A
 Frequencies --    626.9460               678.7222               712.0766
 Red. masses --      2.4656                 2.5796                 2.0317
 Frc consts  --      0.5710                 0.7001                 0.6070
 IR Inten    --      7.4424                13.2759                25.0312

                     28                     29                     30
                      A                      A                      A
 Frequencies --    748.5676               754.1586               786.9384
 Red. masses --      1.7831                 3.6014                 2.0987
 Frc consts  --      0.5887                 1.2068                 0.7657
 IR Inten    --     32.1280                28.2523                13.8548

                     31                     32                     33
                      A                      A                      A
 Frequencies --    816.1125               842.6739               854.9233
 Red. masses --      1.6495                 1.5567                 1.8757
 Frc consts  --      0.6473                 0.6513                 0.8077
 IR Inten    --     80.2713                17.9019                11.4840

                     34                     35                     36
                      A                      A                      A
 Frequencies --    879.9067               944.3942               958.0930
 Red. masses --      3.9785                 2.0658                 1.7942
 Frc consts  --      1.8148                 1.0855                 0.9704
 IR Inten    --      9.9258                 4.9225                10.3306

                     37                     38                     39
                      A                      A                      A
 Frequencies --    971.8702              1040.4442              1059.6984
 Red. masses --      3.1514                 2.4041                 3.4291
 Frc consts  --      1.7538                 1.5334                 2.2688
 IR Inten    --     14.6627                22.4076                33.8895

                     40                     41                     42
                      A                      A                      A
 Frequencies --   1081.1033              1092.8199              1117.5166
 Red. masses --      2.1901                 2.6752                 1.7425
 Frc consts  --      1.5082                 1.8824                 1.2821
 IR Inten    --     39.6695                12.3061                64.4327

                     43                     44                     45
                      A                      A                      A
 Frequencies --   1142.0617              1173.0644              1186.8254
 Red. masses --      2.1545                 3.1279                 1.2649
 Frc consts  --      1.6557                 2.5360                 1.0497
 IR Inten    --      4.4543                15.7958                 0.7177

                     46                     47                     48
                      A                      A                      A
 Frequencies --   1207.6770              1233.4608              1247.3227
 Red. masses --      1.5526                 1.6115                 1.4626
 Frc consts  --      1.3342                 1.4445                 1.3407
 IR Inten    --     47.9491                48.9164                44.7864

                     49                     50                     51
                      A                      A                      A
 Frequencies --   1254.4022              1294.2851              1323.0430
 Red. masses --      1.7137                 1.2922                 1.3371
 Frc consts  --      1.5888                 1.2753                 1.3790
 IR Inten    --     86.0101                 7.9161                 8.1663

                     52                     53                     54
                      A                      A                      A
 Frequencies --   1369.7031              1376.9877              1401.6484
 Red. masses --      2.6756                 1.5758                 1.3068
 Frc consts  --      2.9575                 1.7604                 1.5126
 IR Inten    --    187.2145                66.6034                27.5818

                     55                     56                     57
                      A                      A                      A
 Frequencies --   1408.3879              1430.8555              1436.6200
 Red. masses --      1.5488                 3.4558                 1.3525
 Frc consts  --      1.8100                 4.1686                 1.6447
 IR Inten    --     13.5755               172.2052                 7.9146

                     58                     59                     60
                      A                      A                      A
 Frequencies --   1445.2549              1466.8137              1489.5761
 Red. masses --      1.2424                 2.9903                 1.4279
 Frc consts  --      1.5290                 3.7907                 1.8667
 IR Inten    --      5.4373               152.6129                21.5438

                     61                     62                     63
                      A                      A                      A
 Frequencies --   1518.2682              1520.6427              1521.2333
 Red. masses --      1.5001                 1.0537                 1.1413
 Frc consts  --      2.0373                 1.4355                 1.5561
 IR Inten    --     37.7565                 7.1190                 3.5527

                     64                     65                     66
                      A                      A                      A
 Frequencies --   1525.2096              1534.6585              1535.3943
 Red. masses --      1.0748                 1.0680                 1.0549
 Frc consts  --      1.4732                 1.4819                 1.4652
 IR Inten    --      5.9173                13.8103                23.9673

                     67                     68                     69
                      A                      A                      A
 Frequencies --   1540.2708              1622.7766              1752.0500
 Red. masses --      1.0617                 5.7683                 8.5763
 Frc consts  --      1.4840                 8.9498                15.5111
 IR Inten    --      6.5684               126.1579               310.2004

                     70                     71                     72
                      A                      A                      A
 Frequencies --   3021.5037              3038.4535              3043.0194
 Red. masses --      1.0355                 1.0677                 1.0584
 Frc consts  --      5.5698                 5.8078                 5.7745
 IR Inten    --     47.3671                19.6296                 7.4499

                     73                     74                     75
                      A                      A                      A
 Frequencies --   3050.2224              3079.2238              3086.4641
 Red. masses --      1.0458                 1.1064                 1.0930
 Frc consts  --      5.7328                 6.1808                 6.1347
 IR Inten    --     56.3169                46.5057                 4.4792

                     76                     77                     78
                      A                      A                      A
 Frequencies --   3100.0303              3113.3621              3122.0401
 Red. masses --      1.0865                 1.1010                 1.0995
 Frc consts  --      6.1520                 6.2878                 6.3143
 IR Inten    --     21.7266                52.8357                48.6602

                     79                     80                     81
                      A                      A                      A
 Frequencies --   3124.4492              3161.8720              3255.8589
 Red. masses --      1.1002                 1.0992                 1.0920
 Frc consts  --      6.3278                 6.4744                 6.8203
 IR Inten    --     10.2390                27.3004                 2.8052

                     82                     83                     84
                      A                      A                      A
 Frequencies --   3282.6412              3538.8907              3749.1841
 Red. masses --      1.0937                 1.0741                 1.0661
 Frc consts  --      6.9438                 7.9257                 8.8290
 IR Inten    --      1.8330                56.9918                14.7572

 - Thermochemistry -
 -------------------
 Temperature   298.150 Kelvin.  Pressure   1.00000 Atm.
 Atom     1 has atomic number  6 and mass  12.00000

 Molecular mass:   229.07727 amu.
 Principal axes and moments of inertia in atomic units:
                           1         2         3
     Eigenvalues --  2508.271875509.802446644.34981
           X            0.99986  -0.00062  -0.01669
           Y            0.00069   0.99999   0.00427
           Z            0.01669  -0.00428   0.99985
 This molecule is an asymmetric top.
 Rotational symmetry number  1.
 Warning -- assumption of classical behavior for rotation
           may cause significant error
 Rotational temperatures (Kelvin)      0.03453     0.01572     0.01304
 Rotational constants (GHZ):           0.71952     0.32755     0.27162
 Zero-point vibrational energy     647366.5 (Joules/Mol)
                                  154.72431 (Kcal/Mol)
 Warning -- explicit consideration of  24 degrees of freedom as
           vibrations may cause significant error
 Vibrational temperatures:     29.98    52.91    78.58   103.08   115.65
          (Kelvin)            138.73   163.65   213.12   262.21   309.52
                              339.62   369.51   373.99   410.42   424.31
                              499.08   532.99   545.05   621.57   642.55
                              708.33   757.52   850.26   864.90   902.04
                              976.53  1024.52  1077.02  1085.07  1132.23
                             1174.20  1212.42  1230.04  1265.99  1358.77
                             1378.48  1398.30  1496.97  1524.67  1555.47
                             1572.32  1607.86  1643.17  1687.78  1707.58
                             1737.58  1774.67  1794.62  1804.80  1862.19
                             1903.56  1970.70  1981.18  2016.66  2026.36
                             2058.68  2066.98  2079.40  2110.42  2143.17
                             2184.45  2187.87  2188.72  2194.44  2208.03
                             2209.09  2216.11  2334.81  2520.81  4347.27
                             4371.66  4378.23  4388.59  4430.32  4440.73
                             4460.25  4479.43  4491.92  4495.39  4549.23
                             4684.45  4722.99  5091.67  5394.24

 Zero-point correction=                           0.246569 (Hartree/Particle)
 Thermal correction to Energy=                    0.262843
 Thermal correction to Enthalpy=                  0.263787
 Thermal correction to Gibbs Free Energy=         0.200895
 Sum of electronic and zero-point Energies=          -1068.487688
 Sum of electronic and thermal Energies=             -1068.471414
 Sum of electronic and thermal Enthalpies=           -1068.470469
 Sum of electronic and thermal Free Energies=        -1068.533362

                     E (Thermal)             CV                S
                      KCal/Mol        Cal/Mol-Kelvin    Cal/Mol-Kelvin
 Total                  164.936             58.924            132.368
 Electronic               0.000              0.000              0.000
 Translational            0.889              2.981             42.189
 Rotational               0.889              2.981             32.885
 Vibrational            163.159             52.962             57.295
 Vibration     1          0.593              1.986              6.553
 Vibration     2          0.594              1.982              5.426
 Vibration     3          0.596              1.976              4.643
 Vibration     4          0.598              1.968              4.108
 Vibration     5          0.600              1.962              3.882
 Vibration     6          0.603              1.952              3.525
 Vibration     7          0.607              1.938              3.204
 Vibration     8          0.618              1.905              2.696
 Vibration     9          0.630              1.864              2.305
 Vibration    10          0.645              1.818              2.000
 Vibration    11          0.655              1.786              1.832
 Vibration    12          0.666              1.751              1.683
 Vibration    13          0.668              1.746              1.662
 Vibration    14          0.683              1.701              1.502
 Vibration    15          0.689              1.683              1.446
 Vibration    16          0.725              1.582              1.180
 Vibration    17          0.742              1.533              1.078
 Vibration    18          0.749              1.515              1.044
 Vibration    19          0.793              1.400              0.852
 Vibration    20          0.806              1.368              0.806
 Vibration    21          0.848              1.267              0.678
 Vibration    22          0.881              1.191              0.595
 Vibration    23          0.948              1.051              0.465
 Vibration    24          0.959              1.029              0.448

                           ! Non-Optimized Parameters !
 Normal termination of Gaussian 16 at Thu Dec 10 15:03:40 2020.

 ----------------------------------------------------------------------
 # B3LYP/6-311++G(d,p) empiricaldispersion=gd3bj scf=xqc pop=npa geom=c
 heck
 ----------------------------------------------------------------------

 --------------------------------------
 CID_81121272_JID_5228_Energie_neutraal
 --------------------------------------
 Structure from the checkpoint file:  "JID_5228.chk"
 Charge =  0 Multiplicity = 1

 SCF Done:  E(RB3LYP) =  -1068.96548754     A.U. after   16 cycles
 Normal termination of Gaussian 16 at Thu Dec 10 15:08:48 2020.

 ----------------------------------------------------------------------
 # B3LYP/6-311++G(d,p) empiricaldispersion=gd3bj scf=xqc pop=npa geom=c
 heck
 ----------------------------------------------------------------------

 ------------------------------------
 CID_81121272_JID_5228_Energie_kation
 ------------------------------------
 Structure from the checkpoint file:  "JID_5228.chk"
 Charge =  1 Multiplicity = 2

 SCF Done:  E(UB3LYP) =  -1068.67002607     A.U. after   29 cycles
 Normal termination of Gaussian 16 at Thu Dec 10 15:22:08 2020.
 Gaussian 16:  ES64L-G16RevA.03 25-Dec-2016

 ----------------------------------------------------------------------
 # B3LYP/6-311++G(d,p) empiricaldispersion=gd3bj scf=xqc pop=npa geom=c
 heck
 ----------------------------------------------------------------------

 -----------------------------------
 CID_81121272_JID_5228_Energie_anion
 -----------------------------------
 Structure from the checkpoint file:  "JID_5228.chk"
 Charge = -1 Multiplicity = 2

                         Standard orientation:
 ---------------------------------------------------------------------
 Center     Atomic      Atomic             Coordinates (Angstroms)
 Number     Number       Type             X           Y           Z
 ---------------------------------------------------------------------
      1          6           0       -2.273274   -1.589979    2.159226
      2          6           0       -2.045530   -0.308183    1.354001
      3          6           0       -1.903665   -0.535541   -0.163293
      4          6           0       -3.174685   -1.090016   -0.818970
      5          8           0       -4.250850   -0.157204   -0.782426
      6          7           0       -1.578490    0.707059   -0.872014
      7          6           0       -0.505006    1.532378   -0.612176
      8          8           0       -0.589844    2.752523   -0.722300
      9          6           0        0.778726    0.894671   -0.233292
     10          6           0        1.311920   -0.331529   -0.564223
     11          6           0        2.625974   -0.516161   -0.036360
     12          6           0        3.064190    0.572757    0.682654
     13         16           0        1.896787    1.844424    0.699401
     14          8           0        3.415280   -1.615733   -0.186161
     15          6           0        2.874139   -2.691405   -0.936236
     16          1           0       -3.230003   -2.069026    1.921347
     17          1           0       -2.271583   -1.378771    3.233409
     18          1           0       -1.479534   -2.321301    1.964157
     19          1           0       -2.856101    0.411806    1.533639
     20          1           0       -1.129785    0.181022    1.703678
     21          1           0       -1.110658   -1.270763   -0.326689
     22          1           0       -2.981257   -1.270703   -1.879741
     23          1           0       -3.453894   -2.045590   -0.355510
     24          1           0       -4.556959   -0.088808    0.135019
     25          1           0       -2.409950    1.253287   -1.084189
     26          1           0        0.802180   -1.046163   -1.195454
     27          1           0        4.014216    0.672387    1.187278
     28          1           0        1.953692   -3.078239   -0.477780
     29          1           0        2.662911   -2.393681   -1.971942
     30          1           0        3.634120   -3.474298   -0.934450
 ---------------------------------------------------------------------

 SCF Done:  E(UB3LYP) =  -1068.96861330     A.U. after   33 cycles
 SCF Done:  E(UB3LYP) =  -1068.96861330     a.u. after    1 cycles

 The electronic state is 2-A.
 Alpha  occ. eigenvalues --  -88.74073 -19.04603 -19.03458 -18.95043 -14.20078
 Alpha  occ. eigenvalues --  -10.13436 -10.12702 -10.12100 -10.11095 -10.10247
 Alpha  occ. eigenvalues --  -10.06534 -10.06435 -10.06249 -10.05627 -10.04885
 Alpha  occ. eigenvalues --   -7.82689  -5.78983  -5.78622  -5.78301  -0.96140
 Alpha  occ. eigenvalues --   -0.93580  -0.90365  -0.79808  -0.75118  -0.68124
 Alpha  occ. eigenvalues --   -0.63931  -0.62283  -0.60998  -0.57710  -0.54915
 Alpha  occ. eigenvalues --   -0.50308  -0.48275  -0.44616  -0.43724  -0.42197
 Alpha  occ. eigenvalues --   -0.40222  -0.37567  -0.36895  -0.36714  -0.35433
 Alpha  occ. eigenvalues --   -0.34297  -0.33480  -0.31838  -0.30406  -0.29595
 Alpha  occ. eigenvalues --   -0.29097  -0.28735  -0.27137  -0.26576  -0.25889
 Alpha  occ. eigenvalues --   -0.25150  -0.23931  -0.23673  -0.23008  -0.21917
 Alpha  occ. eigenvalues --   -0.20802  -0.19063  -0.14244  -0.12867  -0.12367
 Alpha  occ. eigenvalues --   -0.09648   0.04036
 Alpha virt. eigenvalues --    0.05881   0.06593   0.08134   0.08584   0.09515
 Alpha virt. eigenvalues --    0.09684   0.10655   0.11098   0.11858   0.12566
 Alpha virt. eigenvalues --    0.13007   0.13268   0.13669   0.14282   0.14643

  Beta  occ. eigenvalues --  -88.74025 -19.04621 -19.03440 -18.94857 -14.20048
  Beta  occ. eigenvalues --  -10.13289 -10.12681 -10.12087 -10.11166 -10.10233
  Beta  occ. eigenvalues --  -10.06522 -10.06263 -10.06215 -10.05398 -10.04745
  Beta  occ. eigenvalues --   -7.82646  -5.78961  -5.78600  -5.78144  -0.96172
  Beta  occ. eigenvalues --   -0.93532  -0.90031  -0.79669  -0.74876  -0.68063
  Beta  occ. eigenvalues --   -0.63813  -0.62195  -0.60654  -0.57431  -0.54846
  Beta  occ. eigenvalues --   -0.49946  -0.48177  -0.44512  -0.43552  -0.42092
  Beta  occ. eigenvalues --   -0.40103  -0.37458  -0.36880  -0.36670  -0.35317
  Beta  occ. eigenvalues --   -0.34189  -0.33350  -0.31786  -0.30144  -0.29436
  Beta  occ. eigenvalues --   -0.29002  -0.28352  -0.26895  -0.26415  -0.25672
  Beta  occ. eigenvalues --   -0.24963  -0.23761  -0.23626  -0.22927  -0.21676
  Beta  occ. eigenvalues --   -0.20401  -0.19010  -0.13823  -0.12238  -0.11608
  Beta  occ. eigenvalues --   -0.08710
  Beta virt. eigenvalues --    0.06400   0.06905   0.08430   0.08460   0.08767
  Beta virt. eigenvalues --    0.09454   0.09886   0.10994   0.11107   0.11860
  Beta virt. eigenvalues --    0.12591   0.13010   0.13286   0.13816   0.14397

 Mulliken charges and spin densities:
               1          2
     1  C    0.934268  -1.574837
     2  C   -1.301423   1.126024
     3  C   -0.159471   0.160654
     4  C    0.519031  -0.987794
     5  O   -0.255386   0.030059
     6  N   -0.004753   0.028435
     7  C   -0.427564   0.267119
     8  O   -0.360406   0.058899
     9  C    0.450765  -0.219465
    10  C    0.442575   0.397466
    11  C   -1.374746  -0.084615
    12  C    0.528643   0.176161
    13  S   -0.395367   0.087615
    14  O   -0.179652   0.013567
    15  C   -0.092420  -0.242300
    16  H   -0.296902   0.426881
    17  H   -0.044561   0.177565
    18  H   -0.106507   0.257336
    19  H    0.012351   0.125519
    20  H    0.136701   0.045054
    21  H    0.126663  -0.147675
    22  H    0.183192   0.004639
    23  H   -0.242707   0.407413
    24  H    0.086344   0.163530
    25  H    0.297109  -0.004271
    26  H    0.207155  -0.026302
    27  H    0.218752  -0.009552
    28  H   -0.067304   0.217808
    29  H    0.114310   0.017362
    30  H    0.051311   0.107703
 Sum of Mulliken charges =  -1.00000   1.00000

 Dipole moment (field-independent basis, Debye):
    X=              2.2106    Y=             -2.7542    Z=             -0.5482  Tot=              3.5739
 Quadrupole moment (field-independent basis, Debye-Ang):
   XX=           -151.4350   YY=           -138.8964   ZZ=           -116.5327
   XY=             -6.6844   XZ=              0.1815   YZ=             10.7216

 Summary of Natural Population Analysis:

                                       Natural Population
                Natural  -----------------------------------------------
    Atom  No    Charge         Core      Valence    Rydberg      Total
 -----------------------------------------------------------------------
      C    1   -0.28861      0.99967     2.28397    0.00498     3.28861
      C    2   -0.20069      0.99961     2.19182    0.00926     3.20069
      C    3   -0.02332      0.99958     2.01108    0.01266     3.02332
      C    4   -0.01289      0.99957     1.99943    0.01389     3.01289
      O    5   -0.37323      0.99990     3.36658    0.00675     4.37323
      N    6   -0.32818      0.99967     2.81826    0.01025     3.82818
      C    7    0.34347      0.99958     1.63445    0.02250     2.65653
      O    8   -0.30688      0.99988     3.30190    0.00510     4.30688
      C    9   -0.11960      0.99947     2.10516    0.01497     3.11960
      C   10   -0.13118      0.99944     2.12174    0.00999     3.13118
      C   11    0.10913      0.99933     1.87541    0.01612     2.89087
      C   12   -0.18300      0.99951     2.17380    0.00970     3.18300
      S   13    0.24234      4.99943     2.73744    0.02078     7.75766
      O   14   -0.27849      0.99985     3.26987    0.00878     4.27849
      C   15   -0.09706      0.99961     2.08937    0.00809     3.09706
      H   16    0.09489      0.00000     0.40318    0.00194     0.40511
      H   17    0.09915      0.00000     0.40010    0.00074     0.40085
      H   18    0.09963      0.00000     0.39920    0.00117     0.40037
      H   19    0.09056      0.00000     0.40798    0.00145     0.40944
      H   20    0.10917      0.00000     0.38913    0.00170     0.39083
      H   21    0.10099      0.00000     0.39669    0.00232     0.39901
      H   22    0.08855      0.00000     0.41023    0.00122     0.41145
      H   23    0.08300      0.00000     0.41580    0.00119     0.41700
      H   24    0.22954      0.00000     0.26751    0.00295     0.27046
      H   25    0.19316      0.00000     0.30422    0.00262     0.30684
      H   26    0.10416      0.00000     0.39455    0.00129     0.39584
      H   27    0.10305      0.00000     0.39624    0.00071     0.39695
      H   28    0.08450      0.00000     0.41352    0.00198     0.41550
      H   29    0.08053      0.00000     0.41823    0.00124     0.41947
      H   30    0.08727      0.00000     0.41176    0.00097     0.41273
 =======================================================================
   * Total *   -0.00000     18.99411    41.80860    0.19729    61.00000

 Normal termination of Gaussian 16 at Thu Dec 10 15:37:30 2020.
