 Gaussian 16, Revision A.03,

 -----------------------------------------------------------
 # opt freq B3LYP/6-31G(d) empiricaldispersion=gd3bj scf=xqc
 -----------------------------------------------------------

 ------------------------------
 CID_65790694_JID_8118_neutraal
 ------------------------------
 Symbolic Z-matrix:
 Charge =  0 Multiplicity = 1

 SCF Done:  E(RB3LYP) =  -1222.30913758     A.U. after   14 cycles
 SCF Done:  E(RB3LYP) =  -1222.31655185     A.U. after   12 cycles
 SCF Done:  E(RB3LYP) =  -1222.31750033     A.U. after   12 cycles
 SCF Done:  E(RB3LYP) =  -1222.31813820     A.U. after   12 cycles
 SCF Done:  E(RB3LYP) =  -1222.31917859     A.U. after   12 cycles
 SCF Done:  E(RB3LYP) =  -1222.31997862     A.U. after   11 cycles
 SCF Done:  E(RB3LYP) =  -1222.31941605     A.U. after   13 cycles
 SCF Done:  E(RB3LYP) =  -1222.31952568     A.U. after   12 cycles
 SCF Done:  E(RB3LYP) =  -1222.32025126     A.U. after   10 cycles
 SCF Done:  E(RB3LYP) =  -1222.32048775     A.U. after   10 cycles
 SCF Done:  E(RB3LYP) =  -1222.32076599     A.U. after   12 cycles
 SCF Done:  E(RB3LYP) =  -1222.32084121     A.U. after   12 cycles
 SCF Done:  E(RB3LYP) =  -1222.32084446     A.U. after   10 cycles
 SCF Done:  E(RB3LYP) =  -1222.32084508     A.U. after    9 cycles
 SCF Done:  E(RB3LYP) =  -1222.32084519     A.U. after    8 cycles
 SCF Done:  E(RB3LYP) =  -1222.32084522     A.U. after    7 cycles
 Optimization completed.
    -- Stationary point found.
 Normal termination of Gaussian 16 at Fri Dec 11 19:41:20 2020.

 --------------------------------------------------------------------
 #N Geom=AllCheck Guess=TCheck SCRF=Check GenChk RB3LYP/6-31G(d) Freq
 --------------------------------------------------------------------

 Structure from the checkpoint file:  "JID_8118.chk"
 ------------------------------
 CID_65790694_JID_8118_neutraal
 ------------------------------
 Charge =  0 Multiplicity = 1

 SCF Done:  E(RB3LYP) =  -1222.32084522     A.U. after    1 cycles

  Exact polarizability: 195.471  -3.936 148.798  -1.224  -1.025 138.689
 Approx polarizability: 223.755  -5.149 229.764   1.254  -1.212 219.947

                      1                      2                      3
                      A                      A                      A
 Frequencies --     11.6510                35.4353                45.2038
 Red. masses --      3.6825                 4.2193                 3.7506
 Frc consts  --      0.0003                 0.0031                 0.0045
 IR Inten    --      0.2198                 0.0801                 2.3232

                      4                      5                      6
                      A                      A                      A
 Frequencies --     64.3674                75.7594                98.8600
 Red. masses --      2.8970                 2.6244                 3.3298
 Frc consts  --      0.0071                 0.0089                 0.0192
 IR Inten    --      1.0493                 0.2376                 4.4241

                      7                      8                      9
                      A                      A                      A
 Frequencies --    119.6620               136.9242               163.9208
 Red. masses --      1.7800                 2.5509                 3.2487
 Frc consts  --      0.0150                 0.0282                 0.0514
 IR Inten    --      6.4004                 1.8090                 2.1033

                     10                     11                     12
                      A                      A                      A
 Frequencies --    174.7051               177.5975               202.0884
 Red. masses --      1.9614                 2.2657                 3.7295
 Frc consts  --      0.0353                 0.0421                 0.0897
 IR Inten    --      0.1953                10.0512                 1.8792

                     13                     14                     15
                      A                      A                      A
 Frequencies --    215.8884               226.1690               232.8416
 Red. masses --      1.5401                 1.9441                 1.6709
 Frc consts  --      0.0423                 0.0586                 0.0534
 IR Inten    --      0.8512                 4.4125                 0.5256

                     16                     17                     18
                      A                      A                      A
 Frequencies --    254.6245               264.0613               268.8973
 Red. masses --      2.7295                 1.3750                 2.2706
 Frc consts  --      0.1043                 0.0565                 0.0967
 IR Inten    --      7.2667                49.4344                16.8632

                     19                     20                     21
                      A                      A                      A
 Frequencies --    290.4089               297.8264               309.6582
 Red. masses --      2.7914                 3.3348                 2.6772
 Frc consts  --      0.1387                 0.1743                 0.1513
 IR Inten    --      1.7458                 1.3786                 2.9551

                     22                     23                     24
                      A                      A                      A
 Frequencies --    327.0332               361.5902               388.9778
 Red. masses --      2.7759                 3.0058                 4.6523
 Frc consts  --      0.1749                 0.2315                 0.4147
 IR Inten    --      0.3174                 3.4056                 4.4188

                     25                     26                     27
                      A                      A                      A
 Frequencies --    421.6188               437.1641               447.4519
 Red. masses --      3.1938                 3.6453                 1.8840
 Frc consts  --      0.3345                 0.4105                 0.2222
 IR Inten    --     11.3726                 2.7071                 0.4312

                     28                     29                     30
                      A                      A                      A
 Frequencies --    460.0299               482.1514               497.4212
 Red. masses --      2.4344                 3.1253                 4.6103
 Frc consts  --      0.3035                 0.4281                 0.6721
 IR Inten    --      5.0030                 0.5998                25.8909

                     31                     32                     33
                      A                      A                      A
 Frequencies --    516.6474               526.6945               595.1488
 Red. masses --      4.3430                 4.4382                 4.4753
 Frc consts  --      0.6830                 0.7254                 0.9340
 IR Inten    --     11.1341                 5.6492                60.0600

                     34                     35                     36
                      A                      A                      A
 Frequencies --    632.7531               694.0499               726.1984
 Red. masses --      5.2815                 3.0489                 3.7364
 Frc consts  --      1.2459                 0.8653                 1.1609
 IR Inten    --     62.7161                 7.4707               160.3608

                     37                     38                     39
                      A                      A                      A
 Frequencies --    802.2875               810.2863               836.9557
 Red. masses --      3.2669                 2.1389                 1.4831
 Frc consts  --      1.2389                 0.8274                 0.6121
 IR Inten    --    122.0781                 1.9455                 0.1880

                     40                     41                     42
                      A                      A                      A
 Frequencies --    874.0973               915.2351               929.1757
 Red. masses --      1.3270                 2.3620                 2.1238
 Frc consts  --      0.5974                 1.1657                 1.0803
 IR Inten    --    115.4448                53.2903                68.6932

                     43                     44                     45
                      A                      A                      A
 Frequencies --    947.1296               949.8599               972.1525
 Red. masses --      1.8664                 2.0146                 2.6356
 Frc consts  --      0.9865                 1.0709                 1.4676
 IR Inten    --     24.2668                42.1183                27.5664

                     46                     47                     48
                      A                      A                      A
 Frequencies --    973.3982              1004.1756              1014.0497
 Red. masses --      1.7270                 2.5061                 1.5720
 Frc consts  --      0.9641                 1.4889                 0.9524
 IR Inten    --     14.3793                11.7958                 0.9495

                     49                     50                     51
                      A                      A                      A
 Frequencies --   1063.7682              1070.5465              1074.9035
 Red. masses --      2.0491                 2.5655                 1.6827
 Frc consts  --      1.3662                 1.7323                 1.1455
 IR Inten    --     44.6843                 9.8717                12.3194

                     52                     53                     54
                      A                      A                      A
 Frequencies --   1098.3398              1106.0754              1120.5413
 Red. masses --      2.8717                 1.8655                 3.1997
 Frc consts  --      2.0411                 1.3446                 2.3671
 IR Inten    --     43.8448                 1.7776                22.0496

                     55                     56                     57
                      A                      A                      A
 Frequencies --   1126.6834              1133.1989              1154.4961
 Red. masses --      2.3986                 3.5061                 1.4362
 Frc consts  --      1.7940                 2.6527                 1.1278
 IR Inten    --     20.0085               160.8323                 2.7140

                     58                     59                     60
                      A                      A                      A
 Frequencies --   1164.4247              1176.8330              1185.0262
 Red. masses --      2.1760                 1.9713                 2.2886
 Frc consts  --      1.7383                 1.6085                 1.8936
 IR Inten    --     16.4520                37.8107                16.5642

                     61                     62                     63
                      A                      A                      A
 Frequencies --   1188.8595              1200.1463              1218.4635
 Red. masses --      1.2783                 1.2820                 2.9545
 Frc consts  --      1.0645                 1.0879                 2.5844
 IR Inten    --      2.0408                 3.3803                22.8161

                     64                     65                     66
                      A                      A                      A
 Frequencies --   1235.0977              1244.7060              1254.4765
 Red. masses --      1.7399                 1.8099                 2.2554
 Frc consts  --      1.5638                 1.6521                 2.0912
 IR Inten    --      4.2409                32.6226                52.3767

                     67                     68                     69
                      A                      A                      A
 Frequencies --   1288.8710              1299.5662              1310.7798
 Red. masses --      1.4551                 1.3596                 1.2225
 Frc consts  --      1.4242                 1.3529                 1.2376
 IR Inten    --     12.6238                20.6098                 2.8183

                     70                     71                     72
                      A                      A                      A
 Frequencies --   1340.0247              1341.7570              1354.1567
 Red. masses --      2.1042                 1.6852                 1.3927
 Frc consts  --      2.2262                 1.7875                 1.5046
 IR Inten    --     68.9852                78.5196                17.2523

                     73                     74                     75
                      A                      A                      A
 Frequencies --   1357.0715              1368.3409              1376.9826
 Red. masses --      1.4671                 1.3676                 1.1977
 Frc consts  --      1.5919                 1.5087                 1.3380
 IR Inten    --     19.4885                24.8830                 0.4080

                     76                     77                     78
                      A                      A                      A
 Frequencies --   1390.5181              1407.1054              1412.9518
 Red. masses --      1.2991                 1.4274                 1.2957
 Frc consts  --      1.4799                 1.6651                 1.5241
 IR Inten    --      7.1408                 1.4463                33.9238

                     79                     80                     81
                      A                      A                      A
 Frequencies --   1421.7042              1425.0542              1430.8987
 Red. masses --      1.5217                 1.2194                 1.3710
 Frc consts  --      1.8121                 1.4590                 1.6538
 IR Inten    --      1.7009                14.3709                 6.5870

                     82                     83                     84
                      A                      A                      A
 Frequencies --   1448.3887              1449.8935              1487.9800
 Red. masses --      1.2715                 1.4695                 1.1559
 Frc consts  --      1.5716                 1.8201                 1.5079
 IR Inten    --     11.7546                19.7327                 2.7896

                     85                     86                     87
                      A                      A                      A
 Frequencies --   1498.8138              1504.7531              1507.3150
 Red. masses --      1.1176                 1.0907                 1.0522
 Frc consts  --      1.4792                 1.4551                 1.4085
 IR Inten    --      0.9104                 0.6953                 3.4960

                     88                     89                     90
                      A                      A                      A
 Frequencies --   1516.5181              1517.1212              1520.7055
 Red. masses --      1.0650                 1.0683                 1.0637
 Frc consts  --      1.4430                 1.4487                 1.4494
 IR Inten    --     10.6809                 2.6923                 3.4129

                     91                     92                     93
                      A                      A                      A
 Frequencies --   1522.9369              1526.8151              1534.0252
 Red. masses --      1.1093                 1.0811                 1.0824
 Frc consts  --      1.5159                 1.4849                 1.5007
 IR Inten    --      6.2648                 0.4640                 5.7639

                     94                     95                     96
                      A                      A                      A
 Frequencies --   1535.1726              1538.4378              1544.4038
 Red. masses --      1.0546                 1.0895                 1.0566
 Frc consts  --      1.4644                 1.5193                 1.4849
 IR Inten    --      1.0551                 7.2957                 3.7049

                     97                     98                     99
                      A                      A                      A
 Frequencies --   1552.2712              1702.1064              2944.9065
 Red. masses --      1.0508                 1.0875                 1.0727
 Frc consts  --      1.4918                 1.8563                 5.4814
 IR Inten    --      8.6685                34.8900                65.8024

                    100                    101                    102
                      A                      A                      A
 Frequencies --   2974.3147              2992.7208              2996.4897
 Red. masses --      1.0723                 1.0723                 1.0661
 Frc consts  --      5.5892                 5.6585                 5.6402
 IR Inten    --     35.4168                30.3470                24.9418

                    103                    104                    105
                      A                      A                      A
 Frequencies --   3009.0107              3016.2015              3023.4872
 Red. masses --      1.0527                 1.0821                 1.0816
 Frc consts  --      5.6159                 5.8001                 5.8253
 IR Inten    --     94.6939                42.8016                15.0642

                    106                    107                    108
                      A                      A                      A
 Frequencies --   3040.1964              3045.5046              3058.3267
 Red. masses --      1.0609                 1.0609                 1.0401
 Frc consts  --      5.7773                 5.7974                 5.7316
 IR Inten    --     25.9561                42.5908                26.6962

                    109                    110                    111
                      A                      A                      A
 Frequencies --   3065.7200              3068.1785              3080.7525
 Red. masses --      1.0433                 1.0893                 1.0923
 Frc consts  --      5.7774                 6.0418                 6.1079
 IR Inten    --     30.6204                32.8022                53.9611

                    112                    113                    114
                      A                      A                      A
 Frequencies --   3087.6149              3093.3670              3112.7730
 Red. masses --      1.1037                 1.1022                 1.0830
 Frc consts  --      6.1996                 6.2141                 6.1828
 IR Inten    --     41.8529                44.8963                27.2616

                    115                    116                    117
                      A                      A                      A
 Frequencies --   3123.0423              3124.2169              3147.6173
 Red. masses --      1.1014                 1.1044                 1.0907
 Frc consts  --      6.3293                 6.3510                 6.3666
 IR Inten    --     36.2718                19.1490                 5.9791

                    118                    119                    120
                      A                      A                      A
 Frequencies --   3149.4660              3155.0475              3173.4990
 Red. masses --      1.1053                 1.0905                 1.0987
 Frc consts  --      6.4596                 6.3955                 6.5191
 IR Inten    --     26.9911                 4.1875                15.6063

                    121                    122                    123
                      A                      A                      A
 Frequencies --   3210.2401              3473.9598              3554.9789
 Red. masses --      1.0949                 1.0501                 1.0920
 Frc consts  --      6.6478                 7.4666                 8.1312
 IR Inten    --      4.5796                 1.7257                 0.6965

 - Thermochemistry -
 -------------------
 Temperature   298.150 Kelvin.  Pressure   1.00000 Atm.
 Atom     1 has atomic number  6 and mass  12.00000

 Molecular mass:   279.16166 amu.
 Principal axes and moments of inertia in atomic units:
                           1         2         3
     Eigenvalues --  2007.244859552.827699939.68239
           X            0.99996  -0.00721  -0.00463
           Y            0.00687   0.99751  -0.07018
           Z            0.00512   0.07015   0.99752
 This molecule is an asymmetric top.
 Rotational symmetry number  1.
 Warning -- assumption of classical behavior for rotation
           may cause significant error
 Rotational temperatures (Kelvin)      0.04315     0.00907     0.00871
 Rotational constants (GHZ):           0.89911     0.18892     0.18157
 Zero-point vibrational energy     999970.1 (Joules/Mol)
                                  238.99859 (Kcal/Mol)
 Warning -- explicit consideration of  33 degrees of freedom as
           vibrations may cause significant error
 Vibrational temperatures:     16.76    50.98    65.04    92.61   109.00
          (Kelvin)            142.24   172.17   197.00   235.85   251.36
                              255.52   290.76   310.62   325.41   335.01
                              366.35   379.93   386.88   417.83   428.51
                              445.53   470.53   520.25   559.65   606.62
                              628.98   643.78   661.88   693.71   715.68
                              743.34   757.80   856.29   910.39   998.58
                             1044.84  1154.31  1165.82  1204.19  1257.63
                             1316.82  1336.88  1362.71  1366.64  1398.71
                             1400.50  1444.78  1458.99  1530.53  1540.28
                             1546.55  1580.27  1591.40  1612.21  1621.05
                             1630.42  1661.06  1675.35  1693.20  1704.99
                             1710.50  1726.74  1753.10  1777.03  1790.85
                             1804.91  1854.40  1869.79  1885.92  1928.00
                             1930.49  1948.33  1952.52  1968.74  1981.17
                             2000.65  2024.51  2032.92  2045.52  2050.34
                             2058.74  2083.91  2086.07  2140.87  2156.46
                             2165.00  2168.69  2181.93  2182.80  2187.96
                             2191.17  2196.75  2207.12  2208.77  2213.47
                             2222.05  2233.37  2448.95  4237.06  4279.38
                             4305.86  4311.28  4329.30  4339.64  4350.12
                             4374.16  4381.80  4400.25  4410.89  4414.42
                             4432.52  4442.39  4450.67  4478.59  4493.36
                             4495.05  4528.72  4531.38  4539.41  4565.96
                             4618.82  4998.25  5114.82

 Zero-point correction=                           0.380868 (Hartree/Particle)
 Thermal correction to Energy=                    0.401375
 Thermal correction to Enthalpy=                  0.402320
 Thermal correction to Gibbs Free Energy=         0.330854
 Sum of electronic and zero-point Energies=          -1221.939977
 Sum of electronic and thermal Energies=             -1221.919470
 Sum of electronic and thermal Enthalpies=           -1221.918526
 Sum of electronic and thermal Free Energies=        -1221.989992

                     E (Thermal)             CV                S
                      KCal/Mol        Cal/Mol-Kelvin    Cal/Mol-Kelvin
 Total                  251.867             76.576            150.413
 Electronic               0.000              0.000              0.000
 Translational            0.889              2.981             42.778
 Rotational               0.889              2.981             33.610
 Vibrational            250.089             70.615             74.024
 Vibration     1          0.593              1.987              7.707
 Vibration     2          0.594              1.982              5.499
 Vibration     3          0.595              1.979              5.017
 Vibration     4          0.597              1.971              4.319
 Vibration     5          0.599              1.965              3.998
 Vibration     6          0.604              1.950              3.477
 Vibration     7          0.609              1.933              3.106
 Vibration     8          0.614              1.916              2.846
 Vibration     9          0.623              1.887              2.504
 Vibration    10          0.627              1.874              2.384
 Vibration    11          0.628              1.870              2.354
 Vibration    12          0.639              1.837              2.114
 Vibration    13          0.645              1.817              1.993
 Vibration    14          0.650              1.801              1.909
 Vibration    15          0.654              1.791              1.857
 Vibration    16          0.665              1.755              1.698
 Vibration    17          0.671              1.739              1.635
 Vibration    18          0.673              1.730              1.603
 Vibration    19          0.686              1.692              1.472
 Vibration    20          0.691              1.678              1.429
 Vibration    21          0.699              1.655              1.364
 Vibration    22          0.711              1.621              1.275
 Vibration    23          0.736              1.551              1.115
 Vibration    24          0.757              1.494              1.004
 Vibration    25          0.784              1.423              0.886
 Vibration    26          0.797              1.389              0.836
 Vibration    27          0.807              1.367              0.804
 Vibration    28          0.818              1.339              0.766
 Vibration    29          0.838              1.290              0.704
 Vibration    30          0.853              1.256              0.665
 Vibration    31          0.872              1.213              0.618
 Vibration    32          0.882              1.191              0.595
 Vibration    33          0.953              1.042              0.458

                           ! Non-Optimized Parameters !
 Normal termination of Gaussian 16 at Fri Dec 11 20:05:01 2020.

 ----------------------------------------------------------------------
 # B3LYP/6-311++G(d,p) empiricaldispersion=gd3bj scf=xqc pop=npa geom=c
 heck
 ----------------------------------------------------------------------

 --------------------------------------
 CID_65790694_JID_8118_Energie_neutraal
 --------------------------------------
 Structure from the checkpoint file:  "JID_8118.chk"
 Charge =  0 Multiplicity = 1

 SCF Done:  E(RB3LYP) =  -1222.59283784     A.U. after   16 cycles
 Normal termination of Gaussian 16 at Fri Dec 11 20:17:59 2020.

 ----------------------------------------------------------------------
 # B3LYP/6-311++G(d,p) empiricaldispersion=gd3bj scf=xqc pop=npa geom=c
 heck
 ----------------------------------------------------------------------

 ------------------------------------
 CID_65790694_JID_8118_Energie_kation
 ------------------------------------
 Structure from the checkpoint file:  "JID_8118.chk"
 Charge =  1 Multiplicity = 2

 SCF Done:  E(UB3LYP) =  -1222.29791449     A.U. after   27 cycles
 Normal termination of Gaussian 16 at Fri Dec 11 20:49:00 2020.
 Gaussian 16:  ES64L-G16RevA.03 25-Dec-2016

 ----------------------------------------------------------------------
 # B3LYP/6-311++G(d,p) empiricaldispersion=gd3bj scf=xqc pop=npa geom=c
 heck
 ----------------------------------------------------------------------

 -----------------------------------
 CID_65790694_JID_8118_Energie_anion
 -----------------------------------
 Structure from the checkpoint file:  "JID_8118.chk"
 Charge = -1 Multiplicity = 2

                         Standard orientation:
 ---------------------------------------------------------------------
 Center     Atomic      Atomic             Coordinates (Angstroms)
 Number     Number       Type             X           Y           Z
 ---------------------------------------------------------------------
      1          6           0       -2.215400    2.196971    0.770134
      2          6           0       -2.538647    0.773973    1.231890
      3          6           0       -3.913662    0.227046    0.786710
      4          8           0       -3.963055   -0.300064   -0.517758
      5          6           0       -4.298716    0.619503   -1.543793
      6          7           0       -1.430007   -0.191466    1.023418
      7          6           0       -1.549662   -1.413645    1.833123
      8         16           0       -0.816384   -0.509629   -0.539322
      9          8           0       -1.067069   -1.904899   -0.892208
     10          8           0       -1.202821    0.592694   -1.415465
     11          7           0        0.850527   -0.373348   -0.362192
     12          6           0        1.338330    0.939510    0.077207
     13          6           0        2.810246    1.089838   -0.310254
     14          6           0        3.667560   -0.060291    0.237946
     15          6           0        3.053113   -1.403424   -0.179914
     16          6           0        1.583228   -1.499344    0.230295
     17          6           0        5.129162    0.041831   -0.207400
     18          7           0        5.751618    1.281837    0.271589
     19          1           0       -2.162805    2.290187   -0.311633
     20          1           0       -1.254330    2.511736    1.189393
     21          1           0       -2.989846    2.873220    1.148933
     22          1           0       -2.602989    0.830156    2.328160
     23          1           0       -4.182658   -0.605130    1.447196
     24          1           0       -4.670877    1.015169    0.929659
     25          1           0       -5.209733    1.180872   -1.283997
     26          1           0       -3.483237    1.315763   -1.758181
     27          1           0       -4.489978    0.023554   -2.439408
     28          1           0       -2.344190   -2.082246    1.483608
     29          1           0       -0.611023   -1.967390    1.821694
     30          1           0       -1.750999   -1.109926    2.864663
     31          1           0        1.215233    1.044727    1.167826
     32          1           0        0.735696    1.706942   -0.410183
     33          1           0        3.173518    2.050129    0.073735
     34          1           0        2.884034    1.113649   -1.406068
     35          1           0        3.656292    0.004307    1.335984
     36          1           0        3.120882   -1.521508   -1.268982
     37          1           0        3.605862   -2.234203    0.276916
     38          1           0        1.132923   -2.424865   -0.129255
     39          1           0        1.511522   -1.475348    1.331357
     40          1           0        5.686023   -0.797430    0.227177
     41          1           0        5.174012   -0.085481   -1.305459
     42          1           0        6.757939    1.236929    0.122877
     43          1           0        5.426149    2.067429   -0.288783
 ---------------------------------------------------------------------

 SCF Done:  E(UB3LYP) =  -1222.58298896     A.U. after   31 cycles

 The electronic state is 2-A.
 Alpha  occ. eigenvalues --  -88.98652 -19.03879 -19.02851 -19.02845 -14.25631
 Alpha  occ. eigenvalues --  -14.25429 -14.20294 -10.13021 -10.12906 -10.12298
 Alpha  occ. eigenvalues --  -10.12255 -10.11774 -10.11455 -10.10370 -10.08835
 Alpha  occ. eigenvalues --  -10.08707 -10.08409 -10.07122  -8.04554  -6.00801
 Alpha  occ. eigenvalues --   -6.00793  -6.00766  -1.03946  -0.95175  -0.92606
 Alpha  occ. eigenvalues --   -0.85891  -0.84341  -0.79592  -0.72156  -0.69433
 Alpha  occ. eigenvalues --   -0.68199  -0.63490  -0.63088  -0.59879  -0.57078
 Alpha  occ. eigenvalues --   -0.55574  -0.54866  -0.52417  -0.49128  -0.46868
 Alpha  occ. eigenvalues --   -0.44552  -0.41959  -0.41554  -0.40526  -0.39965
 Alpha  occ. eigenvalues --   -0.39474  -0.38641  -0.38163  -0.37244  -0.36517
 Alpha  occ. eigenvalues --   -0.35931  -0.35175  -0.34841  -0.33919  -0.33287
 Alpha  occ. eigenvalues --   -0.32438  -0.32287  -0.31107  -0.30641  -0.29198
 Alpha  occ. eigenvalues --   -0.29148  -0.28854  -0.27643  -0.26729  -0.25661
 Alpha  occ. eigenvalues --   -0.24947  -0.24561  -0.23675  -0.23365  -0.23110
 Alpha  occ. eigenvalues --   -0.22814  -0.21780  -0.19093  -0.17506  -0.15666
 Alpha  occ. eigenvalues --   -0.15074   0.03723
 Alpha virt. eigenvalues --    0.04851   0.06346   0.06985   0.07364   0.07656
 Alpha virt. eigenvalues --    0.07971   0.08975   0.09374   0.09478   0.10049
 Alpha virt. eigenvalues --    0.10350   0.10826   0.11077   0.11814   0.11924

  Beta  occ. eigenvalues --  -88.98651 -19.03876 -19.02850 -19.02844 -14.25630
  Beta  occ. eigenvalues --  -14.25424 -14.20248 -10.13001 -10.12887 -10.12292
  Beta  occ. eigenvalues --  -10.12248 -10.11767 -10.11429 -10.10350 -10.08830
  Beta  occ. eigenvalues --  -10.08704 -10.08395 -10.07102  -8.04553  -6.00800
  Beta  occ. eigenvalues --   -6.00791  -6.00765  -1.03943  -0.95169  -0.92605
  Beta  occ. eigenvalues --   -0.85881  -0.84328  -0.79521  -0.72128  -0.69397
  Beta  occ. eigenvalues --   -0.68184  -0.63462  -0.63059  -0.59831  -0.57040
  Beta  occ. eigenvalues --   -0.55545  -0.54828  -0.52379  -0.49098  -0.46840
  Beta  occ. eigenvalues --   -0.44532  -0.41941  -0.41513  -0.40484  -0.39943
  Beta  occ. eigenvalues --   -0.39453  -0.38615  -0.38131  -0.37209  -0.36488
  Beta  occ. eigenvalues --   -0.35916  -0.35141  -0.34820  -0.33885  -0.33255
  Beta  occ. eigenvalues --   -0.32410  -0.32256  -0.31081  -0.30618  -0.29168
  Beta  occ. eigenvalues --   -0.29121  -0.28828  -0.27623  -0.26708  -0.25640
  Beta  occ. eigenvalues --   -0.24918  -0.24541  -0.23664  -0.23352  -0.23094
  Beta  occ. eigenvalues --   -0.22802  -0.21774  -0.19076  -0.17476  -0.15620
  Beta  occ. eigenvalues --   -0.15056
  Beta virt. eigenvalues --    0.05872   0.06150   0.06737   0.07330   0.07803
  Beta virt. eigenvalues --    0.08053   0.08160   0.09397   0.09707   0.09718
  Beta virt. eigenvalues --    0.10243   0.10616   0.10885   0.11295   0.11994

 Mulliken charges and spin densities:
               1          2
     1  C    0.209768  -0.779218
     2  C   -0.607459   0.632417
     3  C    0.556682  -1.136168
     4  O   -0.109095   0.019683
     5  C   -0.179054  -0.074585
     6  N   -0.062194   0.013180
     7  C    0.382127  -0.728090
     8  S    0.405476  -0.114947
     9  O   -0.026709   0.008017
    10  O   -0.162579  -0.006282
    11  N    0.110448   0.020292
    12  C   -0.938869   0.329970
    13  C    0.378586  -1.024655
    14  C   -0.667533   1.425830
    15  C   -0.330134  -0.429213
    16  C   -0.096185  -0.135020
    17  C    1.085958  -1.869397
    18  N   -0.392167   0.039700
    19  H    0.147316   0.006425
    20  H   -0.022255   0.179081
    21  H   -0.357519   0.515808
    22  H   -0.578189   0.762554
    23  H   -0.013269   0.186540
    24  H   -0.215854   0.363109
    25  H    0.036452   0.076907
    26  H    0.143772   0.014880
    27  H    0.127339   0.016871
    28  H    0.191815   0.015692
    29  H    0.019376   0.120010
    30  H   -0.336059   0.508761
    31  H    0.138183   0.066138
    32  H    0.154329   0.058405
    33  H    0.082361   0.059908
    34  H    0.033108   0.140515
    35  H    0.030300   0.155875
    36  H    0.168900  -0.005318
    37  H    0.073529   0.081015
    38  H    0.178031   0.046719
    39  H    0.071575   0.054060
    40  H   -0.311644   0.477597
    41  H   -0.045024   0.159164
    42  H   -0.205899   0.455993
    43  H   -0.067742   0.291776
 Sum of Mulliken charges =  -1.00000   1.00000

 Dipole moment (field-independent basis, Debye):
    X=             -3.6038    Y=             -2.4494    Z=             -3.2373  Tot=              5.4284
 Quadrupole moment (field-independent basis, Debye-Ang):
   XX=           -246.0200   YY=           -157.8990   ZZ=           -164.9280
   XY=            -10.8658   XZ=              9.0935   YZ=             -8.0043

 Summary of Natural Population Analysis:

                                       Natural Population
                Natural  -----------------------------------------------
    Atom  No    Charge         Core      Valence    Rydberg      Total
 -----------------------------------------------------------------------
      C    1   -0.29141      0.99962     2.28519    0.00659     3.29141
      C    2   -0.02102      0.99957     2.00428    0.01717     3.02102
      C    3   -0.01434      0.99954     1.99976    0.01505     3.01434
      O    4   -0.29906      0.99989     3.28947    0.00971     4.29906
      C    5   -0.09646      0.99960     2.08902    0.00784     3.09646
      N    6   -0.37605      0.99972     2.86043    0.01590     3.87605
      C    7   -0.18030      0.99962     2.17146    0.00921     3.18030
      S    8    1.18891      4.99921     1.70857    0.10331     6.81109
      O    9   -0.45726      0.99990     3.45225    0.00512     4.45726
      O   10   -0.46363      0.99990     3.45803    0.00571     4.46363
      N   11   -0.36985      0.99970     2.85706    0.01310     3.86985
      C   12   -0.08903      0.99960     2.07772    0.01171     3.08903
      C   13   -0.19483      0.99960     2.18584    0.00939     3.19483
      C   14   -0.11584      0.99958     2.10549    0.01077     3.11584
      C   15   -0.19140      0.99960     2.18294    0.00886     3.19140
      C   16   -0.08848      0.99961     2.07791    0.01097     3.08848
      C   17   -0.08351      0.99960     2.07170    0.01221     3.08351
      N   18   -0.42191      0.99977     2.91138    0.01076     3.92191
      H   19    0.10985      0.00000     0.38882    0.00133     0.39015
      H   20    0.10342      0.00000     0.39539    0.00119     0.39658
      H   21    0.10123      0.00000     0.39775    0.00102     0.39877
      H   22    0.10387      0.00000     0.39296    0.00318     0.39613
      H   23    0.09129      0.00000     0.40718    0.00153     0.40871
      H   24    0.08357      0.00000     0.41490    0.00153     0.41643
      H   25    0.07400      0.00000     0.42480    0.00120     0.42600
      H   26    0.08922      0.00000     0.40940    0.00139     0.41078
      H   27    0.08848      0.00000     0.41065    0.00086     0.41152
      H   28    0.09701      0.00000     0.40185    0.00114     0.40299
      H   29    0.10044      0.00000     0.39852    0.00104     0.39956
      H   30    0.10199      0.00000     0.39652    0.00149     0.39801
      H   31    0.09012      0.00000     0.40818    0.00170     0.40988
      H   32    0.11074      0.00000     0.38795    0.00132     0.38926
      H   33    0.10572      0.00000     0.39333    0.00094     0.39428
      H   34    0.09780      0.00000     0.40079    0.00141     0.40220
      H   35    0.09776      0.00000     0.40024    0.00200     0.40224
      H   36    0.09912      0.00000     0.39943    0.00144     0.40088
      H   37    0.10140      0.00000     0.39773    0.00086     0.39860
      H   38    0.11287      0.00000     0.38611    0.00103     0.38713
      H   39    0.08478      0.00000     0.41388    0.00134     0.41522
      H   40    0.09174      0.00000     0.40706    0.00121     0.40826
      H   41    0.07713      0.00000     0.42115    0.00173     0.42287
      H   42    0.17882      0.00000     0.31777    0.00341     0.32118
      H   43    0.17311      0.00000     0.32460    0.00229     0.32689
 =======================================================================
   * Total *    0.00000     21.99364    53.68543    0.32093    76.00000

 Normal termination of Gaussian 16 at Fri Dec 11 21:24:32 2020.
