 Gaussian 16, Revision A.03,

 -----------------------------------------------------------
 # opt freq B3LYP/6-31G(d) empiricaldispersion=gd3bj scf=xqc
 -----------------------------------------------------------

 -------------------------------
 CID_124561923_JID_3856_neutraal
 -------------------------------
 Symbolic Z-matrix:
 Charge =  0 Multiplicity = 1

 SCF Done:  E(RB3LYP) =  -544.594688120     A.U. after   14 cycles
 SCF Done:  E(RB3LYP) =  -544.596076031     A.U. after   12 cycles
 SCF Done:  E(RB3LYP) =  -544.592046906     A.U. after   13 cycles
 SCF Done:  E(RB3LYP) =  -544.597080050     A.U. after   12 cycles
 SCF Done:  E(RB3LYP) =  -544.597146092     A.U. after   11 cycles
 SCF Done:  E(RB3LYP) =  -544.597175070     A.U. after   11 cycles
 SCF Done:  E(RB3LYP) =  -544.597181479     A.U. after   10 cycles
 SCF Done:  E(RB3LYP) =  -544.597183311     A.U. after    9 cycles
 SCF Done:  E(RB3LYP) =  -544.597183607     A.U. after    8 cycles
 SCF Done:  E(RB3LYP) =  -544.597183764     A.U. after    7 cycles
 SCF Done:  E(RB3LYP) =  -544.597183866     A.U. after    7 cycles
 Optimization completed.
    -- Stationary point found.
 Normal termination of Gaussian 16 at Sun Dec 13 15:58:54 2020.

 --------------------------------------------------------------------
 #N Geom=AllCheck Guess=TCheck SCRF=Check GenChk RB3LYP/6-31G(d) Freq
 --------------------------------------------------------------------

 Structure from the checkpoint file:  "JID_3856.chk"
 -------------------------------
 CID_124561923_JID_3856_neutraal
 -------------------------------
 Charge =  0 Multiplicity = 1

 SCF Done:  E(RB3LYP) =  -544.597183866     A.U. after    1 cycles

  Exact polarizability: 151.129  -3.261 106.218  -7.573  -1.626 117.314
 Approx polarizability: 179.782  -9.127 161.276 -12.075  -6.079 190.333

                      1                      2                      3
                      A                      A                      A
 Frequencies --     32.2694                44.8088                74.7780
 Red. masses --      2.6246                 4.7264                 3.5387
 Frc consts  --      0.0016                 0.0056                 0.0117
 IR Inten    --      0.2690                 1.0334                 3.2756

                      4                      5                      6
                      A                      A                      A
 Frequencies --     80.2731               140.0278               188.8359
 Red. masses --      3.2094                 3.1392                 2.9318
 Frc consts  --      0.0122                 0.0363                 0.0616
 IR Inten    --      0.8064                 0.1197                 2.7582

                      7                      8                      9
                      A                      A                      A
 Frequencies --    206.1183               229.2001               247.2580
 Red. masses --      1.8513                 1.0744                 1.3135
 Frc consts  --      0.0463                 0.0333                 0.0473
 IR Inten    --      1.7418                 0.1463                 0.1422

                     10                     11                     12
                      A                      A                      A
 Frequencies --    256.8080               266.5526               276.3086
 Red. masses --      1.2052                 2.1065                 2.6742
 Frc consts  --      0.0468                 0.0882                 0.1203
 IR Inten    --      1.6962                 0.2264                 1.4662

                     13                     14                     15
                      A                      A                      A
 Frequencies --    333.1147               341.6936               353.3314
 Red. masses --      2.1226                 2.3157                 2.3245
 Frc consts  --      0.1388                 0.1593                 0.1710
 IR Inten    --      0.6556                 0.2559                 2.8018

                     16                     17                     18
                      A                      A                      A
 Frequencies --    393.2796               400.9183               421.2967
 Red. masses --      2.2023                 2.0201                 2.1903
 Frc consts  --      0.2007                 0.1913                 0.2290
 IR Inten    --      2.1755                 0.1429                 0.1814

                     19                     20                     21
                      A                      A                      A
 Frequencies --    442.9954               518.6150               538.4089
 Red. masses --      2.3938                 3.0141                 3.5497
 Frc consts  --      0.2768                 0.4776                 0.6063
 IR Inten    --      1.0610                 3.6748                 0.5632

                     22                     23                     24
                      A                      A                      A
 Frequencies --    619.3525               716.5385               736.9606
 Red. masses --      4.4120                 2.4578                 4.0468
 Frc consts  --      0.9972                 0.7435                 1.2949
 IR Inten    --      3.4785                 7.4550                11.5154

                     25                     26                     27
                      A                      A                      A
 Frequencies --    797.3637               813.5323               853.0603
 Red. masses --      2.3290                 1.8503                 1.6826
 Frc consts  --      0.8724                 0.7215                 0.7214
 IR Inten    --      0.9753                 3.1518                 2.7958

                     28                     29                     30
                      A                      A                      A
 Frequencies --    892.3552               906.0842               929.2589
 Red. masses --      1.7776                 2.0667                 1.6901
 Frc consts  --      0.8340                 0.9997                 0.8599
 IR Inten    --      9.7139                10.9256                 5.0268

                     31                     32                     33
                      A                      A                      A
 Frequencies --    944.1941               949.3401               961.8395
 Red. masses --      1.2231                 1.6822                 1.9419
 Frc consts  --      0.6425                 0.8932                 1.0585
 IR Inten    --      1.8521                11.2276                 1.4803

                     34                     35                     36
                      A                      A                      A
 Frequencies --    976.2394               980.6186               995.7061
 Red. masses --      1.5507                 1.5310                 2.2006
 Frc consts  --      0.8707                 0.8674                 1.2855
 IR Inten    --      2.9777                 0.3769                 0.7047

                     37                     38                     39
                      A                      A                      A
 Frequencies --   1032.3339              1042.6557              1067.1787
 Red. masses --      1.8387                 1.7978                 2.0729
 Frc consts  --      1.1545                 1.1516                 1.3909
 IR Inten    --      1.7118                 3.8358                 2.6613

                     40                     41                     42
                      A                      A                      A
 Frequencies --   1124.7584              1138.2846              1150.3108
 Red. masses --      1.6200                 1.9703                 2.2078
 Frc consts  --      1.2075                 1.5041                 1.7212
 IR Inten    --      2.8919                 0.2290                 0.2022

                     43                     44                     45
                      A                      A                      A
 Frequencies --   1174.8877              1186.2312              1206.3729
 Red. masses --      1.7252                 1.9205                 1.7324
 Frc consts  --      1.4031                 1.5923                 1.4855
 IR Inten    --      7.7714                 3.5258                 8.3447

                     46                     47                     48
                      A                      A                      A
 Frequencies --   1224.5856              1262.5671              1270.4350
 Red. masses --      1.7590                 1.5832                 1.3412
 Frc consts  --      1.5541                 1.4869                 1.2754
 IR Inten    --      2.7705                 3.0234                 2.5447

                     49                     50                     51
                      A                      A                      A
 Frequencies --   1285.3409              1313.8263              1333.3698
 Red. masses --      1.6780                 1.5098                 1.3172
 Frc consts  --      1.6333                 1.5354                 1.3797
 IR Inten    --      3.9358                 0.4266                 3.2482

                     52                     53                     54
                      A                      A                      A
 Frequencies --   1361.3395              1367.3610              1386.0304
 Red. masses --      1.4118                 1.4325                 1.3854
 Frc consts  --      1.5416                 1.5780                 1.5681
 IR Inten    --      0.9441                 3.0556                 2.6258

                     55                     56                     57
                      A                      A                      A
 Frequencies --   1397.3572              1402.7063              1420.9371
 Red. masses --      1.4392                 1.7169                 1.6873
 Frc consts  --      1.6557                 1.9903                 2.0072
 IR Inten    --      2.8193                 4.3126                 1.0897

                     58                     59                     60
                      A                      A                      A
 Frequencies --   1429.5588              1430.1005              1444.1474
 Red. masses --      1.2334                 1.2845                 1.2382
 Frc consts  --      1.4851                 1.5478                 1.5215
 IR Inten    --     10.2373                 4.6875                 2.5807

                     61                     62                     63
                      A                      A                      A
 Frequencies --   1448.8630              1504.3656              1507.8949
 Red. masses --      1.2369                 1.0842                 1.0925
 Frc consts  --      1.5298                 1.4457                 1.4636
 IR Inten    --      3.9729                 0.4287                 0.4062

                     64                     65                     66
                      A                      A                      A
 Frequencies --   1509.5514              1517.1044              1518.5096
 Red. masses --      1.0761                 1.0707                 1.0473
 Frc consts  --      1.4448                 1.4520                 1.4228
 IR Inten    --      3.9627                 1.4554                 1.8584

                     67                     68                     69
                      A                      A                      A
 Frequencies --   1524.8860              1532.7036              1534.1364
 Red. masses --      1.0587                 1.0791                 1.0504
 Frc consts  --      1.4504                 1.4936                 1.4566
 IR Inten    --      2.9142                 6.8234                 7.7509

                     70                     71                     72
                      A                      A                      A
 Frequencies --   1538.6000              1539.7284              1747.7024
 Red. masses --      1.0540                 1.0517                 6.8280
 Frc consts  --      1.4700                 1.4690                12.2879
 IR Inten    --      2.4544                 7.9977                 2.2544

                     73                     74                     75
                      A                      A                      A
 Frequencies --   1829.6931              2869.9539              3005.3767
 Red. masses --     10.6918                 1.0826                 1.0669
 Frc consts  --     21.0892                 5.2538                 5.6777
 IR Inten    --    171.3311               132.5098                32.0223

                     76                     77                     78
                      A                      A                      A
 Frequencies --   3008.4596              3013.7799              3022.1858
 Red. masses --      1.0674                 1.0662                 1.0829
 Frc consts  --      5.6921                 5.7055                 5.8273
 IR Inten    --      6.0597                55.4929                 9.9974

                     79                     80                     81
                      A                      A                      A
 Frequencies --   3036.8445              3042.2860              3046.6451
 Red. masses --      1.0362                 1.0392                 1.0789
 Frc consts  --      5.6303                 5.6668                 5.9003
 IR Inten    --     33.4047                26.7986                 9.5664

                     82                     83                     84
                      A                      A                      A
 Frequencies --   3050.6449              3056.4291              3062.2318
 Red. masses --      1.0510                 1.0776                 1.0960
 Frc consts  --      5.7629                 5.9309                 6.0553
 IR Inten    --     45.2672                16.1858                26.3248

                     85                     86                     87
                      A                      A                      A
 Frequencies --   3069.4298              3100.0834              3103.9949
 Red. masses --      1.0742                 1.1007                 1.1035
 Frc consts  --      5.9627                 6.2327                 6.2641
 IR Inten    --     35.5839                 9.6705                26.4433

                     88                     89                     90
                      A                      A                      A
 Frequencies --   3106.1593              3111.3498              3112.6734
 Red. masses --      1.1005                 1.1019                 1.1012
 Frc consts  --      6.2561                 6.2849                 6.2859
 IR Inten    --     57.6031                49.8745                27.5722

                     91                     92                     93
                      A                      A                      A
 Frequencies --   3125.9222              3137.7378              3152.8405
 Red. masses --      1.1011                 1.1011                 1.0892
 Frc consts  --      6.3394                 6.3871                 6.3793
 IR Inten    --     35.0631                16.6932                28.9636

 - Thermochemistry -
 -------------------
 Temperature   298.150 Kelvin.  Pressure   1.00000 Atm.
 Atom     1 has atomic number  6 and mass  12.00000

 Molecular mass:   180.15142 amu.
 Principal axes and moments of inertia in atomic units:
                           1         2         3
     Eigenvalues --   977.522714991.375595091.01251
           X            0.99986   0.01627  -0.00333
           Y           -0.01581   0.99382   0.10985
           Z            0.00510  -0.10978   0.99394
 This molecule is an asymmetric top.
 Rotational symmetry number  1.
 Warning -- assumption of classical behavior for rotation
           may cause significant error
 Rotational temperatures (Kelvin)      0.08861     0.01735     0.01701
 Rotational constants (GHZ):           1.84624     0.36157     0.35450
 Zero-point vibrational energy     782362.4 (Joules/Mol)
                                  186.98910 (Kcal/Mol)
 Warning -- explicit consideration of  22 degrees of freedom as
           vibrations may cause significant error
 Vibrational temperatures:     46.43    64.47   107.59   115.50   201.47
          (Kelvin)            271.69   296.56   329.77   355.75   369.49
                              383.51   397.55   479.28   491.62   508.37
                              565.84   576.83   606.15   637.37   746.17
                              774.65   891.11  1030.94  1060.32  1147.23
                             1170.49  1227.36  1283.90  1303.65  1337.00
                             1358.48  1365.89  1383.87  1404.59  1410.89
                             1432.60  1485.30  1500.15  1535.43  1618.28
                             1637.74  1655.04  1690.40  1706.72  1735.70
                             1761.91  1816.55  1827.87  1849.32  1890.30
                             1918.42  1958.66  1967.33  1994.19  2010.49
                             2018.18  2044.41  2056.82  2057.60  2077.81
                             2084.59  2164.45  2169.52  2171.91  2182.77
                             2184.80  2193.97  2205.22  2207.28  2213.70
                             2215.33  2514.55  2632.52  4129.22  4324.07
                             4328.50  4336.16  4348.25  4369.34  4377.17
                             4383.44  4389.20  4397.52  4405.87  4416.22
                             4460.33  4465.96  4469.07  4476.54  4478.44
                             4497.50  4514.50  4536.23

 Zero-point correction=                           0.297986 (Hartree/Particle)
 Thermal correction to Energy=                    0.312365
 Thermal correction to Enthalpy=                  0.313309
 Thermal correction to Gibbs Free Energy=         0.256620
 Sum of electronic and zero-point Energies=           -544.299198
 Sum of electronic and thermal Energies=              -544.284819
 Sum of electronic and thermal Enthalpies=            -544.283875
 Sum of electronic and thermal Free Energies=         -544.340564

                     E (Thermal)             CV                S
                      KCal/Mol        Cal/Mol-Kelvin    Cal/Mol-Kelvin
 Total                  196.012             54.563            119.311
 Electronic               0.000              0.000              0.000
 Translational            0.889              2.981             41.473
 Rotational               0.889              2.981             31.585
 Vibrational            194.234             48.602             46.253
 Vibration     1          0.594              1.983              5.685
 Vibration     2          0.595              1.979              5.034
 Vibration     3          0.599              1.966              4.023
 Vibration     4          0.600              1.963              3.884
 Vibration     5          0.615              1.913              2.803
 Vibration     6          0.633              1.855              2.239
 Vibration     7          0.641              1.831              2.078
 Vibration     8          0.652              1.796              1.885
 Vibration     9          0.661              1.767              1.750
 Vibration    10          0.666              1.751              1.683
 Vibration    11          0.672              1.734              1.618
 Vibration    12          0.678              1.717              1.556
 Vibration    13          0.715              1.609              1.245
 Vibration    14          0.721              1.592              1.204
 Vibration    15          0.730              1.568              1.151
 Vibration    16          0.760              1.485              0.988
 Vibration    17          0.767              1.468              0.959
 Vibration    18          0.784              1.424              0.888
 Vibration    19          0.803              1.376              0.817
 Vibration    20          0.874              1.209              0.613
 Vibration    21          0.893              1.165              0.569
 Vibration    22          0.979              0.991              0.418

 Optimization completed.
    -- Stationary point found.
 Normal termination of Gaussian 16 at Sun Dec 13 16:07:17 2020.

 ----------------------------------------------------------------------
 # B3LYP/6-311++G(d,p) empiricaldispersion=gd3bj scf=xqc pop=npa geom=c
 heck
 ----------------------------------------------------------------------

 ---------------------------------------
 CID_124561923_JID_3856_Energie_neutraal
 ---------------------------------------
 Structure from the checkpoint file:  "JID_3856.chk"
 Charge =  0 Multiplicity = 1

 SCF Done:  E(RB3LYP) =  -544.749035425     A.U. after   14 cycles
 Normal termination of Gaussian 16 at Sun Dec 13 16:10:42 2020.

 ----------------------------------------------------------------------
 # B3LYP/6-311++G(d,p) empiricaldispersion=gd3bj scf=xqc pop=npa geom=c
 heck
 ----------------------------------------------------------------------

 -------------------------------------
 CID_124561923_JID_3856_Energie_kation
 -------------------------------------
 Structure from the checkpoint file:  "JID_3856.chk"
 Charge =  1 Multiplicity = 2

 SCF Done:  E(UB3LYP) =  -544.436379363     A.U. after   22 cycles
 Normal termination of Gaussian 16 at Sun Dec 13 16:17:46 2020.
 Gaussian 16:  ES64L-G16RevA.03 25-Dec-2016

 ----------------------------------------------------------------------
 # B3LYP/6-311++G(d,p) empiricaldispersion=gd3bj scf=xqc pop=npa geom=c
 heck
 ----------------------------------------------------------------------

 ------------------------------------
 CID_124561923_JID_3856_Energie_anion
 ------------------------------------
 Structure from the checkpoint file:  "JID_3856.chk"
 Charge = -1 Multiplicity = 2

                         Standard orientation:
 ---------------------------------------------------------------------
 Center     Atomic      Atomic             Coordinates (Angstroms)
 Number     Number       Type             X           Y           Z
 ---------------------------------------------------------------------
      1          6           0        3.019334    1.510210    0.560903
      2          6           0        3.122611    0.277650   -0.342954
      3          6           0        4.564689   -0.237046   -0.412794
      4          6           0        2.177273   -0.851331    0.129699
      5          6           0        0.714738   -0.480580    0.151406
      6          6           0        0.042112   -0.333033    1.300286
      7          6           0       -1.417704    0.028766    1.404048
      8          6           0       -2.170861   -0.191153    0.067161
      9          6           0       -1.332098    0.387209   -1.079904
     10          6           0        0.033927   -0.298057   -1.186518
     11          6           0       -2.463430   -1.692663   -0.128623
     12          6           0       -3.505409    0.523067    0.174251
     13          8           0       -3.886122    1.418005   -0.547234
     14          1           0        3.312294    1.260270    1.589198
     15          1           0        1.996328    1.897713    0.594246
     16          1           0        3.679807    2.311616    0.210729
     17          1           0        2.822768    0.573285   -1.358490
     18          1           0        4.915067   -0.547244    0.580106
     19          1           0        4.649170   -1.101567   -1.081825
     20          1           0        5.245672    0.540375   -0.777672
     21          1           0        2.320727   -1.718981   -0.532153
     22          1           0        2.490529   -1.167588    1.133752
     23          1           0        0.569971   -0.473238    2.243013
     24          1           0       -1.511608    1.081157    1.715091
     25          1           0       -1.893102   -0.559997    2.200654
     26          1           0       -1.881174    0.303024   -2.023551
     27          1           0       -1.193239    1.459577   -0.899879
     28          1           0       -0.065729   -1.283083   -1.668576
     29          1           0        0.679470    0.283803   -1.856578
     30          1           0       -2.886833   -1.885101   -1.120604
     31          1           0       -1.546007   -2.278281   -0.022427
     32          1           0       -3.176253   -2.054814    0.621990
     33          1           0       -4.149980    0.156808    1.009085
 ---------------------------------------------------------------------

 SCF Done:  E(UB3LYP) =  -544.737486780     A.U. after   33 cycles
 SCF Done:  E(UB3LYP) =  -544.737486780     a.u. after    1 cycles

 The electronic state is 2-A.
 Alpha  occ. eigenvalues --  -19.00171 -10.13212 -10.08233 -10.07526 -10.07517
 Alpha  occ. eigenvalues --  -10.06975 -10.06634 -10.06368 -10.06119 -10.06022
 Alpha  occ. eigenvalues --  -10.05905 -10.05866 -10.05631  -0.93346  -0.75012
 Alpha  occ. eigenvalues --   -0.71383  -0.67239  -0.64384  -0.60286  -0.58527
 Alpha  occ. eigenvalues --   -0.56446  -0.52545  -0.51746  -0.46268  -0.44437
 Alpha  occ. eigenvalues --   -0.39621  -0.38835  -0.36454  -0.35876  -0.34857
 Alpha  occ. eigenvalues --   -0.33800  -0.32986  -0.32720  -0.31871  -0.30715
 Alpha  occ. eigenvalues --   -0.29260  -0.28576  -0.28421  -0.27627  -0.26889
 Alpha  occ. eigenvalues --   -0.26223  -0.25613  -0.24457  -0.23512  -0.22822
 Alpha  occ. eigenvalues --   -0.22287  -0.21637  -0.20515  -0.14146  -0.13623
 Alpha  occ. eigenvalues --    0.04483
 Alpha virt. eigenvalues --    0.06306   0.07254   0.07657   0.08008   0.08621
 Alpha virt. eigenvalues --    0.09453   0.09821   0.10099   0.10674   0.10911
 Alpha virt. eigenvalues --    0.11187   0.11918   0.12208   0.12331   0.13045

  Beta  occ. eigenvalues --  -18.99980 -10.13033 -10.08248 -10.07518 -10.07507
  Beta  occ. eigenvalues --  -10.06975 -10.06617 -10.06348 -10.06111 -10.06000
  Beta  occ. eigenvalues --  -10.05875 -10.05805 -10.05608  -0.92982  -0.74973
  Beta  occ. eigenvalues --   -0.71343  -0.67181  -0.64352  -0.60216  -0.58474
  Beta  occ. eigenvalues --   -0.56344  -0.52509  -0.51470  -0.46190  -0.44292
  Beta  occ. eigenvalues --   -0.39553  -0.38752  -0.36402  -0.35780  -0.34820
  Beta  occ. eigenvalues --   -0.33737  -0.32821  -0.32594  -0.31809  -0.30552
  Beta  occ. eigenvalues --   -0.29216  -0.28535  -0.28391  -0.27508  -0.26445
  Beta  occ. eigenvalues --   -0.26184  -0.25315  -0.24321  -0.23467  -0.22781
  Beta  occ. eigenvalues --   -0.22213  -0.21600  -0.20465  -0.14002  -0.13587
  Beta virt. eigenvalues --    0.06623   0.07422   0.08014   0.08371   0.08709
  Beta virt. eigenvalues --    0.08991   0.09922   0.10151   0.10358   0.10875
  Beta virt. eigenvalues --    0.11160   0.11382   0.12129   0.12529   0.12601

 Mulliken charges and spin densities:
               1          2
     1  C    0.049861  -0.766397
     2  C   -1.620552   2.268752
     3  C    1.250896  -2.025874
     4  C    2.465145  -3.995299
     5  C    0.237951   1.589956
     6  C   -1.020522   0.753878
     7  C   -0.257983  -0.837246
     8  C   -0.277730   1.431077
     9  C   -0.273378  -0.567795
    10  C   -0.267681  -0.184647
    11  C    0.827096  -1.556902
    12  C   -0.513749   0.441624
    13  O   -0.264876   0.051764
    14  H   -0.119023   0.269775
    15  H    0.188558  -0.060831
    16  H   -0.100282   0.234129
    17  H   -0.017210   0.160282
    18  H   -0.056463   0.183859
    19  H   -0.293655   0.429466
    20  H   -0.187504   0.320329
    21  H   -0.063166   0.208313
    22  H    0.011104   0.173308
    23  H   -0.414889   0.581724
    24  H    0.131352   0.055244
    25  H    0.076124   0.085889
    26  H    0.146199   0.045638
    27  H    0.085427   0.106868
    28  H   -0.096349   0.286631
    29  H    0.027047   0.132902
    30  H   -0.108376   0.261456
    31  H   -0.329230   0.508328
    32  H   -0.212370   0.354287
    33  H   -0.001774   0.059512
 Sum of Mulliken charges =  -1.00000   1.00000

 Dipole moment (field-independent basis, Debye):
    X=             -0.9847    Y=              1.8335    Z=              0.8249  Tot=              2.2387
 Quadrupole moment (field-independent basis, Debye-Ang):
   XX=           -169.2397   YY=           -123.6058   ZZ=           -111.2488
   XY=              2.4789   XZ=             -3.5366   YZ=              1.3803

 Summary of Natural Population Analysis:

                                       Natural Population
                Natural  -----------------------------------------------
    Atom  No    Charge         Core      Valence    Rydberg      Total
 -----------------------------------------------------------------------
      C    1   -0.28496      0.99965     2.28033    0.00499     3.28496
      C    2   -0.11215      0.99961     2.10254    0.01000     3.11215
      C    3   -0.28039      0.99965     2.27575    0.00499     3.28039
      C    4   -0.19722      0.99957     2.18684    0.01081     3.19722
      C    5   -0.00219      0.99948     1.99113    0.01158     3.00219
      C    6   -0.09674      0.99944     2.08762    0.00968     3.09674
      C    7   -0.19748      0.99958     2.18757    0.01034     3.19748
      C    8   -0.08716      0.99955     2.07589    0.01172     3.08716
      C    9   -0.18514      0.99960     2.17560    0.00994     3.18514
      C   10   -0.20599      0.99958     2.19726    0.00914     3.20599
      C   11   -0.28565      0.99963     2.27836    0.00767     3.28565
      C   12    0.25763      0.99965     1.72116    0.02156     2.74237
      O   13   -0.26644      0.99988     3.26013    0.00643     4.26644
      H   14    0.09586      0.00000     0.40307    0.00107     0.40414
      H   15    0.10308      0.00000     0.39590    0.00101     0.39692
      H   16    0.09708      0.00000     0.40201    0.00091     0.40292
      H   17    0.09039      0.00000     0.40760    0.00201     0.40961
      H   18    0.09567      0.00000     0.40309    0.00124     0.40433
      H   19    0.09931      0.00000     0.39937    0.00132     0.40069
      H   20    0.09778      0.00000     0.40110    0.00111     0.40222
      H   21    0.10240      0.00000     0.39599    0.00161     0.39760
      H   22    0.09903      0.00000     0.39923    0.00174     0.40097
      H   23    0.09618      0.00000     0.40265    0.00118     0.40382
      H   24    0.10274      0.00000     0.39606    0.00120     0.39726
      H   25    0.10203      0.00000     0.39671    0.00126     0.39797
      H   26    0.10463      0.00000     0.39437    0.00100     0.39537
      H   27    0.10174      0.00000     0.39708    0.00118     0.39826
      H   28    0.10366      0.00000     0.39496    0.00139     0.39634
      H   29    0.10205      0.00000     0.39665    0.00129     0.39795
      H   30    0.10107      0.00000     0.39787    0.00106     0.39893
      H   31    0.10930      0.00000     0.38867    0.00203     0.39070
      H   32    0.09999      0.00000     0.39885    0.00115     0.40001
      H   33    0.03989      0.00000     0.45759    0.00252     0.46011
 =======================================================================
   * Total *    0.00000     12.99487    36.84900    0.15613    50.00000

 Normal termination of Gaussian 16 at Sun Dec 13 16:29:09 2020.
