 Gaussian 16, Revision A.03,

 -----------------------------------------------------------
 # opt freq B3LYP/6-31G(d) empiricaldispersion=gd3bj scf=xqc
 -----------------------------------------------------------

 -------------------------------
 CID_152305222_JID_9055_neutraal
 -------------------------------
 Symbolic Z-matrix:
 Charge =  0 Multiplicity = 1

 SCF Done:  E(RB3LYP) =  -907.690141759     A.U. after   16 cycles
 SCF Done:  E(RB3LYP) =  -907.693507918     A.U. after   15 cycles
 SCF Done:  E(RB3LYP) =  -907.695220522     A.U. after   13 cycles
 SCF Done:  E(RB3LYP) =  -907.695878120     A.U. after   15 cycles
 SCF Done:  E(RB3LYP) =  -907.697305370     A.U. after   16 cycles
 SCF Done:  E(RB3LYP) =  -907.696411069     A.U. after   16 cycles
 SCF Done:  E(RB3LYP) =  -907.697255825     A.U. after   15 cycles
 SCF Done:  E(RB3LYP) =  -907.698642958     A.U. after   12 cycles
 SCF Done:  E(RB3LYP) =  -907.699439247     A.U. after   15 cycles
 SCF Done:  E(RB3LYP) =  -907.700063030     A.U. after   13 cycles
 SCF Done:  E(RB3LYP) =  -907.701137851     A.U. after    9 cycles
 SCF Done:  E(RB3LYP) =  -907.701138325     A.U. after    9 cycles
 SCF Done:  E(RB3LYP) =  -907.701138695     A.U. after    8 cycles
 SCF Done:  E(RB3LYP) =  -907.701138822     A.U. after    8 cycles
 SCF Done:  E(RB3LYP) =  -907.701138858     A.U. after    8 cycles
 Optimization completed.
    -- Stationary point found.
 Normal termination of Gaussian 16 at Mon Dec 14 17:11:37 2020.

 --------------------------------------------------------------------
 #N Geom=AllCheck Guess=TCheck SCRF=Check GenChk RB3LYP/6-31G(d) Freq
 --------------------------------------------------------------------

 Structure from the checkpoint file:  "JID_9055.chk"
 -------------------------------
 CID_152305222_JID_9055_neutraal
 -------------------------------
 Charge =  0 Multiplicity = 1

 SCF Done:  E(RB3LYP) =  -907.701138858     A.U. after    1 cycles

  Exact polarizability: 206.803  21.712 132.431  -4.976   2.364 125.526
 Approx polarizability: 271.637  51.591 217.655  -3.905  12.607 217.322

                      1                      2                      3
                      A                      A                      A
 Frequencies --     18.9551                33.2897                36.2394
 Red. masses --      4.8474                 5.5699                 5.3952
 Frc consts  --      0.0010                 0.0036                 0.0042
 IR Inten    --      1.1877                 1.2921                 0.8231

                      4                      5                      6
                      A                      A                      A
 Frequencies --     45.6609                66.8828                78.1555
 Red. masses --      6.5995                 7.1221                 5.9529
 Frc consts  --      0.0081                 0.0188                 0.0214
 IR Inten    --      0.4788                 0.1562                 1.3805

                      7                      8                      9
                      A                      A                      A
 Frequencies --     89.2111               111.1443               116.5847
 Red. masses --      5.8351                 4.5209                 4.7151
 Frc consts  --      0.0274                 0.0329                 0.0378
 IR Inten    --      1.3764                 1.6928                 2.5980

                     10                     11                     12
                      A                      A                      A
 Frequencies --    159.0664               224.2324               238.7756
 Red. masses --      5.3852                 5.0807                 1.9757
 Frc consts  --      0.0803                 0.1505                 0.0664
 IR Inten    --      2.7295                 2.5902                 0.8810

                     13                     14                     15
                      A                      A                      A
 Frequencies --    256.4825               295.6502               326.3016
 Red. masses --      4.3238                 2.5626                 2.6505
 Frc consts  --      0.1676                 0.1320                 0.1663
 IR Inten    --      1.7463                 5.5446                 1.1086

                     16                     17                     18
                      A                      A                      A
 Frequencies --    334.9309               356.8252               392.0879
 Red. masses --      5.4658                 4.1391                 4.3008
 Frc consts  --      0.3613                 0.3105                 0.3896
 IR Inten    --      2.7906                 4.4937                 3.3846

                     19                     20                     21
                      A                      A                      A
 Frequencies --    439.6819               483.9005               499.0419
 Red. masses --      2.3356                 3.5413                 2.8939
 Frc consts  --      0.2660                 0.4886                 0.4246
 IR Inten    --      1.6171                 8.6781                 2.0004

                     22                     23                     24
                      A                      A                      A
 Frequencies --    512.9983               546.5228               564.9579
 Red. masses --      2.8022                 4.7290                13.1520
 Frc consts  --      0.4345                 0.8322                 2.4733
 IR Inten    --      6.7244                10.3773                 9.7732

                     25                     26                     27
                      A                      A                      A
 Frequencies --    593.9990               633.0688               649.2934
 Red. masses --      3.1044                 3.4329                 4.0626
 Frc consts  --      0.6453                 0.8106                 1.0091
 IR Inten    --      5.9304                 6.8420                 2.5159

                     28                     29                     30
                      A                      A                      A
 Frequencies --    675.2511               682.9508               749.8263
 Red. masses --      4.7327                 7.3719                 1.1975
 Frc consts  --      1.2714                 2.0259                 0.3967
 IR Inten    --     11.0461                 1.5154                46.1164

                     31                     32                     33
                      A                      A                      A
 Frequencies --    798.6664               819.2003               821.8007
 Red. masses --      3.4021                 2.8692                 1.2677
 Frc consts  --      1.2786                 1.1345                 0.5044
 IR Inten    --      4.0564                15.3291                 1.9618

                     34                     35                     36
                      A                      A                      A
 Frequencies --    830.4052               849.3580               881.2320
 Red. masses --      1.4485                 3.4535                 1.2932
 Frc consts  --      0.5885                 1.4679                 0.5917
 IR Inten    --      1.3570                12.4849                 3.0409

                     37                     38                     39
                      A                      A                      A
 Frequencies --    891.3034               896.2077               939.6999
 Red. masses --      3.0510                 4.3909                 3.0319
 Frc consts  --      1.4280                 2.0779                 1.5774
 IR Inten    --      4.0264                 4.7791                 3.8514

                     40                     41                     42
                      A                      A                      A
 Frequencies --    943.8267               961.3694               979.1158
 Red. masses --      4.9327                 1.8747                 3.0288
 Frc consts  --      2.5889                 1.0208                 1.7108
 IR Inten    --      7.5096                12.4144                45.2316

                     43                     44                     45
                      A                      A                      A
 Frequencies --    991.9051              1017.9458              1023.9553
 Red. masses --      2.6674                 2.5400                 1.5467
 Frc consts  --      1.5463                 1.5507                 0.9555
 IR Inten    --     36.6113                36.3886                 3.6175

                     46                     47                     48
                      A                      A                      A
 Frequencies --   1047.7293              1051.0610              1072.3405
 Red. masses --      2.0574                 2.2507                 1.4468
 Frc consts  --      1.3306                 1.4649                 0.9802
 IR Inten    --      0.4906                12.2999                33.5836

                     49                     50                     51
                      A                      A                      A
 Frequencies --   1084.4300              1117.9789              1123.3879
 Red. masses --      2.5029                 2.9025                 1.8158
 Frc consts  --      1.7342                 2.1374                 1.3501
 IR Inten    --     26.4381                 0.5570                24.0043

                     52                     53                     54
                      A                      A                      A
 Frequencies --   1151.0556              1170.4047              1208.5099
 Red. masses --      2.1303                 1.6764                 1.7375
 Frc consts  --      1.6630                 1.3530                 1.4951
 IR Inten    --      9.2571                 5.7824                47.4797

                     55                     56                     57
                      A                      A                      A
 Frequencies --   1213.6830              1231.1828              1262.7704
 Red. masses --      1.9836                 1.5610                 1.3962
 Frc consts  --      1.7216                 1.3941                 1.3118
 IR Inten    --    115.5877                 0.1677                33.4114

                     58                     59                     60
                      A                      A                      A
 Frequencies --   1273.4245              1276.8692              1298.8241
 Red. masses --      1.6802                 2.1940                 1.6553
 Frc consts  --      1.6053                 2.1076                 1.6452
 IR Inten    --    107.0377                 8.1688                12.9503

                     61                     62                     63
                      A                      A                      A
 Frequencies --   1311.1802              1322.4566              1339.1241
 Red. masses --      1.4060                 1.5578                 2.6548
 Frc consts  --      1.4242                 1.6052                 2.8049
 IR Inten    --      0.2846                 4.3361                21.6838

                     64                     65                     66
                      A                      A                      A
 Frequencies --   1346.0139              1364.1135              1385.7280
 Red. masses --      1.3404                 3.4790                 1.3738
 Frc consts  --      1.4308                 3.8142                 1.5543
 IR Inten    --      1.7945               100.4966                 0.6743

                     67                     68                     69
                      A                      A                      A
 Frequencies --   1388.3795              1392.9146              1396.4418
 Red. masses --      1.6366                 1.4169                 1.6808
 Frc consts  --      1.8586                 1.6197                 1.9311
 IR Inten    --      4.8400                 0.5599                37.6485

                     70                     71                     72
                      A                      A                      A
 Frequencies --   1405.5312              1426.2551              1432.6967
 Red. masses --      1.3211                 1.4381                 2.1418
 Frc consts  --      1.5376                 1.7236                 2.5903
 IR Inten    --     27.3160                24.0979                 4.5821

                     73                     74                     75
                      A                      A                      A
 Frequencies --   1449.4008              1482.7526              1494.8506
 Red. masses --      2.8682                 1.0833                 2.9815
 Frc consts  --      3.5500                 1.4033                 3.9253
 IR Inten    --     29.0022                 3.8559                29.6925

                     76                     77                     78
                      A                      A                      A
 Frequencies --   1507.6151              1518.5427              1525.8988
 Red. masses --      1.0866                 1.0834                 1.1253
 Frc consts  --      1.4552                 1.4720                 1.5438
 IR Inten    --      3.2341                10.6431                 4.2979

                     79                     80                     81
                      A                      A                      A
 Frequencies --   1530.4788              1549.7039              1569.6476
 Red. masses --      1.0925                 1.1031                 4.0596
 Frc consts  --      1.5078                 1.5608                 5.8931
 IR Inten    --      0.5065                 7.4591                21.9873

                     82                     83                     84
                      A                      A                      A
 Frequencies --   1854.5697              2268.2056              2964.5439
 Red. masses --     12.2267                13.6393                 1.0733
 Frc consts  --     24.7768                41.3435                 5.5577
 IR Inten    --    228.1102               459.5783                22.7426

                     85                     86                     87
                      A                      A                      A
 Frequencies --   2973.9086              3055.5428              3057.3330
 Red. masses --      1.0720                 1.0682                 1.0845
 Frc consts  --      5.5859                 5.8761                 5.9724
 IR Inten    --     74.0607                 7.1648                17.7733

                     88                     89                     90
                      A                      A                      A
 Frequencies --   3077.8261              3078.4785              3079.4722
 Red. masses --      1.0620                 1.0583                 1.0630
 Frc consts  --      5.9271                 5.9095                 5.9390
 IR Inten    --     24.2927                34.8050                 9.4875

                     91                     92                     93
                      A                      A                      A
 Frequencies --   3124.1542              3130.0158              3134.0747
 Red. masses --      1.1057                 1.1026                 1.1008
 Frc consts  --      6.3582                 6.3644                 6.3705
 IR Inten    --      9.0261                11.5671                 9.5760

                     94                     95                     96
                      A                      A                      A
 Frequencies --   3139.7594              3139.9207              3140.9231
 Red. masses --      1.0947                 1.0942                 1.0926
 Frc consts  --      6.3583                 6.3559                 6.3507
 IR Inten    --     11.9406                 7.3130                 9.3552

                     97                     98                     99
                      A                      A                      A
 Frequencies --   3256.6519              3268.6140              3288.5090
 Red. masses --      1.0928                 1.0932                 1.1059
 Frc consts  --      6.8284                 6.8816                 7.0462
 IR Inten    --      6.5357                 4.0852                 3.2258

 - Thermochemistry -
 -------------------
 Temperature   298.150 Kelvin.  Pressure   1.00000 Atm.
 Atom     1 has atomic number  6 and mass  12.00000

 Molecular mass:   264.13347 amu.
 Principal axes and moments of inertia in atomic units:
                           1         2         3
     Eigenvalues --  1874.55777********************
           X            0.99997   0.00700  -0.00323
           Y           -0.00702   0.99995  -0.00670
           Z            0.00318   0.00672   0.99997
 This molecule is an asymmetric top.
 Rotational symmetry number  1.
 Warning -- assumption of classical behavior for rotation
           may cause significant error
 Rotational temperatures (Kelvin)      0.04620     0.00767     0.00703
 Rotational constants (GHZ):           0.96276     0.15975     0.14647
 Zero-point vibrational energy     751337.6 (Joules/Mol)
                                  179.57400 (Kcal/Mol)
 Warning -- explicit consideration of  25 degrees of freedom as
           vibrations may cause significant error
 Vibrational temperatures:     27.27    47.90    52.14    65.70    96.23
          (Kelvin)            112.45   128.35   159.91   167.74   228.86
                              322.62   343.54   369.02   425.37   469.48
                              481.89   513.39   564.13   632.60   696.22
                              718.01   738.09   786.32   812.85   854.63
                              910.84   934.19   971.54   982.61  1078.83
                             1149.10  1178.65  1182.39  1194.77  1222.04
                             1267.90  1282.39  1289.44  1352.02  1357.96
                             1383.20  1408.73  1427.13  1464.60  1473.24
                             1507.45  1512.24  1542.86  1560.25  1608.52
                             1616.30  1656.11  1683.95  1738.78  1746.22
                             1771.40  1816.84  1832.17  1837.13  1868.72
                             1886.50  1902.72  1926.70  1936.61  1962.66
                             1993.75  1997.57  2004.09  2009.17  2022.25
                             2052.06  2061.33  2085.36  2133.35  2150.76
                             2169.12  2184.84  2195.43  2202.02  2229.68
                             2258.37  2668.31  3263.44  4265.32  4278.79
                             4396.24  4398.82  4428.31  4429.24  4430.67
                             4494.96  4503.39  4509.23  4517.41  4517.65
                             4519.09  4685.60  4702.81  4731.43

 Zero-point correction=                           0.286169 (Hartree/Particle)
 Thermal correction to Energy=                    0.303572
 Thermal correction to Enthalpy=                  0.304517
 Thermal correction to Gibbs Free Energy=         0.237578
 Sum of electronic and zero-point Energies=           -907.414969
 Sum of electronic and thermal Energies=              -907.397566
 Sum of electronic and thermal Enthalpies=            -907.396622
 Sum of electronic and thermal Free Energies=         -907.463561

                     E (Thermal)             CV                S
                      KCal/Mol        Cal/Mol-Kelvin    Cal/Mol-Kelvin
 Total                  190.495             64.591            140.884
 Electronic               0.000              0.000              0.000
 Translational            0.889              2.981             42.613
 Rotational               0.889              2.981             33.922
 Vibrational            188.717             58.629             64.349
 Vibration     1          0.593              1.986              6.741
 Vibration     2          0.594              1.983              5.623
 Vibration     3          0.594              1.982              5.455
 Vibration     4          0.595              1.979              4.997
 Vibration     5          0.598              1.970              4.243
 Vibration     6          0.599              1.964              3.937
 Vibration     7          0.602              1.957              3.677
 Vibration     8          0.607              1.940              3.249
 Vibration     9          0.608              1.936              3.156
 Vibration    10          0.621              1.892              2.561
 Vibration    11          0.649              1.804              1.925
 Vibration    12          0.657              1.781              1.812
 Vibration    13          0.666              1.752              1.686
 Vibration    14          0.690              1.682              1.441
 Vibration    15          0.710              1.623              1.278
 Vibration    16          0.716              1.606              1.236
 Vibration    17          0.732              1.561              1.136
 Vibration    18          0.760              1.487              0.992
 Vibration    19          0.800              1.384              0.828
 Vibration    20          0.840              1.286              0.700
 Vibration    21          0.854              1.252              0.661
 Vibration    22          0.868              1.221              0.626
 Vibration    23          0.902              1.147              0.551
 Vibration    24          0.921              1.107              0.514
 Vibration    25          0.952              1.045              0.460

 Optimization completed.
    -- Stationary point found.
 Normal termination of Gaussian 16 at Mon Dec 14 17:28:32 2020.

 ----------------------------------------------------------------------
 # B3LYP/6-311++G(d,p) empiricaldispersion=gd3bj scf=xqc pop=npa geom=c
 heck
 ----------------------------------------------------------------------

 ---------------------------------------
 CID_152305222_JID_9055_Energie_neutraal
 ---------------------------------------
 Structure from the checkpoint file:  "JID_9055.chk"
 Charge =  0 Multiplicity = 1

 SCF Done:  E(RB3LYP) =  -907.951107326     A.U. after   15 cycles
 Normal termination of Gaussian 16 at Mon Dec 14 17:36:08 2020.

 ----------------------------------------------------------------------
 # B3LYP/6-311++G(d,p) empiricaldispersion=gd3bj scf=xqc pop=npa geom=c
 heck
 ----------------------------------------------------------------------

 -------------------------------------
 CID_152305222_JID_9055_Energie_kation
 -------------------------------------
 Structure from the checkpoint file:  "JID_9055.chk"
 Charge =  1 Multiplicity = 2

 SCF Done:  E(UB3LYP) =  -907.640072636     A.U. after   32 cycles
 Normal termination of Gaussian 16 at Mon Dec 14 17:59:32 2020.
 Gaussian 16:  ES64L-G16RevA.03 25-Dec-2016

 ----------------------------------------------------------------------
 # B3LYP/6-311++G(d,p) empiricaldispersion=gd3bj scf=xqc pop=npa geom=c
 heck
 ----------------------------------------------------------------------

 ------------------------------------
 CID_152305222_JID_9055_Energie_anion
 ------------------------------------
 Structure from the checkpoint file:  "JID_9055.chk"
 Charge = -1 Multiplicity = 2

                         Standard orientation:
 ---------------------------------------------------------------------
 Center     Atomic      Atomic             Coordinates (Angstroms)
 Number     Number       Type             X           Y           Z
 ---------------------------------------------------------------------
      1          6           0        1.356088    1.106043   -0.001330
      2          6           0       -0.109552    0.922126    0.394323
      3          7           0       -0.553743   -0.397617   -0.060290
      4          6           0        0.178378   -1.475396    0.615385
      5          6           0        1.655404   -1.377700    0.229723
      6          6           0        2.222789   -0.003769    0.606482
      7          7           0        3.614238    0.125359    0.192612
      8          6           0        4.703943    0.334206    0.978704
      9          6           0        5.799939    0.387464    0.137397
     10          6           0        5.259297    0.197444   -1.152769
     11          7           0        3.935264    0.038934   -1.118202
     12          8           0       -1.941425   -0.474067    0.386222
     13          6           0       -2.701190   -1.339158   -0.341498
     14          8           0       -2.285499   -2.076691   -1.198329
     15          6           0       -4.143261   -1.299815    0.139873
     16          6           0       -4.624327    0.052599    0.665625
     17          7           0       -4.606924    1.068774   -0.411768
     18          7           0       -3.743636    1.943018   -0.321341
     19          7           0       -3.004820    2.814330   -0.346496
     20          1           0        1.706052    2.087371    0.336354
     21          1           0        1.457504    1.070084   -1.089821
     22          1           0       -0.230771    1.026599    1.487752
     23          1           0       -0.736479    1.674656   -0.087908
     24          1           0       -0.238370   -2.424908    0.274977
     25          1           0        0.054536   -1.405586    1.710711
     26          1           0        1.767376   -1.517792   -0.849185
     27          1           0        2.219599   -2.171048    0.731740
     28          1           0        2.225636    0.098484    1.698657
     29          1           0        4.612534    0.426320    2.051611
     30          1           0        6.832228    0.540485    0.415700
     31          1           0        5.774649    0.169127   -2.103835
     32          1           0       -4.761321   -1.629147   -0.699136
     33          1           0       -4.249578   -2.049923    0.935428
     34          1           0       -5.664826   -0.037008    0.991290
     35          1           0       -4.021081    0.374498    1.519433
 ---------------------------------------------------------------------

 SCF Done:  E(UB3LYP) =  -907.948410884     A.U. after   33 cycles
 SCF Done:  E(UB3LYP) =  -907.948410884     a.u. after    1 cycles

 The electronic state is 2-A.
 Alpha  occ. eigenvalues --  -19.09682 -19.01817 -14.35659 -14.30859 -14.27979
 Alpha  occ. eigenvalues --  -14.25658 -14.24758 -14.24701 -10.20782 -10.13907
 Alpha  occ. eigenvalues --  -10.12588 -10.11917 -10.11234 -10.11127 -10.11052
 Alpha  occ. eigenvalues --  -10.09495 -10.09136 -10.09110 -10.08790  -1.03059
 Alpha  occ. eigenvalues --   -1.02300  -0.97158  -0.94308  -0.86739  -0.81927
 Alpha  occ. eigenvalues --   -0.77060  -0.71443  -0.70197  -0.68173  -0.67501
 Alpha  occ. eigenvalues --   -0.59742  -0.57138  -0.55746  -0.52876  -0.50415
 Alpha  occ. eigenvalues --   -0.48302  -0.47116  -0.45579  -0.44597  -0.42087
 Alpha  occ. eigenvalues --   -0.40638  -0.40532  -0.39194  -0.38152  -0.37848
 Alpha  occ. eigenvalues --   -0.37606  -0.37045  -0.36252  -0.35052  -0.34924
 Alpha  occ. eigenvalues --   -0.33972  -0.32893  -0.32655  -0.32172  -0.31033
 Alpha  occ. eigenvalues --   -0.30730  -0.29405  -0.28151  -0.27652  -0.27540
 Alpha  occ. eigenvalues --   -0.25982  -0.25437  -0.22647  -0.21408  -0.19650
 Alpha  occ. eigenvalues --   -0.18648  -0.17599  -0.17031  -0.15872  -0.14660
 Alpha  occ. eigenvalues --    0.03643
 Alpha virt. eigenvalues --    0.04951   0.06316   0.06792   0.07636   0.07981
 Alpha virt. eigenvalues --    0.08535   0.08658   0.09018   0.09355   0.09453
 Alpha virt. eigenvalues --    0.10323   0.10931   0.11334   0.11697   0.12020

  Beta  occ. eigenvalues --  -19.09670 -19.01792 -14.35456 -14.30860 -14.27978
  Beta  occ. eigenvalues --  -14.25367 -14.24755 -14.24753 -10.20746 -10.13892
  Beta  occ. eigenvalues --  -10.12565 -10.11824 -10.11220 -10.11127 -10.11047
  Beta  occ. eigenvalues --  -10.09477 -10.09131 -10.09108 -10.08786  -1.03016
  Beta  occ. eigenvalues --   -1.01909  -0.97151  -0.94266  -0.86535  -0.81907
  Beta  occ. eigenvalues --   -0.77046  -0.71412  -0.70114  -0.68157  -0.67472
  Beta  occ. eigenvalues --   -0.59599  -0.57069  -0.55729  -0.52859  -0.50374
  Beta  occ. eigenvalues --   -0.48260  -0.47083  -0.45538  -0.44495  -0.41862
  Beta  occ. eigenvalues --   -0.40434  -0.40319  -0.39080  -0.37932  -0.37794
  Beta  occ. eigenvalues --   -0.37397  -0.36997  -0.36138  -0.34957  -0.34773
  Beta  occ. eigenvalues --   -0.33649  -0.32730  -0.32633  -0.32138  -0.30959
  Beta  occ. eigenvalues --   -0.30668  -0.29304  -0.28025  -0.27624  -0.27450
  Beta  occ. eigenvalues --   -0.25955  -0.25405  -0.22570  -0.21399  -0.19181
  Beta  occ. eigenvalues --   -0.18617  -0.17590  -0.17025  -0.15847  -0.14567
  Beta virt. eigenvalues --    0.05877   0.06555   0.06958   0.07792   0.08014
  Beta virt. eigenvalues --    0.08413   0.08664   0.09104   0.09276   0.09703
  Beta virt. eigenvalues --    0.09746   0.10796   0.11068   0.11481   0.11843

 Mulliken charges and spin densities:
               1          2
     1  C    0.436228  -0.440766
     2  C   -0.577204   0.043130
     3  N   -0.432810   0.117963
     4  C   -0.150388  -0.467143
     5  C    0.201675  -0.180119
     6  C   -1.360724   0.046056
     7  N    0.579638   0.032797
     8  C    0.518309  -0.582513
     9  C    0.121620  -0.123612
    10  C    0.090821  -0.310873
    11  N   -0.191978   0.107575
    12  O    0.502783  -0.011101
    13  C    0.044724  -0.203338
    14  O   -0.248797   0.015289
    15  C   -0.010389  -0.200011
    16  C    0.260453  -0.642968
    17  N   -0.501905   0.059762
    18  N    0.641395  -0.013288
    19  N   -0.329084   0.219470
    20  H    0.160518   0.022757
    21  H    0.185333   0.021851
    22  H    0.001515   0.136645
    23  H    0.259553   0.005077
    24  H    0.266670  -0.047462
    25  H   -0.238916   0.392177
    26  H    0.215979  -0.005922
    27  H    0.038984   0.138890
    28  H   -0.199101   0.373246
    29  H   -0.801218   0.950675
    30  H   -0.029566   0.193516
    31  H    0.143027  -0.017512
    32  H    0.179130   0.035710
    33  H   -0.289368   0.468941
    34  H   -0.527728   0.732661
    35  H    0.040819   0.132443
 Sum of Mulliken charges =  -1.00000   1.00000

 Dipole moment (field-independent basis, Debye):
    X=              4.3310    Y=             -0.1721    Z=             -2.4393  Tot=              4.9737
 Quadrupole moment (field-independent basis, Debye-Ang):
   XX=           -212.2421   YY=           -145.5042   ZZ=           -153.2396
   XY=              0.5211   XZ=             -9.8462   YZ=              0.5723

 Summary of Natural Population Analysis:

                                       Natural Population
                Natural  -----------------------------------------------
    Atom  No    Charge         Core      Valence    Rydberg      Total
 -----------------------------------------------------------------------
      C    1   -0.19710      0.99960     2.18876    0.00875     3.19710
      C    2   -0.09451      0.99960     2.08346    0.01144     3.09451
      N    3   -0.10876      0.99968     2.59720    0.01187     3.60876
      C    4   -0.09584      0.99960     2.08471    0.01152     3.09584
      C    5   -0.19800      0.99960     2.18921    0.00920     3.19800
      C    6   -0.00283      0.99956     1.98903    0.01424     3.00283
      N    7   -0.10715      0.99964     2.59231    0.01519     3.60715
      C    8   -0.00230      0.99956     1.99132    0.01143     3.00230
      C    9   -0.17062      0.99957     2.16175    0.00930     3.17062
      C   10   -0.01780      0.99964     2.00427    0.01388     3.01780
      N   11   -0.15402      0.99973     2.64441    0.00988     3.65402
      O   12   -0.22023      0.99987     3.21070    0.00966     4.22023
      C   13    0.41518      0.99971     1.55924    0.02587     2.58482
      O   14   -0.29524      0.99986     3.28996    0.00542     4.29524
      C   15   -0.24028      0.99957     2.23123    0.00948     3.24028
      C   16   -0.09043      0.99959     2.07894    0.01190     3.09043
      N   17   -0.20487      0.99970     2.69102    0.01415     3.70487
      N   18    0.13482      0.99970     2.35038    0.01510     3.36518
      N   19   -0.02798      0.99982     2.51475    0.01341     3.52798
      H   20    0.10540      0.00000     0.39383    0.00077     0.39460
      H   21    0.11145      0.00000     0.38728    0.00127     0.38855
      H   22    0.08642      0.00000     0.41207    0.00150     0.41358
      H   23    0.11392      0.00000     0.38461    0.00147     0.38608
      H   24    0.10919      0.00000     0.38974    0.00107     0.39081
      H   25    0.08813      0.00000     0.41017    0.00170     0.41187
      H   26    0.11200      0.00000     0.38666    0.00134     0.38800
      H   27    0.10575      0.00000     0.39344    0.00081     0.39425
      H   28    0.10380      0.00000     0.39326    0.00294     0.39620
      H   29    0.10952      0.00000     0.38816    0.00231     0.39048
      H   30    0.10812      0.00000     0.39124    0.00063     0.39188
      H   31    0.09602      0.00000     0.40329    0.00070     0.40398
      H   32    0.11346      0.00000     0.38542    0.00112     0.38654
      H   33    0.11588      0.00000     0.38231    0.00181     0.38412
      H   34    0.10019      0.00000     0.39755    0.00226     0.39981
      H   35    0.09869      0.00000     0.39941    0.00190     0.40131
 =======================================================================
   * Total *    0.00000     18.99360    50.75108    0.25532    70.00000

 Normal termination of Gaussian 16 at Mon Dec 14 18:22:40 2020.
