 Gaussian 16, Revision A.03,

 -----------------------------------------------------------
 # opt freq B3LYP/6-31G(d) empiricaldispersion=gd3bj scf=xqc
 -----------------------------------------------------------

 -----------------------------
 CID_12174887_JID_992_neutraal
 -----------------------------
 Symbolic Z-matrix:
 Charge =  0 Multiplicity = 1

 SCF Done:  E(RB3LYP) =  -426.428625476     A.U. after   12 cycles
 SCF Done:  E(RB3LYP) =  -426.433523785     A.U. after   11 cycles
 SCF Done:  E(RB3LYP) =  -426.433018629     A.U. after   11 cycles
 SCF Done:  E(RB3LYP) =  -426.433879534     A.U. after   11 cycles
 SCF Done:  E(RB3LYP) =  -426.435191585     A.U. after   11 cycles
 SCF Done:  E(RB3LYP) =  -426.435658835     A.U. after   10 cycles
 SCF Done:  E(RB3LYP) =  -426.435776200     A.U. after   10 cycles
 SCF Done:  E(RB3LYP) =  -426.436009250     A.U. after   10 cycles
 SCF Done:  E(RB3LYP) =  -426.436146252     A.U. after   11 cycles
 SCF Done:  E(RB3LYP) =  -426.436209087     A.U. after   10 cycles
 SCF Done:  E(RB3LYP) =  -426.436267622     A.U. after    9 cycles
 SCF Done:  E(RB3LYP) =  -426.436293151     A.U. after    9 cycles
 SCF Done:  E(RB3LYP) =  -426.436296900     A.U. after    8 cycles
 SCF Done:  E(RB3LYP) =  -426.436316351     A.U. after   10 cycles
 SCF Done:  E(RB3LYP) =  -426.436316668     A.U. after    7 cycles
 SCF Done:  E(RB3LYP) =  -426.436316703     A.U. after    6 cycles
 Optimization completed.
    -- Stationary point found.

 1\1\GINC-NODE120\FOpt\RB3LYP\6-31G(d)\C8H20N2\VSC10255\08-Dec-2020\0\\
 # opt freq B3LYP/6-31G(d) empiricaldispersion=gd3bj scf=xqc\\CID_12174
 887_JID_992_neutraal\\0,1\C,0.9700331246,2.3648373142,-0.5859658788\C,
 0.280834332,2.4821126938,0.7778251596\C,0.9943779349,1.7191652971,1.93
 70748175\C,0.7280990743,0.2141348589,1.7368717423\C,0.4769904253,2.203
 7170685,3.3521052515\C,0.8238901973,1.15540202,4.4329469057\C,1.128655
 0764,3.5290655021,3.8336337073\C,0.9346671239,4.804567302,3.007797029\
 N,-0.9795700441,2.4379733168,3.2656523604\N,2.4630884773,1.8782981787,

 Normal termination of Gaussian 16 at Tue Dec  8 13:50:06 2020.

 --------------------------------------------------------------------
 #N Geom=AllCheck Guess=TCheck SCRF=Check GenChk RB3LYP/6-31G(d) Freq
 --------------------------------------------------------------------

 Structure from the checkpoint file:  "JID_992.chk"
 -----------------------------
 CID_12174887_JID_992_neutraal
 -----------------------------
 Charge =  0 Multiplicity = 1

 SCF Done:  E(RB3LYP) =  -426.436316703     A.U. after    1 cycles

  Exact polarizability: 105.947  -0.661  98.432   0.330   1.428  89.391
 Approx polarizability: 137.651  -3.158 132.235   1.917   2.574 135.830

                      1                      2                      3
                      A                      A                      A
 Frequencies --     71.1713               100.1875               147.7539
 Red. masses --      1.9247                 2.8429                 2.1246
 Frc consts  --      0.0057                 0.0168                 0.0273
 IR Inten    --      0.0900                 0.3115                 0.8606

                      4                      5                      6
                      A                      A                      A
 Frequencies --    202.5533               236.9350               250.8209
 Red. masses --      1.8458                 2.0986                 1.4190
 Frc consts  --      0.0446                 0.0694                 0.0526
 IR Inten    --      0.7681                 0.2728                 1.8027

                      7                      8                      9
                      A                      A                      A
 Frequencies --    256.7476               273.5254               294.1679
 Red. masses --      1.2081                 1.1037                 1.2762
 Frc consts  --      0.0469                 0.0487                 0.0651
 IR Inten    --     18.0488                11.8503                10.4889

                     10                     11                     12
                      A                      A                      A
 Frequencies --    307.9750               323.4366               331.0292
 Red. masses --      1.4962                 2.0199                 1.5373
 Frc consts  --      0.0836                 0.1245                 0.0992
 IR Inten    --      2.6933                 0.8069                22.0686

                     13                     14                     15
                      A                      A                      A
 Frequencies --    351.2703               360.2868               375.5671
 Red. masses --      2.2204                 1.5127                 2.5801
 Frc consts  --      0.1614                 0.1157                 0.2144
 IR Inten    --     21.4418                15.3393                 0.4657

                     16                     17                     18
                      A                      A                      A
 Frequencies --    400.5212               403.3026               446.2945
 Red. masses --      1.9377                 2.2462                 2.4045
 Frc consts  --      0.1831                 0.2153                 0.2822
 IR Inten    --      1.1206                 1.9172                 8.2954

                     19                     20                     21
                      A                      A                      A
 Frequencies --    493.9221               532.7114               552.8670
 Red. masses --      3.1551                 2.2381                 2.8257
 Frc consts  --      0.4535                 0.3742                 0.5089
 IR Inten    --      0.4173                 5.6618                 5.3155

                     22                     23                     24
                      A                      A                      A
 Frequencies --    669.8776               779.2917               786.6555
 Red. masses --      2.7456                 1.4626                 1.3756
 Frc consts  --      0.7259                 0.5233                 0.5016
 IR Inten    --      3.0510                11.2808                 1.7309

                     25                     26                     27
                      A                      A                      A
 Frequencies --    812.3345               883.7098               904.7376
 Red. masses --      1.6692                 1.7389                 1.9360
 Frc consts  --      0.6490                 0.8001                 0.9337
 IR Inten    --      8.1831                45.7536                79.0087

                     28                     29                     30
                      A                      A                      A
 Frequencies --    925.9274               957.7275               962.0881
 Red. masses --      1.8510                 1.3617                 1.7014
 Frc consts  --      0.9350                 0.7359                 0.9279
 IR Inten    --     61.9089                19.4341                20.4467

                     31                     32                     33
                      A                      A                      A
 Frequencies --   1007.0273              1017.9789              1025.8497
 Red. masses --      1.4155                 1.6845                 1.5747
 Frc consts  --      0.8457                 1.0285                 0.9764
 IR Inten    --     13.2000                17.5607                 4.1549

                     34                     35                     36
                      A                      A                      A
 Frequencies --   1055.8403              1066.6087              1081.1471
 Red. masses --      2.1109                 2.1921                 1.5413
 Frc consts  --      1.3865                 1.4693                 1.0615
 IR Inten    --      5.4486                 2.7624                 3.7334

                     37                     38                     39
                      A                      A                      A
 Frequencies --   1102.2849              1132.2782              1150.7581
 Red. masses --      1.4245                 1.5120                 2.1369
 Frc consts  --      1.0198                 1.1421                 1.6673
 IR Inten    --      6.4357                 6.3197                41.9078

                     40                     41                     42
                      A                      A                      A
 Frequencies --   1210.1037              1214.5285              1260.3648
 Red. masses --      2.6855                 2.4611                 2.3181
 Frc consts  --      2.3170                 2.1389                 2.1696
 IR Inten    --     11.4442                12.1775                 0.9958

                     43                     44                     45
                      A                      A                      A
 Frequencies --   1301.6541              1317.5729              1359.5206
 Red. masses --      1.6387                 1.3626                 1.4175
 Frc consts  --      1.6359                 1.3937                 1.5436
 IR Inten    --      1.8145                 3.5171                 2.1926

                     46                     47                     48
                      A                      A                      A
 Frequencies --   1382.3727              1393.1409              1401.2475
 Red. masses --      1.4039                 1.6249                 1.4050
 Frc consts  --      1.5806                 1.8581                 1.6254
 IR Inten    --      2.7564                 0.7222                 0.4227

                     49                     50                     51
                      A                      A                      A
 Frequencies --   1427.4914              1434.7071              1438.5180
 Red. masses --      1.2317                 1.2666                 1.2709
 Frc consts  --      1.4788                 1.5361                 1.5494
 IR Inten    --      6.2576                12.4094                 0.8886

                     52                     53                     54
                      A                      A                      A
 Frequencies --   1445.0119              1504.9873              1514.5796
 Red. masses --      1.2323                 1.0632                 1.0575
 Frc consts  --      1.5160                 1.4188                 1.4292
 IR Inten    --      5.3806                 2.3040                 2.7662

                     55                     56                     57
                      A                      A                      A
 Frequencies --   1522.9993              1527.9270              1533.7149
 Red. masses --      1.0699                 1.0510                 1.0475
 Frc consts  --      1.4622                 1.4456                 1.4517
 IR Inten    --      1.5026                 2.1640                 1.1538

                     58                     59                     60
                      A                      A                      A
 Frequencies --   1536.3423              1538.8552              1540.2500
 Red. masses --      1.0451                 1.0553                 1.0542
 Frc consts  --      1.4534                 1.4724                 1.4735
 IR Inten    --      3.6328                12.7713                 3.8488

                     61                     62                     63
                      A                      A                      A
 Frequencies --   1548.4635              1556.5376              1693.1621
 Red. masses --      1.0573                 1.0565                 1.0881
 Frc consts  --      1.4936                 1.5081                 1.8378
 IR Inten    --      5.0363                 2.5369                61.6266

                     64                     65                     66
                      A                      A                      A
 Frequencies --   1702.2632              3024.0229              3046.0372
 Red. masses --      1.0911                 1.0708                 1.0363
 Frc consts  --      1.8628                 5.7692                 5.6653
 IR Inten    --      7.6837                22.3241                28.9595

                     67                     68                     69
                      A                      A                      A
 Frequencies --   3048.2195              3050.7700              3060.7184
 Red. masses --      1.0382                 1.0372                 1.0388
 Frc consts  --      5.6835                 5.6877                 5.7338
 IR Inten    --     39.1639                25.3847                15.8264

                     70                     71                     72
                      A                      A                      A
 Frequencies --   3077.5444              3093.0243              3104.1225
 Red. masses --      1.0756                 1.0906                 1.0991
 Frc consts  --      6.0020                 6.1475                 6.2395
 IR Inten    --     11.6816                 9.9130                36.1268

                     73                     74                     75
                      A                      A                      A
 Frequencies --   3105.1508              3110.0959              3112.8526
 Red. masses --      1.1013                 1.0993                 1.1001
 Frc consts  --      6.2564                 6.2650                 6.2805
 IR Inten    --     27.9415                91.4876                33.0502

                     76                     77                     78
                      A                      A                      A
 Frequencies --   3118.1975              3134.9988              3137.9383
 Red. masses --      1.1001                 1.1024                 1.1011
 Frc consts  --      6.3020                 6.3837                 6.3882
 IR Inten    --     29.8383                 8.6132                40.9970

                     79                     80                     81
                      A                      A                      A
 Frequencies --   3151.2319              3170.7406              3446.8249
 Red. masses --      1.1000                 1.0888                 1.0496
 Frc consts  --      6.4359                 6.4495                 7.3472
 IR Inten    --     22.0150                17.5745                 3.5935

                     82                     83                     84
                      A                      A                      A
 Frequencies --   3469.0009              3528.2231              3552.4853
 Red. masses --      1.0495                 1.0913                 1.0920
 Frc consts  --      7.4412                 8.0039                 8.1196
 IR Inten    --      2.7045                 2.4235                 0.6112

 - Thermochemistry -
 -------------------
 Temperature   298.150 Kelvin.  Pressure   1.00000 Atm.
 Atom     1 has atomic number  6 and mass  12.00000

 Molecular mass:   144.16265 amu.
 Principal axes and moments of inertia in atomic units:
                           1         2         3
     Eigenvalues --  1182.224911615.908371984.10698
           X            0.99994   0.00786  -0.00714
           Y           -0.00775   0.99986   0.01492
           Z            0.00725  -0.01486   0.99986
 This molecule is an asymmetric top.
 Rotational symmetry number  1.
 Warning -- assumption of classical behavior for rotation
           may cause significant error
 Rotational temperatures (Kelvin)      0.07326     0.05360     0.04365
 Rotational constants (GHZ):           1.52656     1.11686     0.90960
 Zero-point vibrational energy     740989.0 (Joules/Mol)
                                  177.10062 (Kcal/Mol)
 Warning -- explicit consideration of  21 degrees of freedom as
           vibrations may cause significant error
 Vibrational temperatures:    102.40   144.15   212.58   291.43   340.90
          (Kelvin)            360.88   369.40   393.54   423.24   443.11
                              465.35   476.28   505.40   518.37   540.36
                              576.26   580.26   642.12   710.64   766.45
                              795.45   963.80  1121.23  1131.82  1168.77
                             1271.46  1301.72  1332.20  1377.96  1384.23
                             1448.89  1464.64  1475.97  1519.12  1534.61
                             1555.53  1585.94  1629.10  1655.68  1741.07
                             1747.44  1813.38  1872.79  1895.69  1956.05
                             1988.93  2004.42  2016.08  2053.84  2064.22
                             2069.71  2079.05  2165.34  2179.14  2191.26
                             2198.35  2206.67  2210.45  2214.07  2216.08
                             2227.89  2239.51  2436.08  2449.18  4350.89
                             4382.57  4385.71  4389.38  4403.69  4427.90
                             4450.17  4466.14  4467.62  4474.73  4478.70
                             4486.39  4510.56  4514.79  4533.92  4561.99
                             4959.21  4991.12  5076.33  5111.23

 Zero-point correction=                           0.282228 (Hartree/Particle)
 Thermal correction to Energy=                    0.294907
 Thermal correction to Enthalpy=                  0.295851
 Thermal correction to Gibbs Free Energy=         0.245672
 Sum of electronic and zero-point Energies=           -426.154089
 Sum of electronic and thermal Energies=              -426.141410
 Sum of electronic and thermal Enthalpies=            -426.140466
 Sum of electronic and thermal Free Energies=         -426.190645

                     E (Thermal)             CV                S
                      KCal/Mol        Cal/Mol-Kelvin    Cal/Mol-Kelvin
 Total                  185.057             50.144            105.610
 Electronic               0.000              0.000              0.000
 Translational            0.889              2.981             40.808
 Rotational               0.889              2.981             29.718
 Vibrational            183.279             44.183             35.085
 Vibration     1          0.598              1.968              4.121
 Vibration     2          0.604              1.949              3.451
 Vibration     3          0.617              1.905              2.701
 Vibration     4          0.639              1.836              2.110
 Vibration     5          0.656              1.784              1.826
 Vibration     6          0.663              1.761              1.725
 Vibration     7          0.666              1.751              1.684
 Vibration     8          0.676              1.722              1.574
 Vibration     9          0.689              1.685              1.450
 Vibration    10          0.698              1.659              1.373
 Vibration    11          0.708              1.629              1.293
 Vibration    12          0.713              1.614              1.255
 Vibration    13          0.728              1.573              1.160
 Vibration    14          0.735              1.554              1.121
 Vibration    15          0.746              1.522              1.057
 Vibration    16          0.766              1.469              0.961
 Vibration    17          0.769              1.463              0.951
 Vibration    18          0.806              1.369              0.807
 Vibration    19          0.850              1.264              0.673
 Vibration    20          0.888              1.178              0.581
 Vibration    21          0.908              1.133              0.538

 Optimization completed.
    -- Stationary point found.

 1\1\GINC-NODE120\Freq\RB3LYP\6-31G(d)\C8H20N2\VSC10255\08-Dec-2020\0\\
 #N Geom=AllCheck Guess=TCheck SCRF=Check GenChk RB3LYP/6-31G(d) Freq\\
 CID_12174887_JID_992_neutraal\\0,1\C,0.9700331246,2.3648373142,-0.5859
 658788\C,0.280834332,2.4821126938,0.7778251596\C,0.9943779349,1.719165
 2971,1.9370748175\C,0.7280990743,0.2141348589,1.7368717423\C,0.4769904
 253,2.2037170685,3.3521052515\C,0.8238901973,1.15540202,4.4329469057\C
 ,1.1286550764,3.5290655021,3.8336337073\C,0.9346671239,4.804567302,3.0
 07797029\N,-0.9795700441,2.4379733168,3.2656523604\N,2.4630884773,1.87

 Normal termination of Gaussian 16 at Tue Dec  8 13:57:50 2020.

 ----------------------------------------------------------------------
 # B3LYP/6-311++G(d,p) empiricaldispersion=gd3bj scf=xqc pop=npa geom=c
 heck
 ----------------------------------------------------------------------

 -------------------------------------
 CID_12174887_JID_992_Energie_neutraal
 -------------------------------------
 Structure from the checkpoint file:  "JID_992.chk"
 Charge =  0 Multiplicity = 1

 SCF Done:  E(RB3LYP) =  -426.572591745     A.U. after   14 cycles
 Normal termination of Gaussian 16 at Tue Dec  8 14:02:03 2020.

 ----------------------------------------------------------------------
 # B3LYP/6-311++G(d,p) empiricaldispersion=gd3bj scf=xqc pop=npa geom=c
 heck
 ----------------------------------------------------------------------

 -----------------------------------
 CID_12174887_JID_992_Energie_kation
 -----------------------------------
 Structure from the checkpoint file:  "JID_992.chk"
 Charge =  1 Multiplicity = 2

 SCF Done:  E(UB3LYP) =  -426.265148571     A.U. after   18 cycles
 Normal termination of Gaussian 16 at Tue Dec  8 14:08:38 2020.
 Gaussian 16:  ES64L-G16RevA.03 25-Dec-2016

 ----------------------------------
 CID_12174887_JID_992_Energie_anion
 ----------------------------------
 Structure from the checkpoint file:  "JID_992.chk"
 Charge = -1 Multiplicity = 2

                         Standard orientation:
 ---------------------------------------------------------------------
 Center     Atomic      Atomic             Coordinates (Angstroms)
 Number     Number       Type             X           Y           Z
 ---------------------------------------------------------------------
      1          6           0        2.797128    0.887693   -0.249331
      2          6           0        1.376932    0.579555   -0.735923
      3          6           0        0.577814   -0.409760    0.168376
      4          6           0        1.151562   -1.821185   -0.065705
      5          6           0       -0.970798   -0.365829   -0.155140
      6          6           0       -1.663660   -1.636365    0.386343
      7          6           0       -1.712450    0.827203    0.507969
      8          6           0       -1.305539    2.258986    0.146081
      9          7           0       -1.142568   -0.230525   -1.616683
     10          7           0        0.720254   -0.144349    1.614654
     11          1           0        2.792417    1.391776    0.724031
     12          1           0        3.302269    1.553341   -0.957630
     13          1           0        3.416526   -0.011660   -0.152840
     14          1           0        0.832032    1.517232   -0.838307
     15          1           0        1.423208    0.165917   -1.748878
     16          1           0        2.243140   -1.807441    0.023796
     17          1           0        0.767961   -2.533747    0.667389
     18          1           0        0.917895   -2.191699   -1.069553
     19          1           0       -1.434661   -1.788582    1.445706
     20          1           0       -2.751127   -1.541632    0.279903
     21          1           0       -1.358448   -2.529639   -0.167328
     22          1           0       -2.770639    0.706960    0.235363
     23          1           0       -1.672370    0.687708    1.593269
     24          1           0       -1.235706    2.383117   -0.938366
     25          1           0       -2.054998    2.963894    0.524642
     26          1           0       -0.344418    2.551143    0.582678
     27          1           0       -0.744294   -1.046602   -2.081264
     28          1           0       -2.140960   -0.262891   -1.825216
     29          1           0        1.675301   -0.353334    1.900625
     30          1           0        0.587133    0.848472    1.800159
 ---------------------------------------------------------------------

 SCF Done:  E(UB3LYP) =  -426.556434687     A.U. after   27 cycles

 The electronic state is 2-A.
 Alpha  occ. eigenvalues --  -14.18064 -14.17855 -10.09685 -10.09564 -10.05417
 Alpha  occ. eigenvalues --  -10.04831 -10.04810 -10.04721 -10.04556 -10.04186
 Alpha  occ. eigenvalues --   -0.79876  -0.76533  -0.65846  -0.65553  -0.62415
 Alpha  occ. eigenvalues --   -0.59501  -0.54204  -0.51679  -0.47244  -0.42077
 Alpha  occ. eigenvalues --   -0.39603  -0.37431  -0.35581  -0.33534  -0.32858
 Alpha  occ. eigenvalues --   -0.31940  -0.30972  -0.30314  -0.29266  -0.28644
 Alpha  occ. eigenvalues --   -0.26512  -0.26178  -0.25928  -0.24374  -0.23548
 Alpha  occ. eigenvalues --   -0.23469  -0.22620  -0.20760  -0.19077  -0.14111
 Alpha  occ. eigenvalues --   -0.12739   0.04734
 Alpha virt. eigenvalues --    0.06946   0.07535   0.08590   0.09266   0.09766
 Alpha virt. eigenvalues --    0.10034   0.10692   0.11063   0.12205   0.12520
 Alpha virt. eigenvalues --    0.12978   0.13627   0.13913   0.14031   0.14947

  Beta  occ. eigenvalues --  -14.18034 -14.17821 -10.09680 -10.09562 -10.05399
  Beta  occ. eigenvalues --  -10.04804 -10.04772 -10.04687 -10.04544 -10.04164
  Beta  occ. eigenvalues --   -0.79836  -0.76472  -0.65794  -0.65509  -0.62370
  Beta  occ. eigenvalues --   -0.59449  -0.54141  -0.51607  -0.47177  -0.42007
  Beta  occ. eigenvalues --   -0.39561  -0.37392  -0.35547  -0.33498  -0.32826
  Beta  occ. eigenvalues --   -0.31901  -0.30939  -0.30276  -0.29232  -0.28610
  Beta  occ. eigenvalues --   -0.26470  -0.26134  -0.25881  -0.24328  -0.23506
  Beta  occ. eigenvalues --   -0.23439  -0.22591  -0.20726  -0.19046  -0.14079
  Beta  occ. eigenvalues --   -0.12706
  Beta virt. eigenvalues --    0.07008   0.07920   0.08331   0.09099   0.09849
  Beta virt. eigenvalues --    0.10461   0.10497   0.11095   0.11370   0.12761
  Beta virt. eigenvalues --    0.12933   0.13491   0.14011   0.14229   0.14430

 Mulliken charges and spin densities:
               1          2
     1  C    1.429752  -2.177140
     2  C   -1.639141   1.558170
     3  C    0.464277  -0.725859
     4  C    1.837259  -2.379235
     5  C    0.103277   0.572036
     6  C    0.094729  -0.621945
     7  C   -1.042924   0.498634
     8  C    0.802773  -1.429500
     9  N   -0.532288   0.178705
    10  N   -0.519462   0.192094
    11  H   -0.333292   0.483683
    12  H   -0.284099   0.425058
    13  H   -0.145079   0.272155
    14  H    0.385770  -0.214481
    15  H   -0.141480   0.284372
    16  H   -0.079061   0.212332
    17  H    0.025268   0.128135
    18  H   -0.399755   0.549462
    19  H    0.068097   0.125334
    20  H   -0.357937   0.496420
    21  H   -0.079979   0.221627
    22  H   -0.204603   0.337539
    23  H    0.069112   0.079575
    24  H   -0.094507   0.265525
    25  H   -0.299758   0.434227
    26  H   -0.077454   0.211417
    27  H    0.032238   0.202293
    28  H   -0.061207   0.298681
    29  H    0.058880   0.195206
    30  H   -0.079407   0.325479
 Sum of Mulliken charges =  -1.00000   1.00000

 Dipole moment (field-independent basis, Debye):
    X=             -0.5623    Y=             -0.1976    Z=              0.8118  Tot=              1.0071
 Quadrupole moment (field-independent basis, Debye-Ang):
   XX=           -120.4405   YY=           -108.9306   ZZ=           -104.2205
   XY=             -0.7152   XZ=             -2.1000   YZ=             -3.2419

 Summary of Natural Population Analysis:

                                       Natural Population
                Natural  -----------------------------------------------
    Atom  No    Charge         Core      Valence    Rydberg      Total
 -----------------------------------------------------------------------
      C    1   -0.28821      0.99966     2.28292    0.00563     3.28821
      C    2   -0.20090      0.99958     2.19070    0.01062     3.20090
      C    3    0.05959      0.99952     1.92390    0.01698     2.94041
      C    4   -0.29284      0.99962     2.28558    0.00764     3.29284
      C    5    0.06123      0.99953     1.92237    0.01688     2.93877
      C    6   -0.29611      0.99962     2.28910    0.00740     3.29611
      C    7   -0.19557      0.99958     2.18571    0.01028     3.19557
      C    8   -0.28954      0.99966     2.28444    0.00544     3.28954
      N    9   -0.42687      0.99975     2.91622    0.01090     3.92687
      N   10   -0.42834      0.99975     2.91789    0.01070     3.92834
      H   11    0.09509      0.00000     0.40343    0.00148     0.40491
      H   12    0.09980      0.00000     0.39932    0.00087     0.40020
      H   13    0.09460      0.00000     0.40410    0.00130     0.40540
      H   14    0.10433      0.00000     0.39362    0.00204     0.39567
      H   15    0.10087      0.00000     0.39768    0.00145     0.39913
      H   16    0.10028      0.00000     0.39861    0.00111     0.39972
      H   17    0.10406      0.00000     0.39475    0.00118     0.39594
      H   18    0.10066      0.00000     0.39775    0.00159     0.39934
      H   19    0.10778      0.00000     0.39103    0.00119     0.39222
      H   20    0.09700      0.00000     0.40170    0.00130     0.40300
      H   21    0.09906      0.00000     0.39978    0.00116     0.40094
      H   22    0.09494      0.00000     0.40375    0.00130     0.40506
      H   23    0.10392      0.00000     0.39473    0.00135     0.39608
      H   24    0.10503      0.00000     0.39358    0.00140     0.39497
      H   25    0.09722      0.00000     0.40191    0.00087     0.40278
      H   26    0.09323      0.00000     0.40547    0.00131     0.40677
      H   27    0.17484      0.00000     0.32279    0.00236     0.32516
      H   28    0.17358      0.00000     0.32430    0.00212     0.32642
      H   29    0.17548      0.00000     0.32263    0.00189     0.32452
      H   30    0.17578      0.00000     0.32211    0.00212     0.32422
 =======================================================================
   * Total *   -0.00000      9.99626    30.87188    0.13186    41.00000

 Normal termination of Gaussian 16 at Tue Dec  8 14:19:42 2020.
