 Gaussian 16, Revision A.03,

 -----------------------------------------------------------
 # opt freq B3LYP/6-31G(d) empiricaldispersion=gd3bj scf=xqc
 -----------------------------------------------------------

 ------------------------------
 CID_72805314_JID_3569_neutraal
 ------------------------------
 Symbolic Z-matrix:
 Charge =  0 Multiplicity = 1

 SCF Done:  E(RB3LYP) =  -653.510897235     A.U. after   13 cycles
 SCF Done:  E(RB3LYP) =  -653.518620306     A.U. after   10 cycles
 SCF Done:  E(RB3LYP) =  -653.519859969     A.U. after   11 cycles
 SCF Done:  E(RB3LYP) =  -653.520538517     A.U. after   11 cycles
 SCF Done:  E(RB3LYP) =  -653.520867718     A.U. after   10 cycles
 SCF Done:  E(RB3LYP) =  -653.521010405     A.U. after   10 cycles
 SCF Done:  E(RB3LYP) =  -653.521045422     A.U. after    9 cycles
 SCF Done:  E(RB3LYP) =  -653.521055752     A.U. after    8 cycles
 SCF Done:  E(RB3LYP) =  -653.521057547     A.U. after    8 cycles
 SCF Done:  E(RB3LYP) =  -653.521057725     A.U. after    7 cycles
 Optimization completed.
    -- Stationary point found.

 1\1\GINC-NODE102\FOpt\RB3LYP\6-31G(d)\C9H16O4\VSC10255\09-Dec-2020\0\\
 # opt freq B3LYP/6-31G(d) empiricaldispersion=gd3bj scf=xqc\\CID_72805
 314_JID_3569_neutraal\\0,1\C,0.8200900333,0.0508034951,0.1292171759\C,
 0.5522459903,-0.0439171643,-1.364504104\O,-0.2151592919,1.0892967068,-
 1.7586310374\C,0.2556954198,1.5570658759,-3.0242753509\C,0.3344886413,
 3.0902298182,-2.9219417684\C,1.6525316974,3.3202001253,-2.1589952686\C
 ,2.5987776183,2.2813996547,-2.776401517\C,1.7132733717,1.0530347623,-3
 .1006125733\O,1.799691104,0.0563798473,-2.0673054469\C,2.1011758099,0.

 Normal termination of Gaussian 16 at Wed Dec  9 23:41:15 2020.

 --------------------------------------------------------------------
 #N Geom=AllCheck Guess=TCheck SCRF=Check GenChk RB3LYP/6-31G(d) Freq
 --------------------------------------------------------------------

 Structure from the checkpoint file:  "JID_3569.chk"
 ------------------------------
 CID_72805314_JID_3569_neutraal
 ------------------------------
 Charge =  0 Multiplicity = 1

 SCF Done:  E(RB3LYP) =  -653.521057725     A.U. after    1 cycles

  Exact polarizability: 107.742  -6.997 105.678  -1.276   0.483  89.819
 Approx polarizability: 143.462  -7.006 146.673   3.502   0.876 133.269

                      1                      2                      3
                      A                      A                      A
 Frequencies --     67.6344                70.1446               123.1433
 Red. masses --      4.6189                 3.6160                 4.1166
 Frc consts  --      0.0124                 0.0105                 0.0368
 IR Inten    --      2.1137                 0.6990                 9.4488

                      4                      5                      6
                      A                      A                      A
 Frequencies --    161.1664               198.2074               209.6540
 Red. masses --      3.3922                 3.7629                 2.8013
 Frc consts  --      0.0519                 0.0871                 0.0725
 IR Inten    --      1.3609                 0.5198                 2.8324

                      7                      8                      9
                      A                      A                      A
 Frequencies --    217.9445               249.7477               284.7371
 Red. masses --      1.0900                 1.8735                 1.3324
 Frc consts  --      0.0305                 0.0688                 0.0636
 IR Inten    --      1.3698                 1.3861                 0.4927

                     10                     11                     12
                      A                      A                      A
 Frequencies --    311.0878               347.9921               361.8786
 Red. masses --      2.0474                 3.0733                 2.5308
 Frc consts  --      0.1167                 0.2193                 0.1953
 IR Inten    --      5.5107                 6.8469                 8.3194

                     13                     14                     15
                      A                      A                      A
 Frequencies --    381.6674               409.0840               466.0043
 Red. masses --      3.1690                 2.9452                 2.0054
 Frc consts  --      0.2720                 0.2904                 0.2566
 IR Inten    --      0.8983                 1.4785                46.1673

                     16                     17                     18
                      A                      A                      A
 Frequencies --    469.3707               507.1427               522.6497
 Red. masses --      1.2032                 2.1181                 2.0568
 Frc consts  --      0.1562                 0.3210                 0.3310
 IR Inten    --     97.4712                79.8822                65.0993

                     19                     20                     21
                      A                      A                      A
 Frequencies --    535.9358               581.7026               609.5339
 Red. masses --      3.9945                 3.3898                 2.5832
 Frc consts  --      0.6760                 0.6758                 0.5655
 IR Inten    --      6.9750                 9.3809                 4.8991

                     22                     23                     24
                      A                      A                      A
 Frequencies --    623.9016               709.5776               809.0636
 Red. masses --      3.0469                 4.7394                 2.2021
 Frc consts  --      0.6988                 1.4060                 0.8493
 IR Inten    --     13.1689                21.5554                14.7417

                     25                     26                     27
                      A                      A                      A
 Frequencies --    823.5895               857.2286               888.7403
 Red. masses --      4.4748                 4.5725                 2.0492
 Frc consts  --      1.7883                 1.9797                 0.9536
 IR Inten    --      1.7294                11.4791                11.7678

                     28                     29                     30
                      A                      A                      A
 Frequencies --    912.8852               936.0843               946.6052
 Red. masses --      2.3348                 1.5364                 2.1891
 Frc consts  --      1.1464                 0.7932                 1.1557
 IR Inten    --     10.4621                 1.1808                27.1113

                     31                     32                     33
                      A                      A                      A
 Frequencies --    971.2615               986.1117              1019.0120
 Red. masses --      2.1376                 2.2274                 1.3137
 Frc consts  --      1.1881                 1.2761                 0.8037
 IR Inten    --      7.6587                 8.7574                 0.2259

                     34                     35                     36
                      A                      A                      A
 Frequencies --   1024.8602              1031.1271              1071.3061
 Red. masses --      2.0124                 2.1110                 3.0207
 Frc consts  --      1.2453                 1.3224                 2.0426
 IR Inten    --     13.9554                59.8690                53.6418

                     37                     38                     39
                      A                      A                      A
 Frequencies --   1098.4034              1110.6961              1134.0559
 Red. masses --      2.9364                 2.3742                 2.9087
 Frc consts  --      2.0873                 1.7257                 2.2040
 IR Inten    --     59.7536               117.0366                99.9962

                     40                     41                     42
                      A                      A                      A
 Frequencies --   1138.1201              1177.1472              1204.8625
 Red. masses --      2.8012                 3.1195                 2.0943
 Frc consts  --      2.1378                 2.5468                 1.7913
 IR Inten    --      9.0590                34.8834                48.1678

                     43                     44                     45
                      A                      A                      A
 Frequencies --   1219.9354              1236.1854              1249.8833
 Red. masses --      1.3596                 1.8998                 2.9373
 Frc consts  --      1.1921                 1.7105                 2.7036
 IR Inten    --     13.7684                41.5701                66.7994

                     46                     47                     48
                      A                      A                      A
 Frequencies --   1272.5003              1287.4033              1304.8746
 Red. masses --      2.0513                 1.5490                 1.7440
 Frc consts  --      1.9570                 1.5126                 1.7496
 IR Inten    --     40.9792                42.9906                17.3108

                     49                     50                     51
                      A                      A                      A
 Frequencies --   1311.1638              1337.8206              1369.3590
 Red. masses --      1.7810                 1.4587                 1.3750
 Frc consts  --      1.8040                 1.5382                 1.5191
 IR Inten    --     35.8764                 5.4527                 4.5636

                     52                     53                     54
                      A                      A                      A
 Frequencies --   1380.0871              1392.3719              1402.9648
 Red. masses --      1.4755                 1.4268                 1.2920
 Frc consts  --      1.6558                 1.6298                 1.4983
 IR Inten    --      3.2214                 1.5521                 3.1807

                     55                     56                     57
                      A                      A                      A
 Frequencies --   1429.3073              1441.3086              1442.9722
 Red. masses --      1.3565                 1.2816                 1.2774
 Frc consts  --      1.6328                 1.5686                 1.5671
 IR Inten    --     23.7570                51.2486                25.1252

                     58                     59                     60
                      A                      A                      A
 Frequencies --   1461.5297              1504.2609              1509.6622
 Red. masses --      1.2769                 1.0807                 1.0505
 Frc consts  --      1.6070                 1.4408                 1.4107
 IR Inten    --     80.1900                 5.6031                 0.5092

                     61                     62                     63
                      A                      A                      A
 Frequencies --   1510.7385              1524.4706              1527.4481
 Red. masses --      1.0527                 1.0930                 1.0882
 Frc consts  --      1.4156                 1.4965                 1.4958
 IR Inten    --      0.7085                 9.0986                 0.0056

                     64                     65                     66
                      A                      A                      A
 Frequencies --   1529.6019              1538.4380              3003.0156
 Red. masses --      1.0748                 1.0505                 1.0701
 Frc consts  --      1.4816                 1.4649                 5.6860
 IR Inten    --      1.3095                 5.1654                53.4279

                     67                     68                     69
                      A                      A                      A
 Frequencies --   3044.0876              3059.5092              3062.5015
 Red. masses --      1.0704                 1.0826                 1.0358
 Frc consts  --      5.8442                 5.9706                 5.7239
 IR Inten    --     25.8136                10.0882                11.3940

                     70                     71                     72
                      A                      A                      A
 Frequencies --   3070.9317              3071.9302              3085.2925
 Red. masses --      1.0389                 1.0617                 1.0871
 Frc consts  --      5.7724                 5.9029                 6.0967
 IR Inten    --      3.3247                38.2760                32.9699

                     73                     74                     75
                      A                      A                      A
 Frequencies --   3099.6374              3124.8458              3130.1279
 Red. masses --      1.0939                 1.0955                 1.1019
 Frc consts  --      6.1923                 6.3029                 6.3606
 IR Inten    --     30.5225                15.7781                39.2104

                     76                     77                     78
                      A                      A                      A
 Frequencies --   3133.7534              3146.9801              3151.3973
 Red. masses --      1.1025                 1.1029                 1.1036
 Frc consts  --      6.3790                 6.4356                 6.4575
 IR Inten    --      7.5641                23.4793                 9.3866

                     79                     80                     81
                      A                      A                      A
 Frequencies --   3152.7422              3704.0132              3724.0669
 Red. masses --      1.1035                 1.0649                 1.0648
 Frc consts  --      6.4626                 8.6077                 8.7007
 IR Inten    --     24.9148                26.7837                23.9721

 - Thermochemistry -
 -------------------
 Temperature   298.150 Kelvin.  Pressure   1.00000 Atm.
 Atom     1 has atomic number  6 and mass  12.00000

 Molecular mass:   188.10486 amu.
 Principal axes and moments of inertia in atomic units:
                           1         2         3
     Eigenvalues --  1788.097732260.190102962.07821
           X            0.99420  -0.10491  -0.02348
           Y            0.10477   0.99447  -0.00678
           Z            0.02406   0.00428   0.99970
 This molecule is an asymmetric top.
 Rotational symmetry number  1.
 Warning -- assumption of classical behavior for rotation
           may cause significant error
 Rotational temperatures (Kelvin)      0.04844     0.03832     0.02924
 Rotational constants (GHZ):           1.00931     0.79849     0.60928
 Zero-point vibrational energy     660997.7 (Joules/Mol)
                                  157.98225 (Kcal/Mol)
 Warning -- explicit consideration of  21 degrees of freedom as
           vibrations may cause significant error
 Vibrational temperatures:     97.31   100.92   177.18   231.88   285.18
          (Kelvin)            301.65   313.57   359.33   409.67   447.59
                              500.68   520.66   549.13   588.58   670.48
                              675.32   729.67   751.98   771.09   836.94
                              876.98   897.66  1020.92  1164.06  1184.96
                             1233.36  1278.70  1313.44  1346.82  1361.95
                             1397.43  1418.79  1466.13  1474.55  1483.56
                             1541.37  1580.36  1598.04  1631.65  1637.50
                             1693.65  1733.53  1755.21  1778.60  1798.30
                             1830.84  1852.29  1877.42  1886.47  1924.83
                             1970.20  1985.64  2003.31  2018.55  2056.45
                             2073.72  2076.12  2102.82  2164.30  2172.07
                             2173.62  2193.37  2197.66  2200.76  2213.47
                             4320.67  4379.76  4401.95  4406.26  4418.39
                             4419.82  4439.05  4459.69  4495.96  4503.56
                             4508.77  4527.80  4534.16  4536.09  5329.25
                             5358.10

 Zero-point correction=                           0.251761 (Hartree/Particle)
 Thermal correction to Energy=                    0.264455
 Thermal correction to Enthalpy=                  0.265399
 Thermal correction to Gibbs Free Energy=         0.213737
 Sum of electronic and zero-point Energies=           -653.269297
 Sum of electronic and thermal Energies=              -653.256603
 Sum of electronic and thermal Enthalpies=            -653.255659
 Sum of electronic and thermal Free Energies=         -653.307321

                     E (Thermal)             CV                S
                      KCal/Mol        Cal/Mol-Kelvin    Cal/Mol-Kelvin
 Total                  165.948             50.450            108.732
 Electronic               0.000              0.000              0.000
 Translational            0.889              2.981             41.601
 Rotational               0.889              2.981             30.860
 Vibrational            164.170             44.489             36.271
 Vibration     1          0.598              1.970              4.221
 Vibration     2          0.598              1.968              4.149
 Vibration     3          0.610              1.930              3.050
 Vibration     4          0.622              1.890              2.536
 Vibration     5          0.637              1.842              2.150
 Vibration     6          0.642              1.826              2.047
 Vibration     7          0.646              1.814              1.976
 Vibration     8          0.663              1.763              1.732
 Vibration     9          0.683              1.702              1.505
 Vibration    10          0.700              1.653              1.357
 Vibration    11          0.726              1.579              1.175
 Vibration    12          0.736              1.551              1.114
 Vibration    13          0.751              1.509              1.033
 Vibration    14          0.773              1.451              0.930
 Vibration    15          0.823              1.325              0.749
 Vibration    16          0.826              1.318              0.739
 Vibration    17          0.862              1.234              0.641
 Vibration    18          0.878              1.200              0.604
 Vibration    19          0.891              1.171              0.574
 Vibration    20          0.938              1.071              0.482
 Vibration    21          0.969              1.012              0.434

                           ! Non-Optimized Parameters !

 1\1\GINC-NODE102\Freq\RB3LYP\6-31G(d)\C9H16O4\VSC10255\09-Dec-2020\0\\
 #N Geom=AllCheck Guess=TCheck SCRF=Check GenChk RB3LYP/6-31G(d) Freq\\
 CID_72805314_JID_3569_neutraal\\0,1\C,0.8200900333,0.0508034951,0.1292
 171759\C,0.5522459903,-0.0439171643,-1.364504104\O,-0.2151592919,1.089
 2967068,-1.7586310374\C,0.2556954198,1.5570658759,-3.0242753509\C,0.33
 44886413,3.0902298182,-2.9219417684\C,1.6525316974,3.3202001253,-2.158
 9952686\C,2.5987776183,2.2813996547,-2.776401517\C,1.7132733717,1.0530
 347623,-3.1006125733\O,1.799691104,0.0563798473,-2.0673054469\C,2.1011

 Normal termination of Gaussian 16 at Wed Dec  9 23:50:46 2020.

 ----------------------------------------------------------------------
 # B3LYP/6-311++G(d,p) empiricaldispersion=gd3bj scf=xqc pop=npa geom=c
 heck
 ----------------------------------------------------------------------

 --------------------------------------
 CID_72805314_JID_3569_Energie_neutraal
 --------------------------------------
 Structure from the checkpoint file:  "JID_3569.chk"
 Charge =  0 Multiplicity = 1

 SCF Done:  E(RB3LYP) =  -653.725613982     A.U. after   13 cycles
 Normal termination of Gaussian 16 at Wed Dec  9 23:54:31 2020.

 ----------------------------------------------------------------------
 # B3LYP/6-311++G(d,p) empiricaldispersion=gd3bj scf=xqc pop=npa geom=c
 heck
 ----------------------------------------------------------------------

 ------------------------------------
 CID_72805314_JID_3569_Energie_kation
 ------------------------------------
 Structure from the checkpoint file:  "JID_3569.chk"
 Charge =  1 Multiplicity = 2

 SCF Done:  E(UB3LYP) =  -653.391994678     A.U. after   23 cycles
 Normal termination of Gaussian 16 at Thu Dec 10 00:03:52 2020.
 Gaussian 16:  ES64L-G16RevA.03 25-Dec-2016

 -----------------------------------
 CID_72805314_JID_3569_Energie_anion
 -----------------------------------
 Structure from the checkpoint file:  "JID_3569.chk"
 Charge = -1 Multiplicity = 2

                         Standard orientation:
 ---------------------------------------------------------------------
 Center     Atomic      Atomic             Coordinates (Angstroms)
 Number     Number       Type             X           Y           Z
 ---------------------------------------------------------------------
      1          6           0        1.121718   -2.286777    1.129270
      2          6           0        1.133974   -1.129705    0.142888
      3          8           0       -0.064689   -1.177760   -0.624783
      4          6           0       -0.553041    0.151775   -0.815088
      5          6           0       -2.071495    0.098624   -0.572713
      6          6           0       -2.178324    0.100725    0.963775
      7          6           0       -1.104877    1.112917    1.386688
      8          6           0        0.045340    0.951650    0.362429
      9          8           0        1.088868    0.104502    0.874193
     10          6           0        0.672732    2.292727   -0.019001
     11          8           0        1.824947    2.137222   -0.823362
     12          8           0       -2.696782   -0.984290   -1.223294
     13          6           0        2.348643   -1.142952   -0.783525
     14          1           0        2.017395   -2.257284    1.756394
     15          1           0        1.097790   -3.240887    0.594426
     16          1           0        0.238807   -2.212853    1.769477
     17          1           0       -0.265750    0.528614   -1.802304
     18          1           0       -2.529726    1.010555   -0.975381
     19          1           0       -1.931234   -0.901533    1.332577
     20          1           0       -3.183836    0.348724    1.313868
     21          1           0       -0.729017    0.969343    2.402737
     22          1           0       -1.504439    2.134122    1.322934
     23          1           0       -0.045340    2.882648   -0.598520
     24          1           0        0.899013    2.853602    0.902007
     25          1           0        2.406901    1.547556   -0.315483
     26          1           0       -2.120939   -1.750308   -1.054870
     27          1           0        3.271021   -1.041373   -0.201784
     28          1           0        2.389221   -2.084565   -1.339184
     29          1           0        2.283358   -0.317642   -1.497263
 ---------------------------------------------------------------------

 SCF Done:  E(UB3LYP) =  -653.710260400     A.U. after   28 cycles

 The electronic state is 2-A.
 Alpha  occ. eigenvalues --  -19.04130 -19.03599 -19.02718 -19.02659 -10.18497
 Alpha  occ. eigenvalues --  -10.13722 -10.12793 -10.12589 -10.12115 -10.07235
 Alpha  occ. eigenvalues --  -10.06811 -10.06358 -10.06262  -1.00178  -0.93719
 Alpha  occ. eigenvalues --   -0.93036  -0.90205  -0.74924  -0.67949  -0.63440
 Alpha  occ. eigenvalues --   -0.61271  -0.60181  -0.55654  -0.50258  -0.49788
 Alpha  occ. eigenvalues --   -0.48603  -0.43400  -0.42109  -0.40133  -0.38080
 Alpha  occ. eigenvalues --   -0.36786  -0.36203  -0.34693  -0.34127  -0.32437
 Alpha  occ. eigenvalues --   -0.31307  -0.30849  -0.29571  -0.29128  -0.28907
 Alpha  occ. eigenvalues --   -0.27673  -0.27332  -0.26198  -0.25455  -0.25152
 Alpha  occ. eigenvalues --   -0.23985  -0.22463  -0.18992  -0.18722  -0.17335
 Alpha  occ. eigenvalues --   -0.16268   0.04602
 Alpha virt. eigenvalues --    0.06488   0.07755   0.08111   0.08982   0.09473
 Alpha virt. eigenvalues --    0.09669   0.10260   0.10946   0.11891   0.12235
 Alpha virt. eigenvalues --    0.12436   0.12869   0.13829   0.14152   0.15552

  Beta  occ. eigenvalues --  -19.04122 -19.03585 -19.02704 -19.02653 -10.18493
  Beta  occ. eigenvalues --  -10.13721 -10.12783 -10.12578 -10.12091 -10.07211
  Beta  occ. eigenvalues --  -10.06791 -10.06318 -10.06222  -1.00164  -0.93697
  Beta  occ. eigenvalues --   -0.93013  -0.90186  -0.74899  -0.67915  -0.63398
  Beta  occ. eigenvalues --   -0.61225  -0.60120  -0.55600  -0.50217  -0.49742
  Beta  occ. eigenvalues --   -0.48561  -0.43357  -0.42078  -0.40104  -0.38044
  Beta  occ. eigenvalues --   -0.36744  -0.36168  -0.34656  -0.34078  -0.32396
  Beta  occ. eigenvalues --   -0.31278  -0.30814  -0.29532  -0.29095  -0.28868
  Beta  occ. eigenvalues --   -0.27631  -0.27297  -0.26169  -0.25428  -0.25129
  Beta  occ. eigenvalues --   -0.23958  -0.22439  -0.18974  -0.18697  -0.17316
  Beta  occ. eigenvalues --   -0.16247
  Beta virt. eigenvalues --    0.06919   0.07730   0.08371   0.08696   0.09658
  Beta virt. eigenvalues --    0.10035   0.10221   0.10643   0.11191   0.12389
  Beta virt. eigenvalues --    0.12735   0.12923   0.13239   0.14121   0.14482

 Mulliken charges and spin densities:
               1          2
     1  C    0.858393  -1.164347
     2  C   -1.864784   1.103836
     3  O   -0.044131   0.053703
     4  C    1.411887  -0.920191
     5  C   -0.386055  -0.448875
     6  C   -0.411008   0.380626
     7  C    1.482835  -1.807007
     8  C   -2.585183   2.282664
     9  O    0.035598   0.031466
    10  C    1.451341  -1.865076
    11  O   -0.194924   0.013513
    12  O   -0.184125   0.014320
    13  C    1.527376  -1.775468
    14  H   -0.266944   0.434334
    15  H   -0.245777   0.401821
    16  H   -0.182728   0.327544
    17  H    0.193027   0.066541
    18  H   -0.202487   0.396462
    19  H    0.201739  -0.034663
    20  H   -0.472639   0.654461
    21  H   -0.104010   0.285091
    22  H   -0.351831   0.527676
    23  H   -0.287127   0.480509
    24  H   -0.179047   0.346465
    25  H    0.097434   0.176397
    26  H    0.249238   0.014450
    27  H   -0.324047   0.502418
    28  H   -0.100107   0.270865
    29  H   -0.121914   0.250467
 Sum of Mulliken charges =  -1.00000   1.00000

 Dipole moment (field-independent basis, Debye):
    X=             -0.3854    Y=             -1.0435    Z=             -1.1258  Tot=              1.5827
 Quadrupole moment (field-independent basis, Debye-Ang):
   XX=           -138.8811   YY=           -129.8780   ZZ=           -116.1648
   XY=              9.1460   XZ=             -0.2032   YZ=             -0.5275

 Summary of Natural Population Analysis:

                                       Natural Population
                Natural  -----------------------------------------------
    Atom  No    Charge         Core      Valence    Rydberg      Total
 -----------------------------------------------------------------------
      C    1   -0.29520      0.99958     2.28869    0.00693     3.29520
      C    2    0.29612      0.99957     1.68324    0.02107     2.70388
      O    3   -0.32047      0.99986     3.31064    0.00997     4.32047
      C    4    0.04882      0.99946     1.93852    0.01319     2.95118
      C    5    0.05889      0.99951     1.92590    0.01569     2.94111
      C    6   -0.20278      0.99962     2.19323    0.00994     3.20278
      C    7   -0.20068      0.99958     2.19072    0.01038     3.20068
      C    8    0.11632      0.99949     1.86598    0.01821     2.88368
      O    9   -0.32064      0.99986     3.31057    0.01021     4.32064
      C   10   -0.01282      0.99950     1.99936    0.01395     3.01282
      O   11   -0.36944      0.99990     3.36304    0.00650     4.36944
      O   12   -0.36818      0.99989     3.36205    0.00624     4.36818
      C   13   -0.30865      0.99958     2.30199    0.00708     3.30865
      H   14    0.10700      0.00000     0.39156    0.00144     0.39300
      H   15    0.10446      0.00000     0.39424    0.00129     0.39554
      H   16    0.10490      0.00000     0.39387    0.00123     0.39510
      H   17    0.09663      0.00000     0.40207    0.00130     0.40337
      H   18    0.09003      0.00000     0.40845    0.00152     0.40997
      H   19    0.09863      0.00000     0.39962    0.00175     0.40137
      H   20    0.10532      0.00000     0.39338    0.00129     0.39468
      H   21    0.11106      0.00000     0.38767    0.00127     0.38894
      H   22    0.10244      0.00000     0.39488    0.00267     0.39756
      H   23    0.09178      0.00000     0.40668    0.00155     0.40822
      H   24    0.08234      0.00000     0.41620    0.00146     0.41766
      H   25    0.23284      0.00000     0.26315    0.00401     0.26716
      H   26    0.23368      0.00000     0.26323    0.00309     0.26632
      H   27    0.10502      0.00000     0.39341    0.00157     0.39498
      H   28    0.10550      0.00000     0.39326    0.00125     0.39450
      H   29    0.10706      0.00000     0.39171    0.00123     0.39294
 =======================================================================
   * Total *    0.00000     12.99542    37.82731    0.17727    51.00000

 Normal termination of Gaussian 16 at Thu Dec 10 00:15:10 2020.
