 Gaussian 16, Revision A.03,

 -----------------------------------------------------------
 # opt freq B3LYP/6-31G(d) empiricaldispersion=gd3bj scf=xqc
 -----------------------------------------------------------

 -------------------------------
 CID_154392979_JID_2325_neutraal
 -------------------------------
 Symbolic Z-matrix:
 Charge =  0 Multiplicity = 1

 SCF Done:  E(RB3LYP) =  -542.386861950     A.U. after   15 cycles
 SCF Done:  E(RB3LYP) =  -542.390098068     A.U. after   13 cycles
 SCF Done:  E(RB3LYP) =  -542.391206393     A.U. after   12 cycles
 SCF Done:  E(RB3LYP) =  -542.392383502     A.U. after   12 cycles
 SCF Done:  E(RB3LYP) =  -542.392950565     A.U. after   12 cycles
 SCF Done:  E(RB3LYP) =  -542.393304499     A.U. after   12 cycles
 SCF Done:  E(RB3LYP) =  -542.393338210     A.U. after   12 cycles
 SCF Done:  E(RB3LYP) =  -542.393536035     A.U. after   11 cycles
 SCF Done:  E(RB3LYP) =  -542.393666723     A.U. after   11 cycles
 SCF Done:  E(RB3LYP) =  -542.393740166     A.U. after   11 cycles
 SCF Done:  E(RB3LYP) =  -542.393874587     A.U. after   10 cycles
 SCF Done:  E(RB3LYP) =  -542.393882470     A.U. after   10 cycles
 SCF Done:  E(RB3LYP) =  -542.393885468     A.U. after    9 cycles
 SCF Done:  E(RB3LYP) =  -542.393886611     A.U. after    9 cycles
 SCF Done:  E(RB3LYP) =  -542.393886650     A.U. after    7 cycles
 Optimization completed.
    -- Stationary point found.
 Normal termination of Gaussian 16 at Wed Dec  9 17:08:23 2020.

 --------------------------------------------------------------------
 #N Geom=AllCheck Guess=TCheck SCRF=Check GenChk RB3LYP/6-31G(d) Freq
 --------------------------------------------------------------------

 Structure from the checkpoint file:  "JID_2325.chk"
 -------------------------------
 CID_154392979_JID_2325_neutraal
 -------------------------------
 Charge =  0 Multiplicity = 1

 SCF Done:  E(RB3LYP) =  -542.393886650     A.U. after    1 cycles

  Exact polarizability: 120.885  -3.101 105.270   9.107  -2.113 101.415
 Approx polarizability: 163.359 -10.472 141.187  23.675  -4.652 160.900

                      1                      2                      3
                      A                      A                      A
 Frequencies --     35.1761                43.5727                69.4327
 Red. masses --      3.9444                 5.5397                 2.3315
 Frc consts  --      0.0029                 0.0062                 0.0066
 IR Inten    --      0.1064                 1.1305                 0.3724

                      4                      5                      6
                      A                      A                      A
 Frequencies --     92.8367               105.0143               122.9881
 Red. masses --      3.3582                 3.5679                 2.3003
 Frc consts  --      0.0171                 0.0232                 0.0205
 IR Inten    --      1.1535                 1.1937                 0.6386

                      7                      8                      9
                      A                      A                      A
 Frequencies --    141.2463               193.0050               224.7060
 Red. masses --      1.3775                 2.5666                 1.5059
 Frc consts  --      0.0162                 0.0563                 0.0448
 IR Inten    --      0.1521                 0.7882                 0.6650

                     10                     11                     12
                      A                      A                      A
 Frequencies --    233.0313               252.1741               276.3381
 Red. masses --      1.5160                 1.7401                 2.0386
 Frc consts  --      0.0485                 0.0652                 0.0917
 IR Inten    --      0.8423                 1.8261                 4.6421

                     13                     14                     15
                      A                      A                      A
 Frequencies --    322.5874               348.9252               365.9804
 Red. masses --      2.4022                 2.2069                 2.2726
 Frc consts  --      0.1473                 0.1583                 0.1793
 IR Inten    --      9.3281                 6.2142                 3.5458

                     16                     17                     18
                      A                      A                      A
 Frequencies --    387.9700               415.3521               436.5539
 Red. masses --      2.2819                 1.9962                 2.8350
 Frc consts  --      0.2024                 0.2029                 0.3183
 IR Inten    --      1.7426                 0.4326                 3.4866

                     19                     20                     21
                      A                      A                      A
 Frequencies --    481.7371               535.6449               597.6543
 Red. masses --      2.8469                 2.2985                 2.5729
 Frc consts  --      0.3893                 0.3886                 0.5415
 IR Inten    --      1.1478                15.5102                 6.3849

                     22                     23                     24
                      A                      A                      A
 Frequencies --    749.9697               768.2319               798.5907
 Red. masses --      3.2024                 2.1748                 3.2325
 Frc consts  --      1.0612                 0.7562                 1.2146
 IR Inten    --      4.0750                 1.5516                 6.9212

                     25                     26                     27
                      A                      A                      A
 Frequencies --    859.3121               891.2434               909.6650
 Red. masses --      2.1172                 1.7695                 2.7360
 Frc consts  --      0.9211                 0.8281                 1.3339
 IR Inten    --     16.8648                 2.1762                40.6538

                     28                     29                     30
                      A                      A                      A
 Frequencies --    925.8574               944.3258               974.8102
 Red. masses --      2.0001                 1.2132                 1.3817
 Frc consts  --      1.0102                 0.6374                 0.7736
 IR Inten    --      9.1903                 1.5996                 1.0687

                     31                     32                     33
                      A                      A                      A
 Frequencies --    989.8935               994.9430              1025.4707
 Red. masses --      1.6871                 1.8976                 1.8074
 Frc consts  --      0.9740                 1.1067                 1.1198
 IR Inten    --      3.9181                10.3636                 1.7073

                     34                     35                     36
                      A                      A                      A
 Frequencies --   1036.8537              1054.6765              1070.9229
 Red. masses --      1.6563                 1.8470                 1.5264
 Frc consts  --      1.0491                 1.2105                 1.0314
 IR Inten    --      0.2761                 1.1385                 0.3823

                     37                     38                     39
                      A                      A                      A
 Frequencies --   1111.9577              1154.0424              1165.8236
 Red. masses --      2.0879                 1.9560                 2.0210
 Frc consts  --      1.5210                 1.5348                 1.6184
 IR Inten    --      2.2981                 0.4983                 4.0448

                     40                     41                     42
                      A                      A                      A
 Frequencies --   1198.7643              1207.2980              1224.7597
 Red. masses --      4.0377                 1.7541                 2.1012
 Frc consts  --      3.4186                 1.5064                 1.8570
 IR Inten    --    229.6278                12.8021                24.6380

                     43                     44                     45
                      A                      A                      A
 Frequencies --   1245.8560              1280.1231              1305.1253
 Red. masses --      1.3601                 1.4256                 1.2426
 Frc consts  --      1.2438                 1.3764                 1.2470
 IR Inten    --      6.2413                 2.4313                30.6404

                     46                     47                     48
                      A                      A                      A
 Frequencies --   1363.4821              1367.2259              1387.5818
 Red. masses --      1.2277                 1.3444                 1.3247
 Frc consts  --      1.3447                 1.4807                 1.5027
 IR Inten    --      2.2282                 1.0946                10.5084

                     49                     50                     51
                      A                      A                      A
 Frequencies --   1400.5636              1416.4024              1422.2062
 Red. masses --      1.3092                 1.4512                 1.1789
 Frc consts  --      1.5131                 1.7153                 1.4049
 IR Inten    --      3.2274                 0.3767                 2.7232

                     52                     53                     54
                      A                      A                      A
 Frequencies --   1427.8532              1430.4308              1448.9451
 Red. masses --      1.3034                 1.3145                 1.2834
 Frc consts  --      1.5657                 1.5847                 1.5875
 IR Inten    --      3.0895                 6.6084                 8.5581

                     55                     56                     57
                      A                      A                      A
 Frequencies --   1449.7208              1502.3240              1507.3702
 Red. masses --      1.2770                 1.0545                 1.0814
 Frc consts  --      1.5813                 1.4023                 1.4477
 IR Inten    --      7.5298                 3.9843                 4.7622

                     58                     59                     60
                      A                      A                      A
 Frequencies --   1509.3446              1518.6778              1526.3853
 Red. masses --      1.0813                 1.0527                 1.0663
 Frc consts  --      1.4514                 1.4306                 1.4637
 IR Inten    --      5.0371                 0.6645                 2.1091

                     61                     62                     63
                      A                      A                      A
 Frequencies --   1526.7649              1532.3166              1539.1773
 Red. masses --      1.0812                 1.0722                 1.0710
 Frc consts  --      1.4849                 1.4832                 1.4949
 IR Inten    --      8.3185                 2.1501                 5.0500

                     64                     65                     66
                      A                      A                      A
 Frequencies --   1543.2767              1748.7477              1817.5221
 Red. masses --      1.0532                 6.4297                 8.9798
 Frc consts  --      1.4779                11.5850                17.4775
 IR Inten    --      6.8458                11.9882               209.5435

                     67                     68                     69
                      A                      A                      A
 Frequencies --   3020.9685              3034.8350              3037.9567
 Red. masses --      1.0620                 1.0383                 1.0572
 Frc consts  --      5.7106                 5.6343                 5.7488
 IR Inten    --     22.0712                27.4197                11.3485

                     70                     71                     72
                      A                      A                      A
 Frequencies --   3042.9693              3046.0066              3050.7773
 Red. masses --      1.0492                 1.0618                 1.0613
 Frc consts  --      5.7243                 5.8042                 5.8195
 IR Inten    --     16.8731                25.1117                39.3074

                     73                     74                     75
                      A                      A                      A
 Frequencies --   3054.9259              3064.5445              3090.2503
 Red. masses --      1.0900                 1.1000                 1.1022
 Frc consts  --      5.9935                 6.0867                 6.2018
 IR Inten    --     75.6561                28.7941                35.7772

                     76                     77                     78
                      A                      A                      A
 Frequencies --   3098.1768              3101.6100              3103.6296
 Red. masses --      1.1003                 1.0908                 1.0636
 Frc consts  --      6.2228                 6.1825                 6.0365
 IR Inten    --     18.2236                33.2762                21.0956

                     79                     80                     81
                      A                      A                      A
 Frequencies --   3105.8665              3110.6375              3118.8967
 Red. masses --      1.0994                 1.1018                 1.1002
 Frc consts  --      6.2483                 6.2815                 6.3054
 IR Inten    --     60.0824                46.3241                39.0474

                     82                     83                     84
                      A                      A                      A
 Frequencies --   3144.3389              3165.6390              3178.5831
 Red. masses --      1.0893                 1.1030                 1.0957
 Frc consts  --      6.3455                 6.5123                 6.5226
 IR Inten    --      9.2438                14.8273                24.8412

 - Thermochemistry -
 -------------------
 Temperature   298.150 Kelvin.  Pressure   1.00000 Atm.
 Atom     1 has atomic number  6 and mass  12.00000

 Molecular mass:   170.13068 amu.
 Principal axes and moments of inertia in atomic units:
                           1         2         3
     Eigenvalues --  1498.345323115.823413629.51925
           X            0.99961   0.02797   0.00058
           Y           -0.02791   0.99860  -0.04499
           Z           -0.00184   0.04495   0.99899
 This molecule is an asymmetric top.
 Rotational symmetry number  1.
 Warning -- assumption of classical behavior for rotation
           may cause significant error
 Rotational temperatures (Kelvin)      0.05781     0.02780     0.02386
 Rotational constants (GHZ):           1.20449     0.57922     0.49724
 Zero-point vibrational energy     702969.8 (Joules/Mol)
                                  168.01382 (Kcal/Mol)
 Warning -- explicit consideration of  21 degrees of freedom as
           vibrations may cause significant error
 Vibrational temperatures:     50.61    62.69    99.90   133.57   151.09
          (Kelvin)            176.95   203.22   277.69   323.30   335.28
                              362.82   397.59   464.13   502.03   526.56
                              558.20   597.60   628.10   693.11   770.67
                              859.89  1079.04  1105.31  1148.99  1236.36
                             1282.30  1308.81  1332.10  1358.67  1402.53
                             1424.24  1431.50  1475.42  1491.80  1517.44
                             1540.82  1599.86  1660.41  1677.36  1724.75
                             1737.03  1762.16  1792.51  1841.81  1877.78
                             1961.75  1967.13  1996.42  2015.10  2037.89
                             2046.24  2054.36  2058.07  2084.71  2085.82
                             2161.51  2168.77  2171.61  2185.04  2196.13
                             2196.67  2204.66  2214.53  2220.43  2516.06
                             2615.01  4346.50  4366.45  4370.94  4378.15
                             4382.52  4389.39  4395.36  4409.20  4446.18
                             4457.59  4462.52  4465.43  4468.65  4475.51
                             4487.40  4524.00  4554.65  4573.27

 Zero-point correction=                           0.267747 (Hartree/Particle)
 Thermal correction to Energy=                    0.282070
 Thermal correction to Enthalpy=                  0.283015
 Thermal correction to Gibbs Free Energy=         0.225995
 Sum of electronic and zero-point Energies=           -542.126140
 Sum of electronic and thermal Energies=              -542.111816
 Sum of electronic and thermal Enthalpies=            -542.110872
 Sum of electronic and thermal Free Energies=         -542.167891

                     E (Thermal)             CV                S
                      KCal/Mol        Cal/Mol-Kelvin    Cal/Mol-Kelvin
 Total                  177.002             51.690            120.007
 Electronic               0.000              0.000              0.000
 Translational            0.889              2.981             41.302
 Rotational               0.889              2.981             31.205
 Vibrational            175.224             45.728             47.500
 Vibration     1          0.594              1.982              5.514
 Vibration     2          0.595              1.980              5.090
 Vibration     3          0.598              1.969              4.169
 Vibration     4          0.602              1.954              3.599
 Vibration     5          0.605              1.945              3.359
 Vibration     6          0.610              1.930              3.053
 Vibration     7          0.615              1.912              2.787
 Vibration     8          0.635              1.850              2.199
 Vibration     9          0.649              1.803              1.921
 Vibration    10          0.654              1.790              1.855
 Vibration    11          0.664              1.759              1.715
 Vibration    12          0.678              1.717              1.556
 Vibration    13          0.708              1.630              1.297
 Vibration    14          0.726              1.577              1.171
 Vibration    15          0.739              1.542              1.097
 Vibration    16          0.756              1.496              1.008
 Vibration    17          0.779              1.437              0.908
 Vibration    18          0.797              1.391              0.838
 Vibration    19          0.838              1.291              0.705
 Vibration    20          0.891              1.171              0.575
 Vibration    21          0.956              1.037              0.454

 Optimization completed.
    -- Stationary point found.
 Normal termination of Gaussian 16 at Wed Dec  9 17:15:35 2020.

 ----------------------------------------------------------------------
 # B3LYP/6-311++G(d,p) empiricaldispersion=gd3bj scf=xqc pop=npa geom=c
 heck
 ----------------------------------------------------------------------

 ---------------------------------------
 CID_154392979_JID_2325_Energie_neutraal
 ---------------------------------------
 Structure from the checkpoint file:  "JID_2325.chk"
 Charge =  0 Multiplicity = 1

 SCF Done:  E(RB3LYP) =  -542.552274916     A.U. after   14 cycles
 Normal termination of Gaussian 16 at Wed Dec  9 17:18:23 2020.

 ----------------------------------------------------------------------
 # B3LYP/6-311++G(d,p) empiricaldispersion=gd3bj scf=xqc pop=npa geom=c
 heck
 ----------------------------------------------------------------------

 -------------------------------------
 CID_154392979_JID_2325_Energie_kation
 -------------------------------------
 Structure from the checkpoint file:  "JID_2325.chk"
 Charge =  1 Multiplicity = 2

 SCF Done:  E(UB3LYP) =  -542.229892565     A.U. after   19 cycles
 Normal termination of Gaussian 16 at Wed Dec  9 17:23:23 2020.
 Gaussian 16:  ES64L-G16RevA.03 25-Dec-2016

 ----------------------------------------------------------------------
 # B3LYP/6-311++G(d,p) empiricaldispersion=gd3bj scf=xqc pop=npa geom=c
 heck
 ----------------------------------------------------------------------

 ------------------------------------
 CID_154392979_JID_2325_Energie_anion
 ------------------------------------
 Structure from the checkpoint file:  "JID_2325.chk"
 Charge = -1 Multiplicity = 2

                         Standard orientation:
 ---------------------------------------------------------------------
 Center     Atomic      Atomic             Coordinates (Angstroms)
 Number     Number       Type             X           Y           Z
 ---------------------------------------------------------------------
      1          6           0        3.028702    0.120672    1.064715
      2          6           0        2.043451    0.615098   -0.002164
      3          6           0        2.552626    1.916146   -0.635158
      4          6           0        1.793701   -0.440499   -1.093087
      5          6           0        1.069405   -1.722600   -0.630036
      6          6           0       -0.289241   -1.430649   -0.013721
      7          6           0       -1.300255   -1.048610   -0.807904
      8          6           0       -2.661665   -0.603581   -0.383632
      9          8           0       -2.845937    0.824084   -0.664103
     10          6           0       -2.274241    1.670427    0.200217
     11          8           0       -1.674493    1.381818    1.209133
     12          6           0       -0.371658   -1.563717    1.482625
     13          1           0        4.007001   -0.096476    0.615911
     14          1           0        2.682283   -0.792566    1.559737
     15          1           0        3.179280    0.879907    1.840588
     16          1           0        1.082619    0.836189    0.482553
     17          1           0        3.505926    1.752811   -1.154954
     18          1           0        1.836473    2.308641   -1.366646
     19          1           0        2.715786    2.689084    0.124669
     20          1           0        1.192998    0.016988   -1.890011
     21          1           0        2.754647   -0.720355   -1.549239
     22          1           0        0.949264   -2.380536   -1.499486
     23          1           0        1.693755   -2.268741    0.086369
     24          1           0       -1.122619   -0.991703   -1.882031
     25          1           0       -3.448355   -1.072200   -0.979435
     26          1           0       -2.859629   -0.776959    0.674008
     27          1           0       -2.444611    2.701688   -0.147309
     28          1           0       -0.183440   -2.605014    1.777542
     29          1           0        0.405582   -0.955239    1.958188
     30          1           0       -1.328465   -1.248855    1.898180
 ---------------------------------------------------------------------

 SCF Done:  E(UB3LYP) =  -542.534873427     A.U. after   33 cycles
 SCF Done:  E(UB3LYP) =  -542.534873427     a.u. after    1 cycles

 The electronic state is 2-A.
 Alpha  occ. eigenvalues --  -19.07874 -19.02658 -10.20864 -10.13220 -10.08092
 Alpha  occ. eigenvalues --  -10.06697 -10.06263 -10.06046 -10.05987 -10.05956
 Alpha  occ. eigenvalues --  -10.05493 -10.05469  -1.01485  -0.93322  -0.72811
 Alpha  occ. eigenvalues --   -0.69840  -0.65607  -0.61662  -0.58247  -0.57672
 Alpha  occ. eigenvalues --   -0.53083  -0.49251  -0.45730  -0.44079  -0.42190
 Alpha  occ. eigenvalues --   -0.38819  -0.37495  -0.36595  -0.35959  -0.34184
 Alpha  occ. eigenvalues --   -0.32638  -0.32327  -0.31794  -0.30101  -0.29292
 Alpha  occ. eigenvalues --   -0.28403  -0.27520  -0.27148  -0.25959  -0.24949
 Alpha  occ. eigenvalues --   -0.24468  -0.22313  -0.21966  -0.21572  -0.20681
 Alpha  occ. eigenvalues --   -0.19823  -0.14395   0.04720
 Alpha virt. eigenvalues --    0.06880   0.06977   0.07734   0.08317   0.08444
 Alpha virt. eigenvalues --    0.09315   0.09596   0.09849   0.10338   0.10909
 Alpha virt. eigenvalues --    0.11889   0.12222   0.12957   0.13003   0.13218

  Beta  occ. eigenvalues --  -19.07862 -19.02656 -10.20852 -10.13193 -10.08069
  Beta  occ. eigenvalues --  -10.06692 -10.06244 -10.06024 -10.05969 -10.05935
  Beta  occ. eigenvalues --  -10.05468 -10.05446  -1.01460  -0.93308  -0.72763
  Beta  occ. eigenvalues --   -0.69808  -0.65555  -0.61618  -0.58197  -0.57617
  Beta  occ. eigenvalues --   -0.53030  -0.49196  -0.45672  -0.44050  -0.42134
  Beta  occ. eigenvalues --   -0.38794  -0.37461  -0.36552  -0.35923  -0.34148
  Beta  occ. eigenvalues --   -0.32605  -0.32277  -0.31762  -0.30061  -0.29255
  Beta  occ. eigenvalues --   -0.28372  -0.27490  -0.27114  -0.25926  -0.24914
  Beta  occ. eigenvalues --   -0.24438  -0.22271  -0.21934  -0.21547  -0.20647
  Beta  occ. eigenvalues --   -0.19808  -0.14296
  Beta virt. eigenvalues --    0.06890   0.07590   0.07723   0.08231   0.08605
  Beta virt. eigenvalues --    0.09067   0.09585   0.10019   0.10279   0.10790
  Beta virt. eigenvalues --    0.11346   0.12317   0.12676   0.13250   0.13315

 Mulliken charges and spin densities:
               1          2
     1  C    0.286336  -0.979604
     2  C   -1.447563   1.646358
     3  C    0.511060  -1.093106
     4  C    1.586359  -1.642875
     5  C   -0.625107   0.101845
     6  C    0.183179   0.892865
     7  C   -0.249131  -0.167340
     8  C    1.100987  -1.711177
     9  O   -0.043708   0.048516
    10  C    0.353451  -0.288687
    11  O   -0.283048  -0.000267
    12  C   -0.047011  -0.805483
    13  H   -0.215469   0.354600
    14  H    0.001030   0.122441
    15  H   -0.024272   0.160856
    16  H    0.341195  -0.220416
    17  H   -0.021336   0.151922
    18  H   -0.192911   0.324261
    19  H   -0.108541   0.239921
    20  H   -0.011330   0.139179
    21  H   -0.115851   0.270899
    22  H   -0.628750   0.833407
    23  H   -0.009407   0.147817
    24  H   -0.437030   0.615162
    25  H   -0.448869   0.636974
    26  H    0.011307   0.169000
    27  H   -0.273444   0.410998
    28  H   -0.445578   0.617353
    29  H   -0.029132   0.188769
    30  H    0.282584  -0.164188
 Sum of Mulliken charges =  -1.00000   1.00000

 Dipole moment (field-independent basis, Debye):
    X=             -1.3706    Y=              2.4333    Z=              2.3807  Tot=              3.6698
 Quadrupole moment (field-independent basis, Debye-Ang):
   XX=           -130.8457   YY=           -125.6003   ZZ=           -117.0886
   XY=             -2.9310   XZ=             -3.2755   YZ=             -2.8369

 Summary of Natural Population Analysis:

                                       Natural Population
                Natural  -----------------------------------------------
    Atom  No    Charge         Core      Valence    Rydberg      Total
 -----------------------------------------------------------------------
      C    1   -0.28549      0.99965     2.28016    0.00569     3.28549
      C    2   -0.12488      0.99961     2.11588    0.00939     3.12488
      C    3   -0.27893      0.99965     2.27450    0.00478     3.27893
      C    4   -0.17987      0.99961     2.17086    0.00940     3.17987
      C    5   -0.20394      0.99958     2.19383    0.01053     3.20394
      C    6    0.02543      0.99949     1.96283    0.01226     2.97457
      C    7   -0.12962      0.99942     2.11983    0.01037     3.12962
      C    8   -0.03006      0.99953     2.01768    0.01285     3.03006
      O    9   -0.27415      0.99988     3.26530    0.00897     4.27415
      C   10    0.33596      0.99976     1.63851    0.02577     2.66404
      O   11   -0.29850      0.99988     3.29205    0.00657     4.29850
      C   12   -0.30049      0.99960     2.29440    0.00649     3.30049
      H   13    0.09584      0.00000     0.40317    0.00100     0.40416
      H   14    0.09902      0.00000     0.39996    0.00102     0.40098
      H   15    0.09767      0.00000     0.40154    0.00079     0.40233
      H   16    0.10076      0.00000     0.39669    0.00255     0.39924
      H   17    0.09463      0.00000     0.40431    0.00106     0.40537
      H   18    0.09945      0.00000     0.39946    0.00110     0.40055
      H   19    0.09692      0.00000     0.40217    0.00091     0.40308
      H   20    0.09742      0.00000     0.40087    0.00171     0.40258
      H   21    0.09594      0.00000     0.40275    0.00131     0.40406
      H   22    0.10821      0.00000     0.38976    0.00202     0.39179
      H   23    0.09817      0.00000     0.40021    0.00163     0.40183
      H   24    0.09836      0.00000     0.39976    0.00188     0.40164
      H   25    0.09742      0.00000     0.40107    0.00152     0.40258
      H   26    0.09467      0.00000     0.40409    0.00124     0.40533
      H   27    0.05542      0.00000     0.44265    0.00192     0.44458
      H   28    0.10470      0.00000     0.39396    0.00134     0.39530
      H   29    0.10599      0.00000     0.39276    0.00124     0.39401
      H   30    0.10395      0.00000     0.39505    0.00100     0.39605
 =======================================================================
   * Total *   -0.00000     11.99565    34.85605    0.14830    47.00000

 Normal termination of Gaussian 16 at Wed Dec  9 17:31:35 2020.
