 Gaussian 16, Revision A.03,

 -----------------------------------------------------------
 # opt freq B3LYP/6-31G(d) empiricaldispersion=gd3bj scf=xqc
 -----------------------------------------------------------

 ------------------------------
 CID_80190960_JID_6985_neutraal
 ------------------------------
 Symbolic Z-matrix:
 Charge =  0 Multiplicity = 1

 SCF Done:  E(RB3LYP) =  -679.798773381     A.U. after   13 cycles
 SCF Done:  E(RB3LYP) =  -679.803060970     A.U. after   11 cycles
 SCF Done:  E(RB3LYP) =  -679.802707166     A.U. after   11 cycles
 SCF Done:  E(RB3LYP) =  -679.804176926     A.U. after   11 cycles
 SCF Done:  E(RB3LYP) =  -679.804600633     A.U. after   10 cycles
 SCF Done:  E(RB3LYP) =  -679.804640272     A.U. after    9 cycles
 SCF Done:  E(RB3LYP) =  -679.804670827     A.U. after    9 cycles
 SCF Done:  E(RB3LYP) =  -679.804683492     A.U. after    9 cycles
 SCF Done:  E(RB3LYP) =  -679.804715343     A.U. after   10 cycles
 SCF Done:  E(RB3LYP) =  -679.804725401     A.U. after    9 cycles
 SCF Done:  E(RB3LYP) =  -679.804744104     A.U. after    9 cycles
 SCF Done:  E(RB3LYP) =  -679.804755597     A.U. after    9 cycles
 SCF Done:  E(RB3LYP) =  -679.804756058     A.U. after    8 cycles
 SCF Done:  E(RB3LYP) =  -679.804756329     A.U. after    7 cycles
 Optimization completed.
    -- Stationary point found.
 Normal termination of Gaussian 16 at Fri Dec 11 01:26:55 2020.

 --------------------------------------------------------------------
 #N Geom=AllCheck Guess=TCheck SCRF=Check GenChk RB3LYP/6-31G(d) Freq
 --------------------------------------------------------------------

 Structure from the checkpoint file:  "JID_6985.chk"
 ------------------------------
 CID_80190960_JID_6985_neutraal
 ------------------------------
 Charge =  0 Multiplicity = 1

 SCF Done:  E(RB3LYP) =  -679.804756330     A.U. after    1 cycles

  Exact polarizability: 170.679  -2.344 151.242  -0.778   1.751 134.261
 Approx polarizability: 213.624  -1.777 214.276  -0.532   1.790 210.702

                      1                      2                      3
                      A                      A                      A
 Frequencies --     25.9330                63.7566                85.2734
 Red. masses --      2.8551                 2.9618                 2.9074
 Frc consts  --      0.0011                 0.0071                 0.0125
 IR Inten    --      0.0559                 0.1328                 0.1288

                      4                      5                      6
                      A                      A                      A
 Frequencies --    102.8545               151.1382               196.5771
 Red. masses --      2.8460                 3.1289                 3.2228
 Frc consts  --      0.0177                 0.0421                 0.0734
 IR Inten    --      0.3478                 1.9459                 0.5547

                      7                      8                      9
                      A                      A                      A
 Frequencies --    224.2512               243.6405               249.8450
 Red. masses --      3.4950                 1.5733                 1.4082
 Frc consts  --      0.1036                 0.0550                 0.0518
 IR Inten    --      0.8526                 0.1591                 0.3818

                     10                     11                     12
                      A                      A                      A
 Frequencies --    258.6445               264.5232               291.6279
 Red. masses --      1.4565                 1.1087                 1.2766
 Frc consts  --      0.0574                 0.0457                 0.0640
 IR Inten    --      0.7557                 0.1491                 0.7056

                     13                     14                     15
                      A                      A                      A
 Frequencies --    304.5786               310.6676               319.3460
 Red. masses --      2.0498                 1.4381                 2.1395
 Frc consts  --      0.1120                 0.0818                 0.1286
 IR Inten    --      2.5347                 3.9814                11.8337

                     16                     17                     18
                      A                      A                      A
 Frequencies --    324.3356               343.5944               351.7728
 Red. masses --      2.7721                 1.2478                 2.2697
 Frc consts  --      0.1718                 0.0868                 0.1655
 IR Inten    --      1.4174               145.5527                 7.8510

                     19                     20                     21
                      A                      A                      A
 Frequencies --    360.3690               384.3064               419.9152
 Red. masses --      2.3229                 2.2467                 2.2174
 Frc consts  --      0.1777                 0.1955                 0.2304
 IR Inten    --      0.7773                 8.9932                 0.6173

                     22                     23                     24
                      A                      A                      A
 Frequencies --    428.5851               434.5318               446.3351
 Red. masses --      1.9349                 2.2025                 2.0162
 Frc consts  --      0.2094                 0.2450                 0.2366
 IR Inten    --      0.1139                 1.2428                 2.0454

                     25                     26                     27
                      A                      A                      A
 Frequencies --    452.0113               523.8668               542.3011
 Red. masses --      3.0251                 3.2159                 2.7731
 Frc consts  --      0.3642                 0.5200                 0.4805
 IR Inten    --      1.2593                 2.1653                 1.9084

                     28                     29                     30
                      A                      A                      A
 Frequencies --    585.9200               662.9113               685.9650
 Red. masses --      3.0796                 3.8436                 3.2318
 Frc consts  --      0.6229                 0.9952                 0.8960
 IR Inten    --      1.0169                 4.1985                 1.4583

                     31                     32                     33
                      A                      A                      A
 Frequencies --    722.2387               775.1433               827.4465
 Red. masses --      2.6635                 2.3812                 2.5328
 Frc consts  --      0.8186                 0.8430                 1.0217
 IR Inten    --      0.3210                 1.4630                 6.6957

                     34                     35                     36
                      A                      A                      A
 Frequencies --    840.3917               883.4943               901.8644
 Red. masses --      2.2526                 2.0646                 1.8224
 Frc consts  --      0.9374                 0.9495                 0.8733
 IR Inten    --      2.7562                 2.9856                 2.2349

                     37                     38                     39
                      A                      A                      A
 Frequencies --    916.4410               937.7136               945.8825
 Red. masses --      2.2287                 2.2304                 2.1478
 Frc consts  --      1.1029                 1.1555                 1.1322
 IR Inten    --      2.4280                 1.9935                10.2816

                     40                     41                     42
                      A                      A                      A
 Frequencies --    955.2220               959.0674               981.3496
 Red. masses --      1.6876                 1.5214                 1.8548
 Frc consts  --      0.9073                 0.8245                 1.0525
 IR Inten    --      0.3356                 1.5641                 5.0474

                     43                     44                     45
                      A                      A                      A
 Frequencies --    990.3121               994.9484              1005.2128
 Red. masses --      1.8863                 1.5705                 1.8447
 Frc consts  --      1.0900                 0.9160                 1.0982
 IR Inten    --      5.3776                 0.7644                12.1116

                     46                     47                     48
                      A                      A                      A
 Frequencies --   1021.4159              1023.3377              1043.1571
 Red. masses --      1.7064                 1.5822                 1.5518
 Frc consts  --      1.0489                 0.9762                 0.9949
 IR Inten    --      7.2921                 7.7608                 4.8087

                     49                     50                     51
                      A                      A                      A
 Frequencies --   1045.9325              1063.2276              1085.6858
 Red. masses --      1.5497                 1.6616                 2.1851
 Frc consts  --      0.9989                 1.1067                 1.5175
 IR Inten    --      8.9978                10.0955                13.9343

                     52                     53                     54
                      A                      A                      A
 Frequencies --   1094.7331              1121.4484              1123.2301
 Red. masses --      1.5510                 1.9269                 3.5034
 Frc consts  --      1.0951                 1.4278                 2.6042
 IR Inten    --      3.4983                30.8286                52.8203

                     55                     56                     57
                      A                      A                      A
 Frequencies --   1157.2901              1176.2985              1180.2367
 Red. masses --      2.3310                 1.4223                 1.4672
 Frc consts  --      1.8394                 1.1595                 1.2042
 IR Inten    --     10.9624                 2.2230                25.5634

                     58                     59                     60
                      A                      A                      A
 Frequencies --   1213.4323              1217.1793              1226.4263
 Red. masses --      1.9077                 1.7899                 1.7280
 Frc consts  --      1.6550                 1.5624                 1.5314
 IR Inten    --     18.0901                 8.6566                11.0408

                     61                     62                     63
                      A                      A                      A
 Frequencies --   1247.7378              1260.9018              1273.8056
 Red. masses --      2.2397                 2.9715                 1.4081
 Frc consts  --      2.0544                 2.7835                 1.3462
 IR Inten    --     12.5525                 7.2860                10.3576

                     64                     65                     66
                      A                      A                      A
 Frequencies --   1280.9173              1294.6440              1313.1496
 Red. masses --      1.5262                 1.8098                 1.4731
 Frc consts  --      1.4754                 1.7872                 1.4966
 IR Inten    --     11.1587                13.2086                 4.6349

                     67                     68                     69
                      A                      A                      A
 Frequencies --   1317.4492              1322.8215              1346.0068
 Red. masses --      1.6136                 1.3822                 1.5149
 Frc consts  --      1.6501                 1.4250                 1.6170
 IR Inten    --      4.4213                 5.3044                12.9462

                     70                     71                     72
                      A                      A                      A
 Frequencies --   1354.5387              1366.4916              1379.9452
 Red. masses --      1.3676                 1.4297                 1.4098
 Frc consts  --      1.4784                 1.5729                 1.5817
 IR Inten    --      1.7386                 7.9558                 7.4794

                     73                     74                     75
                      A                      A                      A
 Frequencies --   1381.7963              1393.3682              1406.0959
 Red. masses --      1.3678                 1.5562                 1.4932
 Frc consts  --      1.5387                 1.7801                 1.7394
 IR Inten    --      7.0615                22.3085                 1.6909

                     76                     77                     78
                      A                      A                      A
 Frequencies --   1415.5227              1424.9902              1427.6132
 Red. masses --      1.5169                 1.2508                 1.2596
 Frc consts  --      1.7907                 1.4965                 1.5125
 IR Inten    --      7.6525                 9.9664                 4.3859

                     79                     80                     81
                      A                      A                      A
 Frequencies --   1436.1954              1449.0819              1452.0080
 Red. masses --      1.2901                 1.2420                 1.2526
 Frc consts  --      1.5679                 1.5366                 1.5559
 IR Inten    --     10.8145                 4.4575                 8.1431

                     82                     83                     84
                      A                      A                      A
 Frequencies --   1467.4990              1508.6563              1515.8222
 Red. masses --      1.5312                 1.0670                 1.0773
 Frc consts  --      1.9429                 1.4309                 1.4584
 IR Inten    --     11.4248                 0.5047                 1.5202

                     85                     86                     87
                      A                      A                      A
 Frequencies --   1516.6961              1519.0896              1520.1427
 Red. masses --      1.0533                 1.0577                 1.0656
 Frc consts  --      1.4276                 1.4381                 1.4508
 IR Inten    --      1.8165                 0.9898                 1.7588

                     88                     89                     90
                      A                      A                      A
 Frequencies --   1523.9668              1525.9010              1532.5415
 Red. masses --      1.0741                 1.0807                 1.0657
 Frc consts  --      1.4698                 1.4826                 1.4747
 IR Inten    --      3.7963                 9.4037                 7.4398

                     91                     92                     93
                      A                      A                      A
 Frequencies --   1534.4957              1536.1764              1536.6800
 Red. masses --      1.0606                 1.0736                 1.0656
 Frc consts  --      1.4714                 1.4927                 1.4826
 IR Inten    --      4.7959                 3.3900                 9.4725

                     94                     95                     96
                      A                      A                      A
 Frequencies --   1540.0624              1553.8670              1558.3662
 Red. masses --      1.0667                 1.0676                 1.0887
 Frc consts  --      1.4906                 1.5187                 1.5578
 IR Inten    --      9.7875                 8.4885                 5.7274

                     97                     98                     99
                      A                      A                      A
 Frequencies --   2836.2561              2883.6884              2911.1445
 Red. masses --      1.0802                 1.0737                 1.0738
 Frc consts  --      5.1198                 5.2606                 5.3617
 IR Inten    --     67.3546                79.8776                98.5639

                    100                    101                    102
                      A                      A                      A
 Frequencies --   2959.7884              3020.2640              3034.1124
 Red. masses --      1.0828                 1.0643                 1.0381
 Frc consts  --      5.5886                 5.7199                 5.6304
 IR Inten    --     56.3764                31.8464                20.0130

                    103                    104                    105
                      A                      A                      A
 Frequencies --   3035.3611              3039.9006              3040.9980
 Red. masses --      1.0349                 1.0528                 1.0376
 Frc consts  --      5.6181                 5.7320                 5.6536
 IR Inten    --     24.6828                41.8359                43.8155

                    106                    107                    108
                      A                      A                      A
 Frequencies --   3046.0958              3062.9413              3066.8450
 Red. masses --      1.0520                 1.0793                 1.0606
 Frc consts  --      5.7513                 5.9658                 5.8774
 IR Inten    --     39.8282                15.1931                30.1250

                    109                    110                    111
                      A                      A                      A
 Frequencies --   3073.4348              3091.5701              3095.1122
 Red. masses --      1.0782                 1.0944                 1.1015
 Frc consts  --      6.0005                 6.1629                 6.2173
 IR Inten    --     41.8377                 9.7606                22.2439

                    112                    113                    114
                      A                      A                      A
 Frequencies --   3097.8432              3102.8708              3104.0945
 Red. masses --      1.1030                 1.1015                 1.1017
 Frc consts  --      6.2363                 6.2484                 6.2546
 IR Inten    --      2.6205                47.4283                28.9772

                    115                    116                    117
                      A                      A                      A
 Frequencies --   3105.2899              3107.5977              3109.2037
 Red. masses --      1.1016                 1.1029                 1.1044
 Frc consts  --      6.2588                 6.2753                 6.2904
 IR Inten    --     56.9412                38.6857                39.4328

                    118                    119                    120
                      A                      A                      A
 Frequencies --   3111.9161              3120.2503              3121.3679
 Red. masses --      1.1039                 1.0982                 1.0901
 Frc consts  --      6.2984                 6.2995                 6.2576
 IR Inten    --     45.0910                49.0652                34.3220

                    121                    122                    123
                      A                      A                      A
 Frequencies --   3161.7087              3174.6663              3727.8078
 Red. masses --      1.0967                 1.0879                 1.0659
 Frc consts  --      6.4591                 6.4603                 8.7271
 IR Inten    --      9.7325                 7.1982                 5.4458

 - Thermochemistry -
 -------------------
 Temperature   298.150 Kelvin.  Pressure   1.00000 Atm.
 Atom     1 has atomic number  6 and mass  12.00000

 Molecular mass:   225.20926 amu.
 Principal axes and moments of inertia in atomic units:
                           1         2         3
     Eigenvalues --  2301.264134679.265065916.15425
           X            0.99995  -0.01021   0.00011
           Y            0.01020   0.99992   0.00760
           Z           -0.00019  -0.00760   0.99997
 This molecule is an asymmetric top.
 Rotational symmetry number  1.
 Warning -- assumption of classical behavior for rotation
           may cause significant error
 Rotational temperatures (Kelvin)      0.03764     0.01851     0.01464
 Rotational constants (GHZ):           0.78424     0.38569     0.30505
 Zero-point vibrational energy    1047607.6 (Joules/Mol)
                                  250.38422 (Kcal/Mol)
 Warning -- explicit consideration of  28 degrees of freedom as
           vibrations may cause significant error
 Vibrational temperatures:     37.31    91.73   122.69   147.98   217.45
          (Kelvin)            282.83   322.65   350.54   359.47   372.13
                              380.59   419.59   438.22   446.98   459.47
                              466.65   494.36   506.12   518.49   552.93
                              604.16   616.64   625.19   642.18   650.34
                              753.73   780.25   843.01   953.78   986.95
                             1039.14  1115.26  1190.51  1209.14  1271.15
                             1297.58  1318.55  1349.16  1360.91  1374.35
                             1379.88  1411.94  1424.84  1431.51  1446.28
                             1469.59  1472.35  1500.87  1504.86  1529.75
                             1562.06  1575.08  1613.51  1616.08  1665.08
                             1692.43  1698.10  1745.86  1751.25  1764.55
                             1795.22  1814.16  1832.72  1842.95  1862.70
                             1889.33  1895.52  1903.25  1936.60  1948.88
                             1966.08  1985.43  1988.10  2004.75  2023.06
                             2036.62  2050.24  2054.02  2066.36  2084.91
                             2089.12  2111.40  2170.62  2180.93  2182.19
                             2185.63  2187.15  2192.65  2195.43  2204.99
                             2207.80  2210.22  2210.94  2215.81  2235.67
                             2242.14  4080.74  4148.98  4188.49  4258.48
                             4345.49  4365.41  4367.21  4373.74  4375.32
                             4382.65  4406.89  4412.51  4421.99  4448.08
                             4453.18  4457.11  4464.34  4466.10  4467.82
                             4471.14  4473.45  4477.35  4489.34  4490.95
                             4548.99  4567.64  5363.48

 Zero-point correction=                           0.399013 (Hartree/Particle)
 Thermal correction to Energy=                    0.415759
 Thermal correction to Enthalpy=                  0.416703
 Thermal correction to Gibbs Free Energy=         0.356212
 Sum of electronic and zero-point Energies=           -679.405744
 Sum of electronic and thermal Energies=              -679.388997
 Sum of electronic and thermal Enthalpies=            -679.388053
 Sum of electronic and thermal Free Energies=         -679.448544

                     E (Thermal)             CV                S
                      KCal/Mol        Cal/Mol-Kelvin    Cal/Mol-Kelvin
 Total                  260.893             68.140            127.314
 Electronic               0.000              0.000              0.000
 Translational            0.889              2.981             42.138
 Rotational               0.889              2.981             32.521
 Vibrational            259.115             62.179             52.655
 Vibration     1          0.593              1.985              6.118
 Vibration     2          0.597              1.972              4.337
 Vibration     3          0.601              1.959              3.766
 Vibration     4          0.605              1.947              3.399
 Vibration     5          0.619              1.901              2.658
 Vibration     6          0.636              1.845              2.165
 Vibration     7          0.649              1.804              1.924
 Vibration     8          0.659              1.773              1.776
 Vibration     9          0.663              1.763              1.732
 Vibration    10          0.667              1.748              1.671
 Vibration    11          0.671              1.738              1.632
 Vibration    12          0.687              1.689              1.464
 Vibration    13          0.695              1.665              1.392
 Vibration    14          0.700              1.653              1.359
 Vibration    15          0.705              1.637              1.313
 Vibration    16          0.709              1.627              1.288
 Vibration    17          0.722              1.588              1.195
 Vibration    18          0.728              1.572              1.158
 Vibration    19          0.735              1.554              1.121
 Vibration    20          0.753              1.504              1.022
 Vibration    21          0.783              1.427              0.892
 Vibration    22          0.790              1.408              0.863
 Vibration    23          0.795              1.395              0.844
 Vibration    24          0.806              1.369              0.807
 Vibration    25          0.811              1.356              0.790
 Vibration    26          0.879              1.197              0.601
 Vibration    27          0.897              1.157              0.560
 Vibration    28          0.943              1.062              0.475

                           ! Non-Optimized Parameters !
 Normal termination of Gaussian 16 at Fri Dec 11 01:45:35 2020.

 ----------------------------------------------------------------------
 # B3LYP/6-311++G(d,p) empiricaldispersion=gd3bj scf=xqc pop=npa geom=c
 heck
 ----------------------------------------------------------------------

 --------------------------------------
 CID_80190960_JID_6985_Energie_neutraal
 --------------------------------------
 Structure from the checkpoint file:  "JID_6985.chk"
 Charge =  0 Multiplicity = 1

 SCF Done:  E(RB3LYP) =  -679.997944028     A.U. after   14 cycles
 Normal termination of Gaussian 16 at Fri Dec 11 01:54:08 2020.

 ----------------------------------------------------------------------
 # B3LYP/6-311++G(d,p) empiricaldispersion=gd3bj scf=xqc pop=npa geom=c
 heck
 ----------------------------------------------------------------------

 ------------------------------------
 CID_80190960_JID_6985_Energie_kation
 ------------------------------------
 Structure from the checkpoint file:  "JID_6985.chk"
 Charge =  1 Multiplicity = 2

 SCF Done:  E(UB3LYP) =  -679.709629422     A.U. after   20 cycles
 Normal termination of Gaussian 16 at Fri Dec 11 02:09:39 2020.
 Gaussian 16:  ES64L-G16RevA.03 25-Dec-2016

 ----------------------------------------------------------------------
 # B3LYP/6-311++G(d,p) empiricaldispersion=gd3bj scf=xqc pop=npa geom=c
 heck
 ----------------------------------------------------------------------

 -----------------------------------
 CID_80190960_JID_6985_Energie_anion
 -----------------------------------
 Structure from the checkpoint file:  "JID_6985.chk"
 Charge = -1 Multiplicity = 2

                         Standard orientation:
 ---------------------------------------------------------------------
 Center     Atomic      Atomic             Coordinates (Angstroms)
 Number     Number       Type             X           Y           Z
 ---------------------------------------------------------------------
      1          6           0        1.212167   -1.886141   -0.922978
      2          6           0        2.177899   -1.161968    0.032510
      3          6           0        2.959048   -0.066946   -0.730919
      4          6           0        2.123769    1.181088   -1.041169
      5          6           0        1.546075    1.744163    0.250287
      6          6           0        0.588082    0.732522    0.916383
      7          6           0        1.435529   -0.521519    1.234540
      8          7           0       -0.599909    0.420619    0.122170
      9          6           0       -1.481883    1.552893   -0.188837
     10          6           0       -2.728850    0.880996   -0.768283
     11          6           0       -2.810668   -0.502674   -0.055371
     12          6           0       -1.498093   -0.542060    0.767228
     13          6           0       -4.034021   -0.601081    0.863466
     14          6           0       -2.833064   -1.641657   -1.084560
     15          8           0        0.982479    3.023306   -0.029150
     16          6           0        3.176169   -2.195104    0.581510
     17          1           0        0.670249   -2.681935   -0.397463
     18          1           0        1.772362   -2.354737   -1.741533
     19          1           0        0.475055   -1.200204   -1.342815
     20          1           0        3.822811    0.237270   -0.121810
     21          1           0        3.368466   -0.490964   -1.656543
     22          1           0        1.303768    0.949412   -1.728829
     23          1           0        2.744456    1.948715   -1.516380
     24          1           0        2.377055    1.875348    0.965579
     25          1           0        0.268411    1.170467    1.890868
     26          1           0        0.827547   -1.279185    1.739386
     27          1           0        2.189151   -0.209230    1.970042
     28          1           0       -1.740710    2.114783    0.734602
     29          1           0       -1.001221    2.249446   -0.872494
     30          1           0       -2.609436    0.744427   -1.848152
     31          1           0       -3.629431    1.483335   -0.611223
     32          1           0       -1.695905   -0.248170    1.818467
     33          1           0       -1.063108   -1.543706    0.783172
     34          1           0       -4.065229    0.235788    1.571176
     35          1           0       -4.963100   -0.586341    0.281286
     36          1           0       -4.019382   -1.531141    1.445347
     37          1           0       -3.700592   -1.550261   -1.749318
     38          1           0       -1.929008   -1.622489   -1.702489
     39          1           0       -2.888504   -2.620676   -0.592769
     40          1           0        0.537691    3.329686    0.777196
     41          1           0        2.658009   -2.991983    1.129026
     42          1           0        3.740179   -2.663486   -0.234136
     43          1           0        3.897006   -1.730024    1.264978
 ---------------------------------------------------------------------

 SCF Done:  E(UB3LYP) =  -679.983860275     A.U. after   29 cycles

 The electronic state is 2-A.
 Alpha  occ. eigenvalues --  -19.02376 -14.20240 -10.11992 -10.10073 -10.08575
 Alpha  occ. eigenvalues --  -10.08518 -10.08511 -10.08429 -10.06859 -10.06711
 Alpha  occ. eigenvalues --  -10.06480 -10.06479 -10.06179 -10.06140 -10.06108
 Alpha  occ. eigenvalues --  -10.05286  -0.92764  -0.83578  -0.74605  -0.71321
 Alpha  occ. eigenvalues --   -0.67154  -0.65259  -0.62358  -0.59112  -0.58635
 Alpha  occ. eigenvalues --   -0.57802  -0.56635  -0.51970  -0.49867  -0.47347
 Alpha  occ. eigenvalues --   -0.44508  -0.43442  -0.41558  -0.39555  -0.37734
 Alpha  occ. eigenvalues --   -0.36699  -0.35352  -0.34665  -0.34096  -0.33411
 Alpha  occ. eigenvalues --   -0.33173  -0.32531  -0.32084  -0.30437  -0.29823
 Alpha  occ. eigenvalues --   -0.29276  -0.28290  -0.27876  -0.27652  -0.27090
 Alpha  occ. eigenvalues --   -0.26694  -0.26138  -0.25593  -0.24347  -0.23284
 Alpha  occ. eigenvalues --   -0.22617  -0.22360  -0.21963  -0.21866  -0.21324
 Alpha  occ. eigenvalues --   -0.19922  -0.17160  -0.12070   0.04318
 Alpha virt. eigenvalues --    0.06266   0.06449   0.07608   0.08272   0.08355
 Alpha virt. eigenvalues --    0.08633   0.09341   0.09469   0.10296   0.10564
 Alpha virt. eigenvalues --    0.10713   0.11046   0.11589   0.12179   0.12564

  Beta  occ. eigenvalues --  -19.02358 -14.20222 -10.11981 -10.10056 -10.08561
  Beta  occ. eigenvalues --  -10.08519 -10.08510 -10.08416 -10.06846 -10.06694
  Beta  occ. eigenvalues --  -10.06475 -10.06468 -10.06158 -10.06113 -10.06089
  Beta  occ. eigenvalues --  -10.05270  -0.92728  -0.83550  -0.74585  -0.71303
  Beta  occ. eigenvalues --   -0.67127  -0.65233  -0.62328  -0.59068  -0.58599
  Beta  occ. eigenvalues --   -0.57762  -0.56593  -0.51929  -0.49829  -0.47299
  Beta  occ. eigenvalues --   -0.44469  -0.43399  -0.41507  -0.39516  -0.37702
  Beta  occ. eigenvalues --   -0.36667  -0.35320  -0.34644  -0.34069  -0.33378
  Beta  occ. eigenvalues --   -0.33149  -0.32499  -0.32055  -0.30404  -0.29798
  Beta  occ. eigenvalues --   -0.29248  -0.28267  -0.27845  -0.27630  -0.27064
  Beta  occ. eigenvalues --   -0.26670  -0.26112  -0.25568  -0.24317  -0.23261
  Beta  occ. eigenvalues --   -0.22589  -0.22336  -0.21943  -0.21841  -0.21288
  Beta  occ. eigenvalues --   -0.19902  -0.17134  -0.11958
  Beta virt. eigenvalues --    0.06284   0.06894   0.07303   0.07960   0.08688
  Beta virt. eigenvalues --    0.08792   0.08917   0.09591   0.09918   0.10680
  Beta virt. eigenvalues --    0.10839   0.10948   0.11232   0.11840   0.12399

 Mulliken charges and spin densities:
               1          2
     1  C   -0.502080  -0.324672
     2  C   -1.199004   2.035144
     3  C    0.107105  -0.582804
     4  C   -0.127917  -0.005471
     5  C    0.688348  -1.408888
     6  C   -1.181024   1.232500
     7  C    1.117580  -1.877899
     8  N    0.530148  -0.022499
     9  C    0.179334  -0.328928
    10  C    0.093682  -0.893438
    11  C   -1.052493   1.987264
    12  C    0.110024  -0.898481
    13  C    0.817162  -1.489236
    14  C   -0.101026  -0.558428
    15  O   -0.163538   0.000024
    16  C    0.718869  -1.185289
    17  H   -0.015241   0.181670
    18  H   -0.062008   0.194560
    19  H    0.402918  -0.231566
    20  H   -0.073166   0.218712
    21  H    0.114347   0.041171
    22  H    0.086035   0.070864
    23  H    0.063585   0.129057
    24  H   -0.206513   0.363413
    25  H   -0.627499   0.795454
    26  H    0.110637   0.075856
    27  H   -0.060328   0.264988
    28  H   -0.005441   0.121378
    29  H    0.175725   0.032038
    30  H    0.112748   0.032733
    31  H   -0.134950   0.316346
    32  H   -0.026546   0.201860
    33  H    0.046853   0.057499
    34  H   -0.208147   0.358494
    35  H   -0.093698   0.233227
    36  H   -0.193831   0.333145
    37  H   -0.034906   0.182289
    38  H   -0.028132   0.156859
    39  H   -0.079956   0.223190
    40  H   -0.027697   0.292251
    41  H   -0.116282   0.252603
    42  H   -0.008601   0.140337
    43  H   -0.145077   0.282672
 Sum of Mulliken charges =  -1.00000   1.00000

 Dipole moment (field-independent basis, Debye):
    X=              1.0608    Y=             -0.5631    Z=             -3.7836  Tot=              3.9697
 Quadrupole moment (field-independent basis, Debye-Ang):
   XX=           -175.6005   YY=           -156.1920   ZZ=           -144.3781
   XY=             -3.0793   XZ=             -0.8000   YZ=             -2.4279

 Summary of Natural Population Analysis:

                                       Natural Population
                Natural  -----------------------------------------------
    Atom  No    Charge         Core      Valence    Rydberg      Total
 -----------------------------------------------------------------------
      C    1   -0.28953      0.99962     2.28266    0.00725     3.28953
      C    2   -0.04409      0.99957     2.03335    0.01118     3.04409
      C    3   -0.18598      0.99958     2.17699    0.00941     3.18598
      C    4   -0.19738      0.99960     2.18846    0.00933     3.19738
      C    5    0.06583      0.99949     1.92060    0.01408     2.93417
      C    6   -0.00987      0.99956     1.99462    0.01570     3.00987
      C    7   -0.19097      0.99957     2.17962    0.01178     3.19097
      N    8   -0.29180      0.99969     2.77966    0.01244     3.79180
      C    9   -0.08638      0.99962     2.07596    0.01080     3.08638
      C   10   -0.18591      0.99959     2.17758    0.00874     3.18591
      C   11   -0.05206      0.99958     2.04044    0.01204     3.05206
      C   12   -0.08047      0.99957     2.06934    0.01156     3.08047
      C   13   -0.28156      0.99962     2.27513    0.00680     3.28156
      C   14   -0.28056      0.99962     2.27429    0.00665     3.28056
      O   15   -0.37191      0.99989     3.36586    0.00616     4.37191
      C   16   -0.28057      0.99963     2.27374    0.00720     3.28057
      H   17    0.09832      0.00000     0.40078    0.00090     0.40168
      H   18    0.09454      0.00000     0.40462    0.00084     0.40546
      H   19    0.11082      0.00000     0.38764    0.00154     0.38918
      H   20    0.09667      0.00000     0.40212    0.00121     0.40333
      H   21    0.09814      0.00000     0.40105    0.00081     0.40186
      H   22    0.10219      0.00000     0.39639    0.00142     0.39781
      H   23    0.10201      0.00000     0.39708    0.00092     0.39799
      H   24    0.07776      0.00000     0.42020    0.00204     0.42224
      H   25    0.08615      0.00000     0.41107    0.00279     0.41385
      H   26    0.10462      0.00000     0.39400    0.00138     0.39538
      H   27    0.10353      0.00000     0.39489    0.00158     0.39647
      H   28    0.07762      0.00000     0.42071    0.00167     0.42238
      H   29    0.10813      0.00000     0.39058    0.00129     0.39187
      H   30    0.09716      0.00000     0.40166    0.00118     0.40284
      H   31    0.10011      0.00000     0.39901    0.00088     0.39989
      H   32    0.08525      0.00000     0.41295    0.00180     0.41475
      H   33    0.09915      0.00000     0.39908    0.00177     0.40085
      H   34    0.10115      0.00000     0.39763    0.00122     0.39885
      H   35    0.09798      0.00000     0.40103    0.00099     0.40202
      H   36    0.09921      0.00000     0.39973    0.00106     0.40079
      H   37    0.09669      0.00000     0.40249    0.00082     0.40331
      H   38    0.10176      0.00000     0.39707    0.00118     0.39824
      H   39    0.09822      0.00000     0.40087    0.00090     0.40178
      H   40    0.23017      0.00000     0.26647    0.00337     0.26983
      H   41    0.09961      0.00000     0.39950    0.00089     0.40039
      H   42    0.09706      0.00000     0.40209    0.00085     0.40294
      H   43    0.09919      0.00000     0.39988    0.00093     0.40081
 =======================================================================
   * Total *    0.00000     15.99378    46.80891    0.19731    63.00000

 Normal termination of Gaussian 16 at Fri Dec 11 02:32:13 2020.
