 Gaussian 16, Revision A.03,

 -----------------------------------------------------------
 # opt freq B3LYP/6-31G(d) empiricaldispersion=gd3bj scf=xqc
 -----------------------------------------------------------

 ------------------------------
 CID_91035117_JID_1492_neutraal
 ------------------------------
 Symbolic Z-matrix:
 Charge =  0 Multiplicity = 1

 SCF Done:  E(RB3LYP) =  -431.211333730     A.U. after   13 cycles
 SCF Done:  E(RB3LYP) =  -431.215299788     A.U. after   10 cycles
 SCF Done:  E(RB3LYP) =  -431.215910204     A.U. after   10 cycles
 SCF Done:  E(RB3LYP) =  -431.216198209     A.U. after   10 cycles
 SCF Done:  E(RB3LYP) =  -431.216253422     A.U. after    9 cycles
 SCF Done:  E(RB3LYP) =  -431.216317472     A.U. after    9 cycles
 SCF Done:  E(RB3LYP) =  -431.216330448     A.U. after    8 cycles
 SCF Done:  E(RB3LYP) =  -431.216336900     A.U. after    8 cycles
 SCF Done:  E(RB3LYP) =  -431.216337203     A.U. after    6 cycles
 SCF Done:  E(RB3LYP) =  -431.216337264     A.U. after    6 cycles
 Optimization completed.
    -- Stationary point found.
 Normal termination of Gaussian 16 at Tue Dec  8 20:09:31 2020.

 --------------------------------------------------------------------
 #N Geom=AllCheck Guess=TCheck SCRF=Check GenChk RB3LYP/6-31G(d) Freq
 --------------------------------------------------------------------

 Structure from the checkpoint file:  "JID_1492.chk"
 ------------------------------
 CID_91035117_JID_1492_neutraal
 ------------------------------
 Charge =  0 Multiplicity = 1

 SCF Done:  E(RB3LYP) =  -431.216337264     A.U. after    1 cycles

  Exact polarizability: 123.391  -0.416 112.177   0.642  -0.000  96.914
 Approx polarizability: 154.434   0.814 151.309   0.992  -1.829 148.152

                      1                      2                      3
                      A                      A                      A
 Frequencies --     39.9994                63.3510                87.4515
 Red. masses --      2.8112                 3.2158                 2.9820
 Frc consts  --      0.0027                 0.0076                 0.0134
 IR Inten    --      0.0014                 0.0053                 0.0291

                      4                      5                      6
                      A                      A                      A
 Frequencies --    159.4346               170.9199               186.2641
 Red. masses --      2.5411                 1.8148                 1.1814
 Frc consts  --      0.0381                 0.0312                 0.0241
 IR Inten    --      0.0317                 0.0889                 0.0243

                      7                      8                      9
                      A                      A                      A
 Frequencies --    201.2985               206.0907               219.2700
 Red. masses --      1.3127                 1.2277                 1.3195
 Frc consts  --      0.0313                 0.0307                 0.0374
 IR Inten    --      0.0771                 0.0682                 0.0857

                     10                     11                     12
                      A                      A                      A
 Frequencies --    233.1001               268.2915               288.2019
 Red. masses --      1.2897                 2.3116                 2.3391
 Frc consts  --      0.0413                 0.0980                 0.1145
 IR Inten    --      0.1769                 0.1427                 0.1579

                     13                     14                     15
                      A                      A                      A
 Frequencies --    327.6230               349.7306               381.6280
 Red. masses --      2.4516                 2.6631                 2.2304
 Frc consts  --      0.1550                 0.1919                 0.1914
 IR Inten    --      0.0597                 0.3591                 0.8260

                     16                     17                     18
                      A                      A                      A
 Frequencies --    430.6829               455.5586               543.4630
 Red. masses --      3.0264                 2.8497                 2.7788
 Frc consts  --      0.3307                 0.3485                 0.4835
 IR Inten    --      0.2721                 0.2409                 1.4458

                     19                     20                     21
                      A                      A                      A
 Frequencies --    567.1726               773.5947               792.2860
 Red. masses --      2.5817                 2.1726                 2.6770
 Frc consts  --      0.4893                 0.7660                 0.9901
 IR Inten    --      2.7898                 5.6115                 2.9134

                     22                     23                     24
                      A                      A                      A
 Frequencies --    805.6832               831.3601               856.6463
 Red. masses --      2.6988                 1.9499                 1.7595
 Frc consts  --      1.0322                 0.7940                 0.7608
 IR Inten    --      1.3635                 6.1656                 2.1796

                     25                     26                     27
                      A                      A                      A
 Frequencies --    867.0442               919.1698               947.2957
 Red. masses --      1.3303                 1.4893                 1.4496
 Frc consts  --      0.5892                 0.7413                 0.7664
 IR Inten    --      2.2659                 5.9757                 5.2179

                     28                     29                     30
                      A                      A                      A
 Frequencies --    965.3726               973.2655               994.4627
 Red. masses --      1.1950                 1.3155                 1.9967
 Frc consts  --      0.6561                 0.7342                 1.1634
 IR Inten    --      9.8527                 2.5074                 2.1721

                     31                     32                     33
                      A                      A                      A
 Frequencies --   1031.0106              1038.0274              1069.1048
 Red. masses --      1.4607                 1.6420                 1.3319
 Frc consts  --      0.9148                 1.0424                 0.8969
 IR Inten    --      2.4290                 4.3086                 3.5813

                     34                     35                     36
                      A                      A                      A
 Frequencies --   1076.2387              1099.2279              1119.0073
 Red. masses --      1.7560                 1.5223                 2.0849
 Frc consts  --      1.1984                 1.0837                 1.5381
 IR Inten    --      2.5635                 3.2769                 2.5506

                     37                     38                     39
                      A                      A                      A
 Frequencies --   1120.5455              1126.7599              1147.0232
 Red. masses --      1.5951                 1.6664                 1.7126
 Frc consts  --      1.1800                 1.2465                 1.3275
 IR Inten    --      2.5255                 1.9808                 1.7596

                     40                     41                     42
                      A                      A                      A
 Frequencies --   1153.3269              1157.3561              1195.2940
 Red. masses --      1.8117                 1.4220                 1.8704
 Frc consts  --      1.4198                 1.1222                 1.5744
 IR Inten    --      3.3031                 1.4030                10.1044

                     43                     44                     45
                      A                      A                      A
 Frequencies --   1212.3632              1214.3441              1221.7081
 Red. masses --      1.6991                 1.9308                 2.1134
 Frc consts  --      1.4714                 1.6775                 1.8585
 IR Inten    --      1.7088                 1.5697                 1.0684

                     46                     47                     48
                      A                      A                      A
 Frequencies --   1250.2085              1259.6981              1298.0343
 Red. masses --      1.4739                 1.5331                 1.3203
 Frc consts  --      1.3573                 1.4333                 1.3107
 IR Inten    --      0.7638                 0.7087                 3.8847

                     49                     50                     51
                      A                      A                      A
 Frequencies --   1333.7389              1369.1944              1408.7769
 Red. masses --      1.3117                 1.2952                 1.4090
 Frc consts  --      1.3747                 1.4305                 1.6476
 IR Inten    --      5.7977                 3.7095                 2.5892

                     52                     53                     54
                      A                      A                      A
 Frequencies --   1414.5716              1434.1467              1441.7447
 Red. masses --      1.4386                 1.2594                 1.3534
 Frc consts  --      1.6960                 1.5262                 1.6575
 IR Inten    --      4.7003                 4.6493                 0.4225

                     55                     56                     57
                      A                      A                      A
 Frequencies --   1443.1415              1447.6808              1455.8992
 Red. masses --      1.2617                 1.2851                 1.5131
 Frc consts  --      1.5482                 1.5868                 1.8897
 IR Inten    --      3.2217                 2.6341                 1.4110

                     58                     59                     60
                      A                      A                      A
 Frequencies --   1500.2917              1521.0718              1522.5147
 Red. masses --      2.1252                 1.2218                 1.0498
 Frc consts  --      2.8184                 1.6655                 1.4338
 IR Inten    --      2.7256                 1.4763                 2.4271

                     61                     62                     63
                      A                      A                      A
 Frequencies --   1522.7745              1524.0230              1527.7861
 Red. masses --      1.0708                 1.0561                 1.0520
 Frc consts  --      1.4630                 1.4452                 1.4468
 IR Inten    --      4.9616                 8.6143                 2.1862

                     64                     65                     66
                      A                      A                      A
 Frequencies --   1528.3179              1531.1430              1535.6465
 Red. masses --      1.0500                 1.0466                 1.1538
 Frc consts  --      1.4450                 1.4457                 1.6032
 IR Inten    --      0.7152                10.0937                 0.7331

                     67                     68                     69
                      A                      A                      A
 Frequencies --   1540.0481              3034.9401              3039.6934
 Red. masses --      1.1943                 1.0351                 1.0427
 Frc consts  --      1.6689                 5.6172                 5.6761
 IR Inten    --      2.4157                51.0104                24.4217

                     70                     71                     72
                      A                      A                      A
 Frequencies --   3041.8737              3044.3625              3051.5746
 Red. masses --      1.0374                 1.0367                 1.0754
 Frc consts  --      5.6557                 5.6609                 5.9000
 IR Inten    --     14.9310                33.5296                23.5974

                     73                     74                     75
                      A                      A                      A
 Frequencies --   3095.3554              3095.9431              3097.7284
 Red. masses --      1.1024                 1.1022                 1.1023
 Frc consts  --      6.2232                 6.2247                 6.2322
 IR Inten    --      6.5804                60.3096                37.7988

                     76                     77                     78
                      A                      A                      A
 Frequencies --   3099.7508              3107.2391              3109.9577
 Red. masses --      1.0999                 1.0964                 1.0918
 Frc consts  --      6.2268                 6.2370                 6.2216
 IR Inten    --     20.4101                15.7314                13.8595

                     79                     80                     81
                      A                      A                      A
 Frequencies --   3114.2220              3115.6815              3123.0620
 Red. masses --      1.0948                 1.0963                 1.0879
 Frc consts  --      6.2558                 6.2703                 6.2515
 IR Inten    --     12.7168                13.1360                21.8071

                     82                     83                     84
                      A                      A                      A
 Frequencies --   3123.8873              3127.6659              3136.8997
 Red. masses --      1.1023                 1.0899                 1.0643
 Frc consts  --      6.3379                 6.2815                 6.1703
 IR Inten    --     41.8366                 3.0316                33.5787

                     85                     86                     87
                      A                      A                      A
 Frequencies --   3139.8904              3143.9617              3215.4314
 Red. masses --      1.0801                 1.0909                 1.1166
 Frc consts  --      6.2737                 6.3530                 6.8016
 IR Inten    --     79.1653                45.2223                21.6541

 - Thermochemistry -
 -------------------
 Temperature   298.150 Kelvin.  Pressure   1.00000 Atm.
 Atom     1 has atomic number  6 and mass  12.00000

 Molecular mass:   152.15650 amu.
 Principal axes and moments of inertia in atomic units:
                           1         2         3
     Eigenvalues --  1169.754022616.633283169.23458
           X            0.99992  -0.01246  -0.00288
           Y            0.01249   0.99986   0.01142
           Z            0.00274  -0.01145   0.99993
 This molecule is an asymmetric top.
 Rotational symmetry number  1.
 Warning -- assumption of classical behavior for rotation
           may cause significant error
 Rotational temperatures (Kelvin)      0.07404     0.03310     0.02733
 Rotational constants (GHZ):           1.54284     0.68972     0.56946
 Zero-point vibrational energy     752191.7 (Joules/Mol)
                                  179.77812 (Kcal/Mol)
 Warning -- explicit consideration of  19 degrees of freedom as
           vibrations may cause significant error
 Vibrational temperatures:     57.55    91.15   125.82   229.39   245.92
          (Kelvin)            267.99   289.62   296.52   315.48   335.38
                              386.01   414.66   471.38   503.18   549.08
                              619.66   655.45   781.92   816.03  1113.03
                             1139.92  1159.20  1196.14  1232.52  1247.48
                             1322.48  1362.95  1388.96  1400.31  1430.81
                             1483.39  1493.49  1538.20  1548.47  1581.54
                             1610.00  1612.21  1621.16  1650.31  1659.38
                             1665.18  1719.76  1744.32  1747.17  1757.77
                             1798.77  1812.42  1867.58  1918.95  1969.97
                             2026.92  2035.25  2063.42  2074.35  2076.36
                             2082.89  2094.71  2158.59  2188.48  2190.56
                             2190.93  2192.73  2198.14  2198.91  2202.97
                             2209.45  2215.79  4366.60  4373.44  4376.58
                             4380.16  4390.54  4453.53  4454.37  4456.94
                             4459.85  4470.62  4474.54  4480.67  4482.77
                             4493.39  4494.58  4500.01  4513.30  4517.60
                             4523.46  4626.29

 Zero-point correction=                           0.286495 (Hartree/Particle)
 Thermal correction to Energy=                    0.299742
 Thermal correction to Enthalpy=                  0.300686
 Thermal correction to Gibbs Free Energy=         0.247290
 Sum of electronic and zero-point Energies=           -430.929843
 Sum of electronic and thermal Energies=              -430.916595
 Sum of electronic and thermal Enthalpies=            -430.915651
 Sum of electronic and thermal Free Energies=         -430.969047

                     E (Thermal)             CV                S
                      KCal/Mol        Cal/Mol-Kelvin    Cal/Mol-Kelvin
 Total                  188.091             49.693            112.382
 Electronic               0.000              0.000              0.000
 Translational            0.889              2.981             40.969
 Rotational               0.889              2.981             30.651
 Vibrational            186.314             43.731             40.762
 Vibration     1          0.594              1.981              5.259
 Vibration     2          0.597              1.972              4.350
 Vibration     3          0.601              1.958              3.716
 Vibration     4          0.621              1.892              2.556
 Vibration     5          0.626              1.878              2.425
 Vibration     6          0.632              1.859              2.265
 Vibration     7          0.638              1.838              2.121
 Vibration     8          0.641              1.831              2.078
 Vibration     9          0.647              1.812              1.965
 Vibration    10          0.654              1.790              1.855
 Vibration    11          0.673              1.731              1.607
 Vibration    12          0.685              1.696              1.484
 Vibration    13          0.711              1.620              1.272
 Vibration    14          0.727              1.576              1.167
 Vibration    15          0.751              1.509              1.033
 Vibration    16          0.792              1.403              0.856
 Vibration    17          0.814              1.349              0.779
 Vibration    18          0.899              1.154              0.558
 Vibration    19          0.923              1.102              0.510

                           ! Non-Optimized Parameters !
 Normal termination of Gaussian 16 at Tue Dec  8 20:17:22 2020.

 ----------------------------------------------------------------------
 # B3LYP/6-311++G(d,p) empiricaldispersion=gd3bj scf=xqc pop=npa geom=c
 heck
 ----------------------------------------------------------------------

 --------------------------------------
 CID_91035117_JID_1492_Energie_neutraal
 --------------------------------------
 Structure from the checkpoint file:  "JID_1492.chk"
 Charge =  0 Multiplicity = 1

 SCF Done:  E(RB3LYP) =  -431.333219893     A.U. after   12 cycles
 Normal termination of Gaussian 16 at Tue Dec  8 20:20:59 2020.

 ----------------------------------------------------------------------
 # B3LYP/6-311++G(d,p) empiricaldispersion=gd3bj scf=xqc pop=npa geom=c
 heck
 ----------------------------------------------------------------------

 ------------------------------------
 CID_91035117_JID_1492_Energie_kation
 ------------------------------------
 Structure from the checkpoint file:  "JID_1492.chk"
 Charge =  1 Multiplicity = 2

 SCF Done:  E(UB3LYP) =  -431.012341577     A.U. after   22 cycles
 Normal termination of Gaussian 16 at Tue Dec  8 20:30:25 2020.
 Gaussian 16:  ES64L-G16RevA.03 25-Dec-2016

 ----------------------------------------------------------------------
 # B3LYP/6-311++G(d,p) empiricaldispersion=gd3bj scf=xqc pop=npa geom=c
 heck
 ----------------------------------------------------------------------

 -----------------------------------
 CID_91035117_JID_1492_Energie_anion
 -----------------------------------
 Structure from the checkpoint file:  "JID_1492.chk"
 Charge = -1 Multiplicity = 2

                         Standard orientation:
 ---------------------------------------------------------------------
 Center     Atomic      Atomic             Coordinates (Angstroms)
 Number     Number       Type             X           Y           Z
 ---------------------------------------------------------------------
      1          6           0        3.205593   -0.429801   -1.004135
      2          6           0        2.746524    0.566921    0.039239
      3          6           0        1.704370    1.610466   -0.294221
      4          6           0        1.378108    0.508833    0.684613
      5          6           0        0.349805   -0.562408    0.357653
      6          6           0        0.637218   -1.853539    1.137615
      7          6           0       -1.049069   -0.046100    0.651487
      8          6           0       -1.807554    0.798613   -0.342102
      9          6           0       -2.296512   -0.594458   -0.016001
     10          6           0       -2.257883   -1.702474   -1.047167
     11          6           0       -2.570344    2.027016    0.099333
     12          1           0        2.389339   -0.727586   -1.670156
     13          1           0        3.606079   -1.340429   -0.541998
     14          1           0        3.995715    0.002072   -1.630285
     15          1           0        3.545831    0.902368    0.698787
     16          1           0        1.831496    2.625506    0.072235
     17          1           0        1.243284    1.551948   -1.277793
     18          1           0        1.354503    0.807451    1.733294
     19          1           0        0.415354   -0.787420   -0.713590
     20          1           0        0.582825   -1.670900    2.218327
     21          1           0       -0.093237   -2.632707    0.895047
     22          1           0        1.639289   -2.235549    0.914791
     23          1           0       -1.181957    0.240945    1.696168
     24          1           0       -1.327983    0.893776   -1.316737
     25          1           0       -3.173889   -0.632381    0.629837
     26          1           0       -2.235155   -2.692339   -0.574936
     27          1           0       -3.143420   -1.662115   -1.693230
     28          1           0       -1.378700   -1.625560   -1.695071
     29          1           0       -1.907927    2.897866    0.179477
     30          1           0       -3.373696    2.277775   -0.604670
     31          1           0       -3.029294    1.868862    1.082615
 ---------------------------------------------------------------------

 SCF Done:  E(UB3LYP) =  -431.314497428     A.U. after   29 cycles

 The electronic state is 2-A.
 Alpha  occ. eigenvalues --  -10.07312 -10.07216 -10.07056 -10.06938 -10.06839
 Alpha  occ. eigenvalues --  -10.06623 -10.06208 -10.06055 -10.06054 -10.05986
 Alpha  occ. eigenvalues --  -10.05407  -0.77231  -0.75433  -0.66491  -0.62688
 Alpha  occ. eigenvalues --   -0.60954  -0.58976  -0.53696  -0.48665  -0.46937
 Alpha  occ. eigenvalues --   -0.45410  -0.43695  -0.39236  -0.37360  -0.35714
 Alpha  occ. eigenvalues --   -0.34091  -0.32114  -0.31002  -0.30644  -0.30187
 Alpha  occ. eigenvalues --   -0.29401  -0.28976  -0.28766  -0.27994  -0.26842
 Alpha  occ. eigenvalues --   -0.25567  -0.24638  -0.23453  -0.22595  -0.18294
 Alpha  occ. eigenvalues --   -0.17766  -0.16575  -0.15734   0.04661
 Alpha virt. eigenvalues --    0.06566   0.06897   0.07401   0.08679   0.08842
 Alpha virt. eigenvalues --    0.09200   0.09867   0.10305   0.10983   0.11108
 Alpha virt. eigenvalues --    0.12026   0.12247   0.13014   0.13283   0.13967

  Beta  occ. eigenvalues --  -10.07307 -10.07205 -10.07046 -10.06934 -10.06831
  Beta  occ. eigenvalues --  -10.06617 -10.06195 -10.06031 -10.06028 -10.05956
  Beta  occ. eigenvalues --  -10.05387  -0.77210  -0.75406  -0.66469  -0.62650
  Beta  occ. eigenvalues --   -0.60907  -0.58931  -0.53650  -0.48620  -0.46899
  Beta  occ. eigenvalues --   -0.45369  -0.43651  -0.39187  -0.37318  -0.35683
  Beta  occ. eigenvalues --   -0.34055  -0.32089  -0.30970  -0.30613  -0.30158
  Beta  occ. eigenvalues --   -0.29369  -0.28947  -0.28731  -0.27965  -0.26805
  Beta  occ. eigenvalues --   -0.25529  -0.24593  -0.23425  -0.22564  -0.18272
  Beta  occ. eigenvalues --   -0.17743  -0.16557  -0.15716
  Beta virt. eigenvalues --    0.06757   0.07503   0.07643   0.07859   0.09225
  Beta virt. eigenvalues --    0.09410   0.09763   0.10377   0.10613   0.11492
  Beta virt. eigenvalues --    0.11672   0.12450   0.12611   0.13321   0.13624

 Mulliken charges and spin densities:
               1          2
     1  C    1.009266  -1.693626
     2  C   -0.135406   0.252647
     3  C    0.177669  -0.801413
     4  C   -0.706886   0.799771
     5  C   -0.386327   0.398933
     6  C    0.482823  -1.260416
     7  C    1.263030  -1.091110
     8  C   -1.572334   1.575947
     9  C   -0.520426   0.490234
    10  C    1.029268  -1.705304
    11  C    0.690778  -1.367037
    12  H   -0.430770   0.573451
    13  H   -0.110837   0.250628
    14  H   -0.215338   0.359444
    15  H   -0.464505   0.664692
    16  H   -0.288554   0.439376
    17  H    0.086057   0.035723
    18  H   -0.078059   0.300406
    19  H    0.628636  -0.512744
    20  H   -0.151518   0.293097
    21  H   -0.034624   0.158001
    22  H    0.101277   0.030856
    23  H    0.141484   0.071884
    24  H   -0.059986   0.238537
    25  H   -0.307709   0.515685
    26  H   -0.089496   0.228171
    27  H   -0.201271   0.346482
    28  H   -0.366635   0.504323
    29  H   -0.028498   0.171803
    30  H   -0.234889   0.374995
    31  H   -0.226217   0.356563
 Sum of Mulliken charges =  -1.00000   1.00000

 Dipole moment (field-independent basis, Debye):
    X=             -0.5060    Y=             -0.0778    Z=              0.5105  Tot=              0.7230
 Quadrupole moment (field-independent basis, Debye-Ang):
   XX=           -148.2086   YY=           -117.5320   ZZ=           -108.5719
   XY=             -1.1076   XZ=             -0.8016   YZ=             -4.2682

 Summary of Natural Population Analysis:

                                       Natural Population
                Natural  -----------------------------------------------
    Atom  No    Charge         Core      Valence    Rydberg      Total
 -----------------------------------------------------------------------
      C    1   -0.28617      0.99965     2.28034    0.00619     3.28617
      C    2   -0.11085      0.99959     2.10087    0.01040     3.11085
      C    3   -0.19443      0.99959     2.18578    0.00906     3.19443
      C    4   -0.10416      0.99955     2.09313    0.01148     3.10416
      C    5   -0.11898      0.99956     2.10758    0.01184     3.11898
      C    6   -0.28011      0.99964     2.27476    0.00571     3.28011
      C    7   -0.10061      0.99953     2.08988    0.01119     3.10061
      C    8   -0.10840      0.99956     2.09949    0.00936     3.10840
      C    9   -0.10806      0.99956     2.09776    0.01074     3.10806
      C   10   -0.28553      0.99965     2.27975    0.00614     3.28553
      C   11   -0.28161      0.99965     2.27639    0.00557     3.28161
      H   12    0.09753      0.00000     0.40116    0.00131     0.40247
      H   13    0.09921      0.00000     0.39959    0.00121     0.40079
      H   14    0.09994      0.00000     0.39899    0.00107     0.40006
      H   15    0.10050      0.00000     0.39795    0.00155     0.39950
      H   16    0.10219      0.00000     0.39676    0.00105     0.39781
      H   17    0.09847      0.00000     0.40022    0.00131     0.40153
      H   18    0.10186      0.00000     0.39673    0.00141     0.39814
      H   19    0.09707      0.00000     0.39985    0.00308     0.40293
      H   20    0.09583      0.00000     0.40316    0.00101     0.40417
      H   21    0.09919      0.00000     0.39991    0.00090     0.40081
      H   22    0.09980      0.00000     0.39926    0.00094     0.40020
      H   23    0.10045      0.00000     0.39818    0.00137     0.39955
      H   24    0.09703      0.00000     0.40101    0.00196     0.40297
      H   25    0.09909      0.00000     0.39975    0.00116     0.40091
      H   26    0.09825      0.00000     0.40071    0.00104     0.40175
      H   27    0.10030      0.00000     0.39854    0.00116     0.39970
      H   28    0.09803      0.00000     0.40065    0.00132     0.40197
      H   29    0.09904      0.00000     0.39993    0.00103     0.40096
      H   30    0.09784      0.00000     0.40109    0.00107     0.40216
      H   31    0.09733      0.00000     0.40145    0.00122     0.40267
 =======================================================================
   * Total *   -0.00000     10.99555    31.88060    0.12385    43.00000

 Normal termination of Gaussian 16 at Tue Dec  8 20:42:07 2020.
