 Gaussian 16, Revision A.03,

 -----------------------------------------------------------
 # opt freq B3LYP/6-31G(d) empiricaldispersion=gd3bj scf=xqc
 -----------------------------------------------------------

 ------------------------------
 CID_62597783_JID_3799_neutraal
 ------------------------------
 Symbolic Z-matrix:
 Charge =  0 Multiplicity = 1

 SCF Done:  E(RB3LYP) =  -563.000206351     A.U. after   13 cycles
 SCF Done:  E(RB3LYP) =  -563.001923249     A.U. after   12 cycles
 SCF Done:  E(RB3LYP) =  -563.001168933     A.U. after   12 cycles
 SCF Done:  E(RB3LYP) =  -563.002391986     A.U. after   12 cycles
 SCF Done:  E(RB3LYP) =  -563.003179323     A.U. after   12 cycles
 SCF Done:  E(RB3LYP) =  -563.003649946     A.U. after   10 cycles
 SCF Done:  E(RB3LYP) =  -563.003738794     A.U. after   10 cycles
 SCF Done:  E(RB3LYP) =  -563.003758526     A.U. after    9 cycles
 SCF Done:  E(RB3LYP) =  -563.003769181     A.U. after    9 cycles
 SCF Done:  E(RB3LYP) =  -563.003772253     A.U. after    9 cycles
 SCF Done:  E(RB3LYP) =  -563.003773862     A.U. after    9 cycles
 SCF Done:  E(RB3LYP) =  -563.003774800     A.U. after    9 cycles
 SCF Done:  E(RB3LYP) =  -563.003776139     A.U. after    9 cycles
 SCF Done:  E(RB3LYP) =  -563.003776508     A.U. after    8 cycles
 SCF Done:  E(RB3LYP) =  -563.003776558     A.U. after    7 cycles
 Optimization completed.
    -- Stationary point found.
 Normal termination of Gaussian 16 at Mon Dec 14 13:15:41 2020.

 --------------------------------------------------------------------
 #N Geom=AllCheck Guess=TCheck SCRF=Check GenChk RB3LYP/6-31G(d) Freq
 --------------------------------------------------------------------

 Structure from the checkpoint file:  "JID_3799.chk"
 ------------------------------
 CID_62597783_JID_3799_neutraal
 ------------------------------
 Charge =  0 Multiplicity = 1

 SCF Done:  E(RB3LYP) =  -563.003776558     A.U. after    1 cycles

  Exact polarizability: 128.053  -4.708 128.967   5.960  -5.743 123.689
 Approx polarizability: 159.795  -7.059 181.226   8.435 -10.434 173.484

                      1                      2                      3
                      A                      A                      A
 Frequencies --     18.6345                27.6861                42.0775
 Red. masses --      4.0622                 3.2448                 2.6699
 Frc consts  --      0.0008                 0.0015                 0.0028
 IR Inten    --      0.4346                 0.1912                 0.1454

                      4                      5                      6
                      A                      A                      A
 Frequencies --     54.6571                62.3357                76.7903
 Red. masses --      2.1506                 3.3627                 3.3525
 Frc consts  --      0.0038                 0.0077                 0.0116
 IR Inten    --      0.1668                 0.0515                 2.9553

                      7                      8                      9
                      A                      A                      A
 Frequencies --    113.7289               150.5313               182.7122
 Red. masses --      3.0850                 2.5162                 2.1521
 Frc consts  --      0.0235                 0.0336                 0.0423
 IR Inten    --      1.6365                 5.0744                 0.1732

                     10                     11                     12
                      A                      A                      A
 Frequencies --    197.0463               235.3242               257.8564
 Red. masses --      2.4864                 1.1377                 1.3342
 Frc consts  --      0.0569                 0.0371                 0.0523
 IR Inten    --      0.6895                 0.2051                 0.6478

                     13                     14                     15
                      A                      A                      A
 Frequencies --    268.9949               303.7829               312.4169
 Red. masses --      2.2119                 2.4579                 2.1637
 Frc consts  --      0.0943                 0.1336                 0.1244
 IR Inten    --      1.5084                 2.2015                 0.6277

                     16                     17                     18
                      A                      A                      A
 Frequencies --    321.7010               361.2686               374.7147
 Red. masses --      2.1202                 2.4442                 2.1033
 Frc consts  --      0.1293                 0.1880                 0.1740
 IR Inten    --     10.2277                 4.6760                 0.1586

                     19                     20                     21
                      A                      A                      A
 Frequencies --    425.1890               440.3833               453.9657
 Red. masses --      1.8432                 2.1608                 2.1707
 Frc consts  --      0.1963                 0.2469                 0.2636
 IR Inten    --      1.4236                 3.8021                 0.9009

                     22                     23                     24
                      A                      A                      A
 Frequencies --    526.7799               550.2652               675.9291
 Red. masses --      2.1830                 2.0873                 1.7534
 Frc consts  --      0.3569                 0.3724                 0.4720
 IR Inten    --      2.0135                15.8650                 8.8238

                     25                     26                     27
                      A                      A                      A
 Frequencies --    744.2211               783.7222               804.9370
 Red. masses --      1.7835                 1.6653                 2.4111
 Frc consts  --      0.5820                 0.6027                 0.9204
 IR Inten    --      1.7128                92.7218                 6.2190

                     28                     29                     30
                      A                      A                      A
 Frequencies --    840.9835               875.7217               890.4144
 Red. masses --      1.8058                 2.0639                 2.1596
 Frc consts  --      0.7525                 0.9326                 1.0088
 IR Inten    --      4.7444                 5.3545                 6.7314

                     31                     32                     33
                      A                      A                      A
 Frequencies --    925.7749               942.2664               945.1048
 Red. masses --      1.8384                 1.1983                 1.3364
 Frc consts  --      0.9283                 0.6268                 0.7033
 IR Inten    --      1.9249                 0.7442                38.3414

                     34                     35                     36
                      A                      A                      A
 Frequencies --    965.4744               967.7790               979.4528
 Red. masses --      1.6549                 1.8008                 1.4189
 Frc consts  --      0.9089                 0.9937                 0.8020
 IR Inten    --      5.6862                 8.1129                 0.1301

                     37                     38                     39
                      A                      A                      A
 Frequencies --    986.4103              1019.3025              1031.7807
 Red. masses --      1.8402                 1.9353                 1.1581
 Frc consts  --      1.0550                 1.1847                 0.7264
 IR Inten    --     12.9316                11.7374                16.2996

                     40                     41                     42
                      A                      A                      A
 Frequencies --   1042.9941              1061.0383              1087.7104
 Red. masses --      2.0250                 1.7158                 2.2775
 Frc consts  --      1.2979                 1.1381                 1.5876
 IR Inten    --     28.8220                29.3542                 3.9124

                     43                     44                     45
                      A                      A                      A
 Frequencies --   1099.6908              1144.4504              1151.3245
 Red. masses --      1.7016                 2.5788                 3.0937
 Frc consts  --      1.2124                 1.9900                 2.4162
 IR Inten    --      2.3222                71.6266                32.7246

                     46                     47                     48
                      A                      A                      A
 Frequencies --   1160.7302              1189.5222              1201.1975
 Red. masses --      2.3586                 2.5189                 1.9811
 Frc consts  --      1.8723                 2.0999                 1.6842
 IR Inten    --     23.5683                40.8306                 1.5297

                     49                     50                     51
                      A                      A                      A
 Frequencies --   1208.1585              1252.6525              1265.7649
 Red. masses --      1.7801                 1.3134                 1.2011
 Frc consts  --      1.5308                 1.2143                 1.1338
 IR Inten    --      3.9438                 2.8222                14.8252

                     52                     53                     54
                      A                      A                      A
 Frequencies --   1292.6726              1302.6983              1333.3653
 Red. masses --      1.3330                 1.2157                 1.2082
 Frc consts  --      1.3124                 1.2155                 1.2656
 IR Inten    --     11.5712                13.6653                11.3993

                     55                     56                     57
                      A                      A                      A
 Frequencies --   1339.1416              1354.5466              1362.7854
 Red. masses --      1.2453                 1.1574                 1.1960
 Frc consts  --      1.3158                 1.2512                 1.3087
 IR Inten    --      2.4340                 7.3235                 4.0555

                     58                     59                     60
                      A                      A                      A
 Frequencies --   1391.8583              1397.9786              1399.6323
 Red. masses --      1.3369                 1.3309                 1.2660
 Frc consts  --      1.5259                 1.5325                 1.4612
 IR Inten    --      2.3294                28.5021                 4.9197

                     61                     62                     63
                      A                      A                      A
 Frequencies --   1413.5350              1416.3957              1429.1988
 Red. masses --      1.3779                 1.4564                 1.3265
 Frc consts  --      1.6222                 1.7214                 1.5964
 IR Inten    --      2.9883                 0.7694                11.9687

                     64                     65                     66
                      A                      A                      A
 Frequencies --   1430.0248              1448.5413              1454.0194
 Red. masses --      1.3051                 1.2384                 1.2863
 Frc consts  --      1.5724                 1.5310                 1.6023
 IR Inten    --      5.8550                 5.2270                 4.9826

                     67                     68                     69
                      A                      A                      A
 Frequencies --   1478.1380              1501.5408              1505.1171
 Red. masses --      1.1900                 1.1555                 1.0799
 Frc consts  --      1.5319                 1.5350                 1.4413
 IR Inten    --      7.6057                 7.1687                 1.4218

                     70                     71                     72
                      A                      A                      A
 Frequencies --   1515.7161              1516.8529              1523.0651
 Red. masses --      1.0866                 1.0861                 1.0580
 Frc consts  --      1.4708                 1.4723                 1.4460
 IR Inten    --      1.9103                 0.0613                 4.7691

                     73                     74                     75
                      A                      A                      A
 Frequencies --   1526.0153              1529.8340              1534.8226
 Red. masses --      1.1151                 1.0785                 1.1114
 Frc consts  --      1.5300                 1.4872                 1.5426
 IR Inten    --      3.9147                 5.6372                 2.7350

                     76                     77                     78
                      A                      A                      A
 Frequencies --   1536.1248              1542.5213              1547.7168
 Red. masses --      1.0711                 1.0508                 1.0821
 Frc consts  --      1.4891                 1.4732                 1.5273
 IR Inten    --      1.1814                 7.7184                 0.7976

                     79                     80                     81
                      A                      A                      A
 Frequencies --   1738.8925              2919.4542              2929.0311
 Red. masses --      4.5779                 1.0730                 1.0737
 Frc consts  --      8.1557                 5.3884                 5.4272
 IR Inten    --      1.7557                65.4384               128.6126

                     82                     83                     84
                      A                      A                      A
 Frequencies --   2998.9975              3021.6553              3032.9104
 Red. masses --      1.0696                 1.0647                 1.0362
 Frc consts  --      5.6677                 5.7273                 5.6161
 IR Inten    --     54.1268                20.7476                35.8058

                     85                     86                     87
                      A                      A                      A
 Frequencies --   3034.3683              3039.7862              3047.9295
 Red. masses --      1.0574                 1.0518                 1.0710
 Frc consts  --      5.7362                 5.7265                 5.8622
 IR Inten    --     10.4679                21.3369                15.3101

                     88                     89                     90
                      A                      A                      A
 Frequencies --   3053.4647              3064.0880              3077.9140
 Red. masses --      1.0669                 1.0971                 1.1010
 Frc consts  --      5.8607                 6.0690                 6.1456
 IR Inten    --     59.1923                32.2189                53.9019

                     91                     92                     93
                      A                      A                      A
 Frequencies --   3086.7811              3089.7688              3096.0588
 Red. masses --      1.0881                 1.0916                 1.0982
 Frc consts  --      6.1084                 6.1401                 6.2022
 IR Inten    --     21.9400                41.5786                26.6323

                     94                     95                     96
                      A                      A                      A
 Frequencies --   3096.7292              3100.9078              3105.5315
 Red. masses --      1.0917                 1.1018                 1.1007
 Frc consts  --      6.1680                 6.2421                 6.2543
 IR Inten    --     13.6734                40.9497                73.6032

                     97                     98                     99
                      A                      A                      A
 Frequencies --   3117.4915              3119.7345              3153.3816
 Red. masses --      1.1005                 1.1002                 1.0604
 Frc consts  --      6.3015                 6.3089                 6.2127
 IR Inten    --     43.1202                13.6465                20.2049

                    100                    101                    102
                      A                      A                      A
 Frequencies --   3163.6128              3235.9058              3490.2201
 Red. masses --      1.0898                 1.1154                 1.0743
 Frc consts  --      6.4261                 6.8815                 7.7107
 IR Inten    --      6.9927                19.6642                 1.0341

 - Thermochemistry -
 -------------------
 Temperature   298.150 Kelvin.  Pressure   1.00000 Atm.
 Atom     1 has atomic number  6 and mass  12.00000

 Molecular mass:   185.17796 amu.
 Principal axes and moments of inertia in atomic units:
                           1         2         3
     Eigenvalues --  2066.110924296.131164896.14925
           X            0.99991   0.01280   0.00300
           Y           -0.01276   0.99981  -0.01496
           Z           -0.00319   0.01492   0.99988
 This molecule is an asymmetric top.
 Rotational symmetry number  1.
 Warning -- assumption of classical behavior for rotation
           may cause significant error
 Rotational temperatures (Kelvin)      0.04192     0.02016     0.01769
 Rotational constants (GHZ):           0.87350     0.42009     0.36860
 Zero-point vibrational energy     872327.8 (Joules/Mol)
                                  208.49136 (Kcal/Mol)
 Warning -- explicit consideration of  23 degrees of freedom as
           vibrations may cause significant error
 Vibrational temperatures:     26.81    39.83    60.54    78.64    89.69
          (Kelvin)            110.48   163.63   216.58   262.88   283.51
                              338.58   371.00   387.02   437.08   449.50
                              462.86   519.78   539.13   611.75   633.61
                              653.16   757.92   791.71   972.51  1070.77
                             1127.60  1158.12  1209.99  1259.97  1281.11
                             1331.98  1355.71  1359.79  1389.10  1392.42
                             1409.21  1419.22  1466.55  1484.50  1500.64
                             1526.60  1564.97  1582.21  1646.61  1656.50
                             1670.03  1711.46  1728.26  1738.27  1802.29
                             1821.15  1859.87  1874.29  1918.42  1926.73
                             1948.89  1960.74  2002.57  2011.38  2013.76
                             2033.76  2037.88  2056.30  2057.49  2084.13
                             2092.01  2126.71  2160.38  2165.53  2180.78
                             2182.41  2191.35  2195.60  2201.09  2208.27
                             2210.14  2219.34  2226.82  2501.88  4200.44
                             4214.22  4314.89  4347.49  4363.68  4365.78
                             4373.57  4385.29  4393.25  4408.54  4428.43
                             4441.19  4445.49  4454.54  4455.50  4461.51
                             4468.17  4485.37  4488.60  4537.01  4551.73
                             4655.75  5021.65

 Zero-point correction=                           0.332252 (Hartree/Particle)
 Thermal correction to Energy=                    0.348552
 Thermal correction to Enthalpy=                  0.349496
 Thermal correction to Gibbs Free Energy=         0.286118
 Sum of electronic and zero-point Energies=           -562.671524
 Sum of electronic and thermal Energies=              -562.655225
 Sum of electronic and thermal Enthalpies=            -562.654281
 Sum of electronic and thermal Free Energies=         -562.717659

                     E (Thermal)             CV                S
                      KCal/Mol        Cal/Mol-Kelvin    Cal/Mol-Kelvin
 Total                  218.720             58.848            133.391
 Electronic               0.000              0.000              0.000
 Translational            0.889              2.981             41.555
 Rotational               0.889              2.981             32.141
 Vibrational            216.942             52.886             59.695
 Vibration     1          0.593              1.986              6.775
 Vibration     2          0.593              1.984              5.989
 Vibration     3          0.595              1.980              5.159
 Vibration     4          0.596              1.976              4.641
 Vibration     5          0.597              1.972              4.382
 Vibration     6          0.599              1.965              3.971
 Vibration     7          0.607              1.938              3.204
 Vibration     8          0.618              1.902              2.666
 Vibration     9          0.630              1.863              2.301
 Vibration    10          0.636              1.844              2.161
 Vibration    11          0.655              1.787              1.838
 Vibration    12          0.667              1.749              1.676
 Vibration    13          0.673              1.730              1.603
 Vibration    14          0.695              1.667              1.396
 Vibration    15          0.701              1.650              1.349
 Vibration    16          0.707              1.632              1.301
 Vibration    17          0.735              1.552              1.117
 Vibration    18          0.746              1.524              1.060
 Vibration    19          0.787              1.415              0.875
 Vibration    20          0.800              1.382              0.825
 Vibration    21          0.812              1.352              0.784
 Vibration    22          0.882              1.191              0.594
 Vibration    23          0.906              1.139              0.544

 Optimization completed.
    -- Stationary point found.
 Normal termination of Gaussian 16 at Mon Dec 14 13:25:26 2020.

 ----------------------------------------------------------------------
 # B3LYP/6-311++G(d,p) empiricaldispersion=gd3bj scf=xqc pop=npa geom=c
 heck
 ----------------------------------------------------------------------

 --------------------------------------
 CID_62597783_JID_3799_Energie_neutraal
 --------------------------------------
 Structure from the checkpoint file:  "JID_3799.chk"
 Charge =  0 Multiplicity = 1

 SCF Done:  E(RB3LYP) =  -563.170982307     A.U. after   13 cycles
 Normal termination of Gaussian 16 at Mon Dec 14 13:30:16 2020.

 ----------------------------------------------------------------------
 # B3LYP/6-311++G(d,p) empiricaldispersion=gd3bj scf=xqc pop=npa geom=c
 heck
 ----------------------------------------------------------------------

 ------------------------------------
 CID_62597783_JID_3799_Energie_kation
 ------------------------------------
 Structure from the checkpoint file:  "JID_3799.chk"
 Charge =  1 Multiplicity = 2

 SCF Done:  E(UB3LYP) =  -562.868953022     A.U. after   20 cycles
 Normal termination of Gaussian 16 at Mon Dec 14 13:40:42 2020.
 Gaussian 16:  ES64L-G16RevA.03 25-Dec-2016

 ----------------------------------------------------------------------
 # B3LYP/6-311++G(d,p) empiricaldispersion=gd3bj scf=xqc pop=npa geom=c
 heck
 ----------------------------------------------------------------------

 -----------------------------------
 CID_62597783_JID_3799_Energie_anion
 -----------------------------------
 Structure from the checkpoint file:  "JID_3799.chk"
 Charge = -1 Multiplicity = 2

                         Standard orientation:
 ---------------------------------------------------------------------
 Center     Atomic      Atomic             Coordinates (Angstroms)
 Number     Number       Type             X           Y           Z
 ---------------------------------------------------------------------
      1          6           0       -2.303272   -2.167268    0.727633
      2          6           0       -2.144791   -1.020140   -0.278116
      3          6           0       -2.842321   -1.359705   -1.601153
      4          6           0       -2.678293    0.313990    0.275479
      5          6           0       -1.954890    0.861199    1.513867
      6          6           0       -0.470344    1.171084    1.317012
      7          8           0       -0.268572    2.265797    0.412674
      8          6           0        0.121638    1.963319   -0.912852
      9          6           0        1.515607    1.342200   -1.053771
     10          7           0        1.489023   -0.111436   -0.881313
     11          6           0        2.818714   -0.737015   -0.875491
     12          6           0        3.497129   -0.593659    0.460955
     13          6           0        3.959762   -1.613894    1.181086
     14          1           0       -3.358154   -2.303292    1.000468
     15          1           0       -1.740112   -1.984152    1.648567
     16          1           0       -1.944045   -3.112485    0.304068
     17          1           0       -1.071861   -0.906791   -0.481938
     18          1           0       -3.923122   -1.482302   -1.453228
     19          1           0       -2.699168   -0.564340   -2.343043
     20          1           0       -2.458048   -2.293856   -2.028075
     21          1           0       -2.637935    1.073911   -0.515594
     22          1           0       -3.744438    0.187721    0.514588
     23          1           0       -2.454479    1.783186    1.837118
     24          1           0       -2.043630    0.152112    2.348394
     25          1           0       -0.045768    1.495609    2.274986
     26          1           0        0.091841    0.293242    0.986265
     27          1           0       -0.614867    1.318682   -1.419593
     28          1           0        0.113361    2.929785   -1.428286
     29          1           0        1.948557    1.635602   -2.030527
     30          1           0        2.155465    1.782190   -0.281551
     31          1           0        0.943005   -0.511612   -1.641917
     32          1           0        2.694003   -1.801691   -1.100493
     33          1           0        3.470522   -0.313216   -1.665684
     34          1           0        3.613189    0.421880    0.838372
     35          1           0        4.454715   -1.464260    2.136705
     36          1           0        3.862752   -2.642922    0.840308
 ---------------------------------------------------------------------

 SCF Done:  E(UB3LYP) =  -563.156707981     A.U. after   33 cycles
 SCF Done:  E(UB3LYP) =  -563.156707981     a.u. after    1 cycles

 The electronic state is 2-A.
 Alpha  occ. eigenvalues --  -19.01927 -14.19923 -10.11495 -10.10649 -10.09726
 Alpha  occ. eigenvalues --  -10.09224 -10.08146 -10.07162 -10.06870 -10.06702
 Alpha  occ. eigenvalues --  -10.06377 -10.05687 -10.05257  -0.92880  -0.80822
 Alpha  occ. eigenvalues --   -0.71483  -0.68951  -0.66592  -0.63121  -0.58548
 Alpha  occ. eigenvalues --   -0.58117  -0.55282  -0.51791  -0.49031  -0.46149
 Alpha  occ. eigenvalues --   -0.44753  -0.40723  -0.39222  -0.38675  -0.36743
 Alpha  occ. eigenvalues --   -0.36417  -0.35034  -0.34383  -0.33801  -0.32702
 Alpha  occ. eigenvalues --   -0.31604  -0.30309  -0.28762  -0.28476  -0.28171
 Alpha  occ. eigenvalues --   -0.27408  -0.26895  -0.26041  -0.25253  -0.24759
 Alpha  occ. eigenvalues --   -0.22419  -0.22150  -0.21680  -0.20262  -0.17400
 Alpha  occ. eigenvalues --   -0.15987  -0.12809   0.04566
 Alpha virt. eigenvalues --    0.06867   0.07022   0.07305   0.08549   0.08637
 Alpha virt. eigenvalues --    0.09058   0.09084   0.09463   0.10063   0.10833
 Alpha virt. eigenvalues --    0.11336   0.11450   0.12061   0.12164   0.12461

  Beta  occ. eigenvalues --  -19.01925 -14.19897 -10.11478 -10.10647 -10.09699
  Beta  occ. eigenvalues --  -10.09202 -10.08133 -10.07135 -10.06864 -10.06697
  Beta  occ. eigenvalues --  -10.06368 -10.05666 -10.05222  -0.92873  -0.80781
  Beta  occ. eigenvalues --   -0.71466  -0.68905  -0.66568  -0.63084  -0.58511
  Beta  occ. eigenvalues --   -0.58062  -0.55219  -0.51735  -0.48991  -0.46076
  Beta  occ. eigenvalues --   -0.44714  -0.40692  -0.39195  -0.38632  -0.36687
  Beta  occ. eigenvalues --   -0.36380  -0.35007  -0.34350  -0.33769  -0.32671
  Beta  occ. eigenvalues --   -0.31558  -0.30263  -0.28733  -0.28454  -0.28140
  Beta  occ. eigenvalues --   -0.27381  -0.26869  -0.26014  -0.25225  -0.24715
  Beta  occ. eigenvalues --   -0.22391  -0.22124  -0.21657  -0.20247  -0.17297
  Beta  occ. eigenvalues --   -0.15967  -0.12758
  Beta virt. eigenvalues --    0.06629   0.07255   0.07696   0.07815   0.08743
  Beta virt. eigenvalues --    0.08900   0.09208   0.09452   0.09805   0.10502
  Beta virt. eigenvalues --    0.11167   0.11552   0.11787   0.12181   0.12481

 Mulliken charges and spin densities:
               1          2
     1  C    0.345913  -1.012523
     2  C   -1.277196   1.571001
     3  C    0.274969  -0.836033
     4  C    0.495263  -0.608834
     5  C   -0.180206  -0.259550
     6  C   -0.453355   0.031927
     7  O   -0.038744   0.007531
     8  C   -0.465450   0.060055
     9  C    0.424603  -0.786895
    10  N   -0.070097   0.087411
    11  C    1.063579  -1.708210
    12  C   -0.725524   1.138060
    13  C    0.361630  -0.834088
    14  H   -0.106460   0.244847
    15  H    0.063323   0.062589
    16  H   -0.149831   0.295379
    17  H    1.384421  -1.277636
    18  H   -0.122160   0.250921
    19  H   -0.298307   0.435737
    20  H   -0.374133   0.520485
    21  H    0.095794   0.064316
    22  H    0.086528   0.060048
    23  H    0.116460   0.060244
    24  H    0.069004   0.048868
    25  H    0.045881   0.099139
    26  H    0.096435   0.144116
    27  H    0.213044  -0.066054
    28  H   -0.317320   0.479779
    29  H   -0.545742   0.667829
    30  H    0.314708  -0.153123
    31  H   -0.383730   0.635907
    32  H   -0.538257   0.696401
    33  H   -0.215727   0.355000
    34  H   -0.128065   0.238797
    35  H    0.041359   0.064569
    36  H   -0.102612   0.221991
 Sum of Mulliken charges =  -1.00000   1.00000

 Dipole moment (field-independent basis, Debye):
    X=             -0.9175    Y=              3.0933    Z=              6.1495  Tot=              6.9446
 Quadrupole moment (field-independent basis, Debye-Ang):
   XX=           -144.4517   YY=           -133.5748   ZZ=           -131.4880
   XY=             -0.4521   XZ=              3.2831   YZ=             -3.1129

 Summary of Natural Population Analysis:

                                       Natural Population
                Natural  -----------------------------------------------
    Atom  No    Charge         Core      Valence    Rydberg      Total
 -----------------------------------------------------------------------
      C    1   -0.28404      0.99965     2.27830    0.00610     3.28404
      C    2   -0.12872      0.99961     2.11952    0.00959     3.12872
      C    3   -0.28118      0.99965     2.27528    0.00625     3.28118
      C    4   -0.18902      0.99961     2.18065    0.00876     3.18902
      C    5   -0.19919      0.99962     2.19179    0.00779     3.19919
      C    6   -0.01921      0.99955     2.00821    0.01144     3.01921
      O    7   -0.30728      0.99989     3.29846    0.00893     4.30728
      C    8   -0.01110      0.99956     1.99730    0.01424     3.01110
      C    9   -0.10177      0.99962     2.09093    0.01122     3.10177
      N   10   -0.34601      0.99973     2.83250    0.01377     3.84601
      C   11   -0.10419      0.99960     2.09075    0.01385     3.10419
      C   12   -0.07919      0.99955     2.06966    0.00997     3.07919
      C   13   -0.18949      0.99956     2.18353    0.00640     3.18949
      H   14    0.09335      0.00000     0.40580    0.00085     0.40665
      H   15    0.09722      0.00000     0.40179    0.00100     0.40278
      H   16    0.10167      0.00000     0.39747    0.00086     0.39833
      H   17    0.10004      0.00000     0.39633    0.00363     0.39996
      H   18    0.09316      0.00000     0.40577    0.00107     0.40684
      H   19    0.09975      0.00000     0.39888    0.00137     0.40025
      H   20    0.10157      0.00000     0.39719    0.00125     0.39843
      H   21    0.09850      0.00000     0.40019    0.00131     0.40150
      H   22    0.09440      0.00000     0.40457    0.00104     0.40560
      H   23    0.09630      0.00000     0.40250    0.00120     0.40370
      H   24    0.09507      0.00000     0.40377    0.00116     0.40493
      H   25    0.08269      0.00000     0.41632    0.00099     0.41731
      H   26    0.10039      0.00000     0.39751    0.00210     0.39961
      H   27    0.08011      0.00000     0.41780    0.00208     0.41989
      H   28    0.09002      0.00000     0.40870    0.00129     0.40998
      H   29    0.08610      0.00000     0.41159    0.00232     0.41390
      H   30    0.09227      0.00000     0.40603    0.00170     0.40773
      H   31    0.18068      0.00000     0.31318    0.00614     0.31932
      H   32    0.09988      0.00000     0.39841    0.00171     0.40012
      H   33    0.08648      0.00000     0.41119    0.00233     0.41352
      H   34    0.08947      0.00000     0.40920    0.00133     0.41053
      H   35    0.09020      0.00000     0.40882    0.00099     0.40980
      H   36    0.09110      0.00000     0.40760    0.00130     0.40890
 =======================================================================
   * Total *    0.00000     12.99521    38.83748    0.16731    52.00000

 Normal termination of Gaussian 16 at Mon Dec 14 13:57:08 2020.
