 Gaussian 16, Revision A.03,

 -----------------------------------------------------------
 # opt freq B3LYP/6-31G(d) empiricaldispersion=gd3bj scf=xqc
 -----------------------------------------------------------

 ------------------------------
 CID_29790847_JID_5135_neutraal
 ------------------------------
 Symbolic Z-matrix:
 Charge =  0 Multiplicity = 1

 SCF Done:  E(RB3LYP) =  -1026.58048963     A.U. after   16 cycles
 SCF Done:  E(RB3LYP) =  -1026.58700315     A.U. after   12 cycles
 SCF Done:  E(RB3LYP) =  -1026.58775757     A.U. after   12 cycles
 SCF Done:  E(RB3LYP) =  -1026.58795411     A.U. after   12 cycles
 SCF Done:  E(RB3LYP) =  -1026.58809650     A.U. after   11 cycles
 SCF Done:  E(RB3LYP) =  -1026.58815935     A.U. after   11 cycles
 SCF Done:  E(RB3LYP) =  -1026.58820587     A.U. after   11 cycles
 SCF Done:  E(RB3LYP) =  -1026.58823332     A.U. after   10 cycles
 SCF Done:  E(RB3LYP) =  -1026.58825777     A.U. after   10 cycles
 SCF Done:  E(RB3LYP) =  -1026.58826187     A.U. after    9 cycles
 SCF Done:  E(RB3LYP) =  -1026.58826257     A.U. after    8 cycles
 SCF Done:  E(RB3LYP) =  -1026.58826282     A.U. after    8 cycles
 SCF Done:  E(RB3LYP) =  -1026.58826288     A.U. after    7 cycles
 SCF Done:  E(RB3LYP) =  -1026.58826293     A.U. after    7 cycles
 SCF Done:  E(RB3LYP) =  -1026.58826294     A.U. after    7 cycles
 SCF Done:  E(RB3LYP) =  -1026.58826295     A.U. after    7 cycles
 Optimization completed.
    -- Stationary point found.
 Normal termination of Gaussian 16 at Thu Dec 10 14:47:29 2020.

 --------------------------------------------------------------------
 #N Geom=AllCheck Guess=TCheck SCRF=Check GenChk RB3LYP/6-31G(d) Freq
 --------------------------------------------------------------------

 Structure from the checkpoint file:  "JID_5135.chk"
 ------------------------------
 CID_29790847_JID_5135_neutraal
 ------------------------------
 Charge =  0 Multiplicity = 1

 SCF Done:  E(RB3LYP) =  -1026.58826295     A.U. after    1 cycles

  Exact polarizability: 210.851 -11.415 149.321   9.422   8.260  80.994
 Approx polarizability: 282.777 -21.299 281.350  18.079  24.411 127.406

                      1                      2                      3
                      A                      A                      A
 Frequencies --     26.0009                47.3390                53.5907
 Red. masses --      3.1866                 4.4431                 3.5591
 Frc consts  --      0.0013                 0.0059                 0.0060
 IR Inten    --      0.4321                 0.4694                 0.6965

                      4                      5                      6
                      A                      A                      A
 Frequencies --     92.3904               121.3138               129.6766
 Red. masses --      8.3922                 4.1825                 4.9284
 Frc consts  --      0.0422                 0.0363                 0.0488
 IR Inten    --      0.1849                 0.5351                 1.9248

                      7                      8                      9
                      A                      A                      A
 Frequencies --    217.3251               228.5576               250.1308
 Red. masses --      6.8040                 1.1512                 1.9124
 Frc consts  --      0.1893                 0.0354                 0.0705
 IR Inten    --      1.4261                 0.3768                 0.6991

                     10                     11                     12
                      A                      A                      A
 Frequencies --    255.4876               290.5361               305.6047
 Red. masses --      1.5412                 4.3696                 3.5311
 Frc consts  --      0.0593                 0.2173                 0.1943
 IR Inten    --      0.0962                 4.1029                 1.8038

                     13                     14                     15
                      A                      A                      A
 Frequencies --    341.2599               354.5862               376.2089
 Red. masses --      2.8221                 3.0509                 1.2790
 Frc consts  --      0.1936                 0.2260                 0.1067
 IR Inten    --      1.5371                30.0722               167.5647

                     16                     17                     18
                      A                      A                      A
 Frequencies --    417.0284               433.7324               443.0025
 Red. masses --      2.5842                 2.5903                 4.0650
 Frc consts  --      0.2648                 0.2871                 0.4700
 IR Inten    --      0.4598                 2.4245                 0.3068

                     19                     20                     21
                      A                      A                      A
 Frequencies --    468.5951               478.4029               589.3902
 Red. masses --      5.5786                 5.2043                 4.8459
 Frc consts  --      0.7217                 0.7018                 0.9918
 IR Inten    --      1.3007                 3.1824                 7.2432

                     22                     23                     24
                      A                      A                      A
 Frequencies --    602.4558               660.7116               677.5539
 Red. masses --      1.2752                 2.8264                 4.4070
 Frc consts  --      0.2727                 0.7270                 1.1920
 IR Inten    --    120.5362                 4.6143                 6.2015

                     25                     26                     27
                      A                      A                      A
 Frequencies --    698.5376               730.8282               765.2708
 Red. masses --      5.4854                 2.7638                 3.0122
 Frc consts  --      1.5770                 0.8697                 1.0394
 IR Inten    --      9.3342                 6.9710                50.1802

                     28                     29                     30
                      A                      A                      A
 Frequencies --    799.9452               837.2817               843.8987
 Red. masses --      6.3171                 3.0008                 5.0391
 Frc consts  --      2.3817                 1.2394                 2.1144
 IR Inten    --     17.7192                 2.1812                22.3042

                     31                     32                     33
                      A                      A                      A
 Frequencies --    874.0542               891.6451               908.8947
 Red. masses --      1.2811                 2.9642                 2.3378
 Frc consts  --      0.5766                 1.3885                 1.1378
 IR Inten    --      0.8748                11.6872                 8.8244

                     34                     35                     36
                      A                      A                      A
 Frequencies --    947.2710               950.1141               966.2330
 Red. masses --      1.2011                10.8886                 2.0962
 Frc consts  --      0.6350                 5.7913                 1.1530
 IR Inten    --      3.4973                 5.9629                 0.7096

                     37                     38                     39
                      A                      A                      A
 Frequencies --    980.7231              1018.1631              1042.9432
 Red. masses --      1.5091                 2.8269                 5.7861
 Frc consts  --      0.8552                 1.7266                 3.7082
 IR Inten    --      0.0111                 6.5935                 1.4048

                     40                     41                     42
                      A                      A                      A
 Frequencies --   1122.7237              1124.7965              1134.8255
 Red. masses --      1.1097                 2.3882                 3.5386
 Frc consts  --      0.8242                 1.7802                 2.6850
 IR Inten    --     16.1928                 3.0003                14.5204

                     43                     44                     45
                      A                      A                      A
 Frequencies --   1153.6349              1162.1946              1206.0870
 Red. masses --      2.0518                 2.0380                 1.7165
 Frc consts  --      1.6089                 1.6218                 1.4711
 IR Inten    --      1.7770                 9.7772                15.9593

                     46                     47                     48
                      A                      A                      A
 Frequencies --   1259.5431              1318.1079              1329.6144
 Red. masses --      1.5227                 1.5618                 1.2719
 Frc consts  --      1.4233                 1.5987                 1.3248
 IR Inten    --     32.6147                16.9917                15.0350

                     49                     50                     51
                      A                      A                      A
 Frequencies --   1342.5694              1383.9940              1389.8029
 Red. masses --      4.8966                 1.5006                 1.4503
 Frc consts  --      5.2002                 1.6935                 1.6505
 IR Inten    --     18.0236                19.4365                 3.4560

                     52                     53                     54
                      A                      A                      A
 Frequencies --   1423.9394              1432.1208              1451.7414
 Red. masses --      4.0647                 1.2751                 1.2330
 Frc consts  --      4.8558                 1.5408                 1.5310
 IR Inten    --    188.4276                 3.8581                 5.4072

                     55                     56                     57
                      A                      A                      A
 Frequencies --   1477.7739              1490.6010              1502.7018
 Red. masses --      4.6074                 4.8705                 1.1853
 Frc consts  --      5.9282                 6.3760                 1.5770
 IR Inten    --     26.3851                32.0010                13.2737

                     58                     59                     60
                      A                      A                      A
 Frequencies --   1518.9783              1524.0005              1534.0596
 Red. masses --      1.0454                 1.0556                 1.0587
 Frc consts  --      1.4212                 1.4445                 1.4680
 IR Inten    --      3.1045                 2.9006                 7.7550

                     61                     62                     63
                      A                      A                      A
 Frequencies --   1540.2380              1575.8553              1604.6326
 Red. masses --      1.0540                 6.9720                 3.5115
 Frc consts  --      1.4732                10.2009                 5.3271
 IR Inten    --     13.5052                 6.2695               205.7048

                     64                     65                     66
                      A                      A                      A
 Frequencies --   1615.7635              1686.4232              3032.3588
 Red. masses --      8.0765                 1.4250                 1.0816
 Frc consts  --     12.4231                 2.3879                 5.8597
 IR Inten    --    297.9423               174.1961                 3.6187

                     67                     68                     69
                      A                      A                      A
 Frequencies --   3038.5056              3044.2219              3059.0817
 Red. masses --      1.0367                 1.0414                 1.0617
 Frc consts  --      5.6394                 5.6861                 5.8536
 IR Inten    --     23.9269                27.9371                28.4404

                     70                     71                     72
                      A                      A                      A
 Frequencies --   3101.3016              3105.5467              3113.0887
 Red. masses --      1.1006                 1.1009                 1.1014
 Frc consts  --      6.2369                 6.2554                 6.2888
 IR Inten    --      6.3505                30.0799                47.1407

                     73                     74                     75
                      A                      A                      A
 Frequencies --   3116.0046              3141.1861              3222.4724
 Red. masses --      1.1022                 1.0994                 1.0913
 Frc consts  --      6.3053                 6.3912                 6.6766
 IR Inten    --     39.3272                23.7797                 7.3570

                     76                     77                     78
                      A                      A                      A
 Frequencies --   3269.8000              3505.1868              3668.4505
 Red. masses --      1.0967                 1.0539                 1.0950
 Frc consts  --      6.9084                 7.6290                 8.6825
 IR Inten    --      0.2529                65.2244                54.6747

 - Thermochemistry -
 -------------------
 Temperature   298.150 Kelvin.  Pressure   1.00000 Atm.
 Atom     1 has atomic number  6 and mass  12.00000

 Molecular mass:   223.07793 amu.
 Principal axes and moments of inertia in atomic units:
                           1         2         3
     Eigenvalues --  1389.156086685.065007750.25049
           X            0.99999   0.00124  -0.00375
           Y           -0.00125   0.99999  -0.00349
           Z            0.00374   0.00350   0.99999
 This molecule is an asymmetric top.
 Rotational symmetry number  1.
 Warning -- assumption of classical behavior for rotation
           may cause significant error
 Rotational temperatures (Kelvin)      0.06235     0.01296     0.01118
 Rotational constants (GHZ):           1.29916     0.26997     0.23286
 Zero-point vibrational energy     591198.2 (Joules/Mol)
                                  141.29975 (Kcal/Mol)
 Warning -- explicit consideration of  22 degrees of freedom as
           vibrations may cause significant error
 Vibrational temperatures:     37.41    68.11    77.11   132.93   174.54
          (Kelvin)            186.58   312.68   328.84   359.88   367.59
                              418.02   439.70   491.00   510.17   541.28
                              600.01   624.04   637.38   674.20   688.32
                              848.00   866.80   950.62   974.85  1005.04
                             1051.50  1101.05  1150.94  1204.66  1214.18
                             1257.57  1282.88  1307.70  1362.91  1367.00
                             1390.19  1411.04  1464.91  1500.56  1615.35
                             1618.33  1632.76  1659.82  1672.14  1735.29
                             1812.20  1896.46  1913.02  1931.66  1991.26
                             1999.62  2048.73  2060.50  2088.73  2126.19
                             2144.64  2162.05  2185.47  2192.70  2207.17
                             2216.06  2267.30  2308.71  2324.72  2426.39
                             4362.89  4371.73  4379.96  4401.34  4462.08
                             4468.19  4479.04  4483.24  4519.47  4636.42
                             4704.51  5043.18  5278.08

 Zero-point correction=                           0.225175 (Hartree/Particle)
 Thermal correction to Energy=                    0.239680
 Thermal correction to Enthalpy=                  0.240624
 Thermal correction to Gibbs Free Energy=         0.182511
 Sum of electronic and zero-point Energies=          -1026.363087
 Sum of electronic and thermal Energies=             -1026.348583
 Sum of electronic and thermal Enthalpies=           -1026.347638
 Sum of electronic and thermal Free Energies=        -1026.405752

                     E (Thermal)             CV                S
                      KCal/Mol        Cal/Mol-Kelvin    Cal/Mol-Kelvin
 Total                  150.402             54.824            122.310
 Electronic               0.000              0.000              0.000
 Translational            0.889              2.981             42.110
 Rotational               0.889              2.981             32.643
 Vibrational            148.624             48.862             47.558
 Vibration     1          0.593              1.985              6.113
 Vibration     2          0.595              1.979              4.926
 Vibration     3          0.596              1.976              4.680
 Vibration     4          0.602              1.955              3.609
 Vibration     5          0.609              1.931              3.079
 Vibration     6          0.612              1.924              2.951
 Vibration     7          0.646              1.815              1.981
 Vibration     8          0.651              1.797              1.890
 Vibration     9          0.663              1.763              1.730
 Vibration    10          0.666              1.754              1.692
 Vibration    11          0.687              1.691              1.471
 Vibration    12          0.696              1.663              1.386
 Vibration    13          0.721              1.593              1.206
 Vibration    14          0.730              1.566              1.146
 Vibration    15          0.747              1.521              1.054
 Vibration    16          0.780              1.433              0.902
 Vibration    17          0.794              1.397              0.847
 Vibration    18          0.803              1.376              0.817
 Vibration    19          0.826              1.320              0.741
 Vibration    20          0.835              1.298              0.714
 Vibration    21          0.947              1.054              0.468
 Vibration    22          0.961              1.027              0.445

 Optimization completed.
    -- Stationary point found.
 Normal termination of Gaussian 16 at Thu Dec 10 14:54:38 2020.

 ----------------------------------------------------------------------
 # B3LYP/6-311++G(d,p) empiricaldispersion=gd3bj scf=xqc pop=npa geom=c
 heck
 ----------------------------------------------------------------------

 --------------------------------------
 CID_29790847_JID_5135_Energie_neutraal
 --------------------------------------
 Structure from the checkpoint file:  "JID_5135.chk"
 Charge =  0 Multiplicity = 1

 SCF Done:  E(RB3LYP) =  -1026.78771058     A.U. after   15 cycles
 Normal termination of Gaussian 16 at Thu Dec 10 14:57:32 2020.

 ----------------------------------------------------------------------
 # B3LYP/6-311++G(d,p) empiricaldispersion=gd3bj scf=xqc pop=npa geom=c
 heck
 ----------------------------------------------------------------------

 ------------------------------------
 CID_29790847_JID_5135_Energie_kation
 ------------------------------------
 Structure from the checkpoint file:  "JID_5135.chk"
 Charge =  1 Multiplicity = 2

 SCF Done:  E(UB3LYP) =  -1026.50454955     A.U. after   24 cycles
 Normal termination of Gaussian 16 at Thu Dec 10 15:04:01 2020.
 Gaussian 16:  ES64L-G16RevA.03 25-Dec-2016

 ----------------------------------------------------------------------
 # B3LYP/6-311++G(d,p) empiricaldispersion=gd3bj scf=xqc pop=npa geom=c
 heck
 ----------------------------------------------------------------------

 -----------------------------------
 CID_29790847_JID_5135_Energie_anion
 -----------------------------------
 Structure from the checkpoint file:  "JID_5135.chk"
 Charge = -1 Multiplicity = 2

                         Standard orientation:
 ---------------------------------------------------------------------
 Center     Atomic      Atomic             Coordinates (Angstroms)
 Number     Number       Type             X           Y           Z
 ---------------------------------------------------------------------
      1          6           0        3.185207    1.545307   -0.846776
      2          6           0        3.748103    0.171565   -0.464799
      3          6           0        5.246756    0.260952   -0.154633
      4          6           0        3.005541   -0.453052    0.740797
      5          6           0        1.573074   -0.778053    0.464591
      6          7           0        1.191443   -1.996270    0.165082
      7          8           0       -0.205783   -1.857332   -0.054231
      8          6           0       -0.499325   -0.558405    0.144063
      9          7           0        0.562014    0.157266    0.467939
     10          6           0       -1.835702   -0.089897    0.010572
     11          6           0       -2.234795    1.235968    0.196509
     12          6           0       -3.652400    1.385655    0.041423
     13          6           0       -4.278772    0.210036   -0.257199
     14         16           0       -3.194112   -1.133841   -0.370126
     15          7           0       -1.372822    2.269479    0.444675
     16          1           0        3.305225    2.254472   -0.017262
     17          1           0        2.120222    1.496215   -1.088647
     18          1           0        3.718650    1.951972   -1.713517
     19          1           0        3.611419   -0.509687   -1.316099
     20          1           0        5.427252    0.913718    0.709208
     21          1           0        5.669329   -0.724096    0.074479
     22          1           0        5.798143    0.676154   -1.005655
     23          1           0        3.510045   -1.378972    1.034724
     24          1           0        3.050389    0.236936    1.592599
     25          1           0       -4.164815    2.336311    0.139273
     26          1           0       -5.335905    0.058429   -0.429389
     27          1           0       -1.745233    3.092905    0.894495
     28          1           0       -0.423240    2.001977    0.690510
 ---------------------------------------------------------------------

 SCF Done:  E(UB3LYP) =  -1026.79151750     A.U. after   29 cycles

 The electronic state is 2-A.
 Alpha  occ. eigenvalues --  -88.72357 -19.04503 -14.20264 -14.18275 -14.15708
 Alpha  occ. eigenvalues --  -10.10763 -10.09209 -10.07681 -10.06810 -10.06702
 Alpha  occ. eigenvalues --  -10.06571 -10.05263 -10.04509 -10.04465 -10.03224
 Alpha  occ. eigenvalues --   -7.80985  -5.77310  -5.76945  -5.76541  -0.99704
 Alpha  occ. eigenvalues --   -0.79414  -0.78048  -0.73043  -0.71463  -0.69945
 Alpha  occ. eigenvalues --   -0.60358  -0.59272  -0.58557  -0.57640  -0.49369
 Alpha  occ. eigenvalues --   -0.48120  -0.45789  -0.42624  -0.41591  -0.38765
 Alpha  occ. eigenvalues --   -0.37035  -0.36704  -0.34849  -0.33512  -0.32363
 Alpha  occ. eigenvalues --   -0.31200  -0.29560  -0.29053  -0.28118  -0.26794
 Alpha  occ. eigenvalues --   -0.25945  -0.25598  -0.24499  -0.23621  -0.22986
 Alpha  occ. eigenvalues --   -0.22777  -0.20891  -0.19034  -0.18547  -0.17623
 Alpha  occ. eigenvalues --   -0.15969  -0.15088  -0.10088  -0.06758   0.05009
 Alpha virt. eigenvalues --    0.06485   0.08430   0.08973   0.09162   0.09707
 Alpha virt. eigenvalues --    0.10347   0.11812   0.11863   0.12285   0.13107
 Alpha virt. eigenvalues --    0.13586   0.13853   0.14399   0.14803   0.15359

  Beta  occ. eigenvalues --  -88.72313 -19.04251 -14.20020 -14.18181 -14.15633
  Beta  occ. eigenvalues --  -10.10472 -10.09226 -10.07682 -10.06690 -10.06570
  Beta  occ. eigenvalues --  -10.06527 -10.05255 -10.04492 -10.04037 -10.03287
  Beta  occ. eigenvalues --   -7.80945  -5.77292  -5.76929  -5.76389  -0.99293
  Beta  occ. eigenvalues --   -0.79106  -0.77789  -0.72706  -0.71227  -0.69749
  Beta  occ. eigenvalues --   -0.60220  -0.59032  -0.58513  -0.57181  -0.48773
  Beta  occ. eigenvalues --   -0.48026  -0.45593  -0.42337  -0.41389  -0.38587
  Beta  occ. eigenvalues --   -0.36914  -0.36617  -0.34519  -0.33267  -0.31759
  Beta  occ. eigenvalues --   -0.31107  -0.29393  -0.29001  -0.27993  -0.26674
  Beta  occ. eigenvalues --   -0.25467  -0.24900  -0.24347  -0.23482  -0.22943
  Beta  occ. eigenvalues --   -0.22729  -0.20630  -0.18675  -0.17573  -0.16630
  Beta  occ. eigenvalues --   -0.14898  -0.14569  -0.09161  -0.05476
  Beta virt. eigenvalues --    0.06591   0.08380   0.08993   0.09127   0.09700
  Beta virt. eigenvalues --    0.10289   0.10698   0.11726   0.11794   0.12256
  Beta virt. eigenvalues --    0.13081   0.13746   0.13879   0.14675   0.15153

 Mulliken charges and spin densities:
               1          2
     1  C   -0.593475  -0.097737
     2  C    0.088924   0.466168
     3  C   -0.124812  -0.462687
     4  C    0.008349  -0.179412
     5  C    0.462963  -0.094919
     6  N   -0.384353   0.121540
     7  O    0.115377   0.055220
     8  C   -0.365647   0.159396
     9  N   -0.069701   0.031863
    10  C    0.029424  -0.022446
    11  C   -0.340127   0.186900
    12  C   -0.321155  -0.044335
    13  C   -0.292079   0.332987
    14  S   -0.430095   0.060702
    15  N   -0.345148   0.040196
    16  H    0.091620   0.029517
    17  H    0.195605   0.001553
    18  H    0.050317   0.052356
    19  H    0.162286  -0.005043
    20  H    0.016259   0.112800
    21  H    0.042774   0.076374
    22  H   -0.025279   0.156362
    23  H    0.110621   0.031552
    24  H    0.155203   0.008059
    25  H    0.080455   0.001766
    26  H    0.174906  -0.023451
    27  H    0.210354   0.003015
    28  H    0.296432   0.001704
 Sum of Mulliken charges =  -1.00000   1.00000

 Dipole moment (field-independent basis, Debye):
    X=              1.8083    Y=              3.2909    Z=              0.7218  Tot=              3.8238
 Quadrupole moment (field-independent basis, Debye-Ang):
   XX=           -146.4434   YY=           -117.3239   ZZ=           -107.9120
   XY=             -2.5663   XZ=             -1.2042   YZ=              3.2368

 Summary of Natural Population Analysis:

                                       Natural Population
                Natural  -----------------------------------------------
    Atom  No    Charge         Core      Valence    Rydberg      Total
 -----------------------------------------------------------------------
      C    1   -0.28805      0.99965     2.28295    0.00544     3.28805
      C    2   -0.11186      0.99962     2.10205    0.01020     3.11186
      C    3   -0.28197      0.99965     2.27759    0.00472     3.28197
      C    4   -0.20489      0.99957     2.19594    0.00937     3.20489
      C    5    0.16519      0.99965     1.81635    0.01881     2.83481
      N    6   -0.08280      0.99966     2.57153    0.01161     3.58280
      O    7   -0.16053      0.99986     3.15006    0.01062     4.16053
      C    8    0.31123      0.99953     1.67167    0.01757     2.68877
      N    9   -0.31058      0.99966     2.79991    0.01102     3.81058
      C   10   -0.18058      0.99932     2.16956    0.01169     3.18058
      C   11    0.13631      0.99947     1.85280    0.01141     2.86369
      C   12   -0.18119      0.99954     2.16938    0.01226     3.18119
      C   13   -0.08071      0.99944     2.06790    0.01337     3.08071
      S   14    0.20188      4.99947     2.77621    0.02244     7.79812
      N   15   -0.38927      0.99969     2.88068    0.00890     3.88927
      H   16    0.09291      0.00000     0.40594    0.00115     0.40709
      H   17    0.11492      0.00000     0.38384    0.00124     0.38508
      H   18    0.09164      0.00000     0.40736    0.00100     0.40836
      H   19    0.09350      0.00000     0.40399    0.00251     0.40650
      H   20    0.09426      0.00000     0.40460    0.00115     0.40574
      H   21    0.09669      0.00000     0.40233    0.00099     0.40331
      H   22    0.09573      0.00000     0.40323    0.00104     0.40427
      H   23    0.10569      0.00000     0.39257    0.00174     0.39431
      H   24    0.10114      0.00000     0.39736    0.00150     0.39886
      H   25    0.09415      0.00000     0.40454    0.00131     0.40585
      H   26    0.09244      0.00000     0.40612    0.00144     0.40756
      H   27    0.17785      0.00000     0.32075    0.00140     0.32215
      H   28    0.20695      0.00000     0.29147    0.00158     0.29305
 =======================================================================
   * Total *    0.00007     18.99377    39.80868    0.19748    58.99993

 Normal termination of Gaussian 16 at Thu Dec 10 15:11:52 2020.
