 Gaussian 16, Revision A.03,

 -----------------------------------------------------------
 # opt freq B3LYP/6-31G(d) empiricaldispersion=gd3bj scf=xqc
 -----------------------------------------------------------

 -------------------------------
 CID_145895233_JID_8572_neutraal
 -------------------------------
 Symbolic Z-matrix:
 Charge =  0 Multiplicity = 1

 SCF Done:  E(RB3LYP) =  -1175.41470060     A.U. after   15 cycles
 SCF Done:  E(RB3LYP) =  -1175.42387070     A.U. after   13 cycles
 SCF Done:  E(RB3LYP) =  -1175.42529929     A.U. after   13 cycles
 SCF Done:  E(RB3LYP) =  -1175.42594964     A.U. after   13 cycles
 SCF Done:  E(RB3LYP) =  -1175.42679282     A.U. after   13 cycles
 SCF Done:  E(RB3LYP) =  -1175.42767057     A.U. after   13 cycles
 SCF Done:  E(RB3LYP) =  -1175.42844577     A.U. after   13 cycles
 SCF Done:  E(RB3LYP) =  -1175.42881358     A.U. after   13 cycles
 SCF Done:  E(RB3LYP) =  -1175.42903130     A.U. after   12 cycles
 SCF Done:  E(RB3LYP) =  -1175.42908818     A.U. after   12 cycles
 SCF Done:  E(RB3LYP) =  -1175.42916192     A.U. after    8 cycles
 SCF Done:  E(RB3LYP) =  -1175.42916223     A.U. after    8 cycles
 SCF Done:  E(RB3LYP) =  -1175.42916250     A.U. after    8 cycles
 SCF Done:  E(RB3LYP) =  -1175.42916266     A.U. after    8 cycles
 SCF Done:  E(RB3LYP) =  -1175.42916269     A.U. after    7 cycles
 Optimization completed.
    -- Stationary point found.
 Normal termination of Gaussian 16 at Fri Dec 11 21:22:28 2020.

 --------------------------------------------------------------------
 #N Geom=AllCheck Guess=TCheck SCRF=Check GenChk RB3LYP/6-31G(d) Freq
 --------------------------------------------------------------------

 Structure from the checkpoint file:  "JID_8572.chk"
 -------------------------------
 CID_145895233_JID_8572_neutraal
 -------------------------------
 Charge =  0 Multiplicity = 1

 SCF Done:  E(RB3LYP) =  -1175.42916269     A.U. after    1 cycles

  Exact polarizability: 211.049  -8.187 162.712  12.914   2.070 117.757
 Approx polarizability: 285.855 -23.089 257.038  34.117  13.611 219.783

                      1                      2                      3
                      A                      A                      A
 Frequencies --     13.7505                29.9239                32.1893
 Red. masses --      2.9216                 4.7552                 4.5437
 Frc consts  --      0.0003                 0.0025                 0.0028
 IR Inten    --      0.4479                 0.9184                 3.5285

                      4                      5                      6
                      A                      A                      A
 Frequencies --     53.1889                58.3396                82.9638
 Red. masses --      5.0248                 1.3032                 5.6347
 Frc consts  --      0.0084                 0.0026                 0.0229
 IR Inten    --      2.1817                 0.0598                 2.0967

                      7                      8                      9
                      A                      A                      A
 Frequencies --    107.3416               143.4962               159.7801
 Red. masses --      4.8735                 3.8765                 4.6514
 Frc consts  --      0.0331                 0.0470                 0.0700
 IR Inten    --      0.6001                 0.9275                 5.3363

                     10                     11                     12
                      A                      A                      A
 Frequencies --    176.9291               222.2719               236.4422
 Red. masses --      4.2126                 1.3392                 1.9694
 Frc consts  --      0.0777                 0.0390                 0.0649
 IR Inten    --      1.8132                 0.5759                 0.1844

                     13                     14                     15
                      A                      A                      A
 Frequencies --    257.7354               274.5013               287.3251
 Red. masses --      3.2187                 1.3362                 1.2055
 Frc consts  --      0.1260                 0.0593                 0.0586
 IR Inten    --      1.5539                 0.9150                 0.3415

                     16                     17                     18
                      A                      A                      A
 Frequencies --    295.6473               313.9090               339.8234
 Red. masses --      2.2587                 2.9946                 3.1971
 Frc consts  --      0.1163                 0.1739                 0.2175
 IR Inten    --      2.7223                 1.7917                 2.9032

                     19                     20                     21
                      A                      A                      A
 Frequencies --    359.5688               371.0924               394.6703
 Red. masses --      5.5320                 2.7599                 4.1683
 Frc consts  --      0.4214                 0.2239                 0.3825
 IR Inten    --      1.8675                 5.7976                 2.8007

                     22                     23                     24
                      A                      A                      A
 Frequencies --    439.7737               456.6199               504.9104
 Red. masses --      3.6533                 2.3858                 2.6129
 Frc consts  --      0.4163                 0.2931                 0.3925
 IR Inten    --      5.6466                17.9147                32.0701

                     25                     26                     27
                      A                      A                      A
 Frequencies --    528.5908               569.3843               599.3702
 Red. masses --      3.6936                 6.3865                 4.7104
 Frc consts  --      0.6080                 1.2199                 0.9970
 IR Inten    --      4.5297                 5.6760                 7.9697

                     28                     29                     30
                      A                      A                      A
 Frequencies --    625.7788               639.7471               658.2398
 Red. masses --      3.6390                 4.8938                 8.2704
 Frc consts  --      0.8396                 1.1801                 2.1113
 IR Inten    --      4.9520                20.7253                 2.1006

                     31                     32                     33
                      A                      A                      A
 Frequencies --    666.9035               684.7482               719.9949
 Red. masses --      8.4166                 4.8155                 4.3644
 Frc consts  --      2.2055                 1.3303                 1.3330
 IR Inten    --      1.7614                27.8182                25.3615

                     34                     35                     36
                      A                      A                      A
 Frequencies --    750.6509               764.5661               789.0582
 Red. masses --      2.3787                 3.8564                 2.6432
 Frc consts  --      0.7897                 1.3282                 0.9696
 IR Inten    --     32.4961                18.2610                12.1225

                     37                     38                     39
                      A                      A                      A
 Frequencies --    830.5429               835.9914               877.2302
 Red. masses --      1.7660                 2.6793                 5.9455
 Frc consts  --      0.7178                 1.1032                 2.6957
 IR Inten    --     12.5129                 6.0555                19.3697

                     40                     41                     42
                      A                      A                      A
 Frequencies --    946.4684               955.8565               982.0201
 Red. masses --      1.7801                 1.7034                 1.2000
 Frc consts  --      0.9395                 0.9170                 0.6818
 IR Inten    --      0.7061                 0.7764                 0.0368

                     43                     44                     45
                      A                      A                      A
 Frequencies --    989.9256              1050.9818              1061.2602
 Red. masses --      6.0229                 1.6837                 1.3919
 Frc consts  --      3.4774                 1.0957                 0.9236
 IR Inten    --     42.7316                15.1820                 0.1466

                     46                     47                     48
                      A                      A                      A
 Frequencies --   1071.3517              1087.6991              1092.2580
 Red. masses --      3.8572                 1.5150                 3.0030
 Frc consts  --      2.6085                 1.0560                 2.1108
 IR Inten    --     15.3531                 1.5178                55.5053

                     49                     50                     51
                      A                      A                      A
 Frequencies --   1131.7380              1136.6170              1159.9067
 Red. masses --      5.4039                 2.0428                 1.3071
 Frc consts  --      4.0781                 1.5549                 1.0361
 IR Inten    --     36.3408                10.8899                 0.3387

                     52                     53                     54
                      A                      A                      A
 Frequencies --   1223.8934              1243.3693              1255.9453
 Red. masses --      3.7841                 2.6486                 1.6283
 Frc consts  --      3.3396                 2.4125                 1.5133
 IR Inten    --     73.4492                 2.6762                24.5836

                     55                     56                     57
                      A                      A                      A
 Frequencies --   1257.8025              1280.2739              1304.6361
 Red. masses --      2.3564                 3.5396                 3.2774
 Frc consts  --      2.1964                 3.4183                 3.2867
 IR Inten    --      4.7475               396.7141                16.4726

                     58                     59                     60
                      A                      A                      A
 Frequencies --   1358.0240              1390.1834              1426.5630
 Red. masses --      9.1752                 4.2090                 1.2100
 Frc consts  --      9.9696                 4.7927                 1.4508
 IR Inten    --    168.5236                25.8736                 4.6928

                     61                     62                     63
                      A                      A                      A
 Frequencies --   1429.2496              1447.2165              1451.7348
 Red. masses --      1.2216                 2.7023                 2.3676
 Frc consts  --      1.4702                 3.3346                 2.9399
 IR Inten    --      7.2773                 4.2557                61.3033

                     64                     65                     66
                      A                      A                      A
 Frequencies --   1456.9010              1479.0773              1507.0060
 Red. masses --      1.3245                 1.3678                 1.0502
 Frc consts  --      1.6564                 1.7629                 1.4053
 IR Inten    --      7.3448                51.5102                 0.1083

                     67                     68                     69
                      A                      A                      A
 Frequencies --   1508.5554              1512.5850              1514.8161
 Red. masses --      2.3994                 1.0410                 1.0869
 Frc consts  --      3.2172                 1.4033                 1.4695
 IR Inten    --      8.0049                 7.9057                 0.7777

                     70                     71                     72
                      A                      A                      A
 Frequencies --   1515.4586              1528.9169              1533.0903
 Red. masses --      1.2465                 1.0511                 1.0659
 Frc consts  --      1.6866                 1.4477                 1.4761
 IR Inten    --      3.3188                 5.6090                12.9405

                     73                     74                     75
                      A                      A                      A
 Frequencies --   1534.8176              1542.7360              1550.6189
 Red. masses --      1.8419                 2.4848                 1.3243
 Frc consts  --      2.5564                 3.4843                 1.8761
 IR Inten    --     23.6917                74.6012                24.3019

                     76                     77                     78
                      A                      A                      A
 Frequencies --   1551.4641              1596.0185              1781.0908
 Red. masses --      2.3624                 4.9341                 9.3374
 Frc consts  --      3.3504                 7.4052                17.4522
 IR Inten    --     63.6996               129.7395               375.5706

                     79                     80                     81
                      A                      A                      A
 Frequencies --   3048.1308              3051.6230              3062.8213
 Red. masses --      1.0342                 1.0348                 1.0375
 Frc consts  --      5.6611                 5.6774                 5.7344
 IR Inten    --     18.6296                18.1521                27.4460

                     82                     83                     84
                      A                      A                      A
 Frequencies --   3069.1296              3116.5816              3121.8235
 Red. masses --      1.0330                 1.1030                 1.1021
 Frc consts  --      5.7328                 6.3122                 6.3281
 IR Inten    --     48.2415                 0.3178                56.7177

                     85                     86                     87
                      A                      A                      A
 Frequencies --   3126.7459              3127.7133              3134.8595
 Red. masses --      1.1035                 1.1027                 1.1004
 Frc consts  --      6.3561                 6.3556                 6.3714
 IR Inten    --     14.3269                12.1596                48.2141

                     88                     89                     90
                      A                      A                      A
 Frequencies --   3135.5607              3149.9900              3162.5891
 Red. masses --      1.1066                 1.1028                 1.1038
 Frc consts  --      6.4099                 6.4472                 6.5049
 IR Inten    --     14.0174                18.9145                 7.7704

                     91                     92                     93
                      A                      A                      A
 Frequencies --   3262.0180              3304.2244              3568.0375
 Red. masses --      1.0967                 1.0989                 1.0750
 Frc consts  --      6.8758                 7.0691                 8.0634
 IR Inten    --      2.3771                 1.3921                45.7507

 - Thermochemistry -
 -------------------
 Temperature   298.150 Kelvin.  Pressure   1.00000 Atm.
 Atom     1 has atomic number  6 and mass  12.00000

 Molecular mass:   265.09973 amu.
 Principal axes and moments of inertia in atomic units:
                           1         2         3
     Eigenvalues --  2565.730828263.037019762.27954
           X            0.99998   0.00552   0.00184
           Y           -0.00552   0.99998  -0.00109
           Z           -0.00185   0.00108   1.00000
 This molecule is an asymmetric top.
 Rotational symmetry number  1.
 Warning -- assumption of classical behavior for rotation
           may cause significant error
 Rotational temperatures (Kelvin)      0.03376     0.01048     0.00887
 Rotational constants (GHZ):           0.70340     0.21841     0.18487
 Zero-point vibrational energy     690502.3 (Joules/Mol)
                                  165.03401 (Kcal/Mol)
 Warning -- explicit consideration of  27 degrees of freedom as
           vibrations may cause significant error
 Vibrational temperatures:     19.78    43.05    46.31    76.53    83.94
          (Kelvin)            119.37   154.44   206.46   229.89   254.56
                              319.80   340.19   370.82   394.95   413.40
                              425.37   451.65   488.93   517.34   533.92
                              567.84   632.74   656.97   726.45   760.52
                              819.22   862.36   900.36   920.45   947.06
                              959.53   985.20  1035.91  1080.02  1100.04
                             1135.28  1194.97  1202.81  1262.14  1361.76
                             1375.26  1412.91  1424.28  1512.13  1526.92
                             1541.44  1564.96  1571.52  1628.32  1635.34
                             1668.85  1760.91  1788.93  1807.03  1809.70
                             1842.03  1877.08  1953.89  2000.16  2052.51
                             2056.37  2082.22  2088.72  2096.16  2128.06
                             2168.25  2170.47  2176.27  2179.48  2180.41
                             2199.77  2205.77  2208.26  2219.65  2230.99
                             2232.21  2296.31  2562.59  4385.58  4390.60
                             4406.72  4415.79  4484.07  4491.61  4498.69
                             4500.08  4510.36  4511.37  4532.13  4550.26
                             4693.32  4754.04  5133.61

 Zero-point correction=                           0.262998 (Hartree/Particle)
 Thermal correction to Energy=                    0.281187
 Thermal correction to Enthalpy=                  0.282131
 Thermal correction to Gibbs Free Energy=         0.213987
 Sum of electronic and zero-point Energies=          -1175.166164
 Sum of electronic and thermal Energies=             -1175.147976
 Sum of electronic and thermal Enthalpies=           -1175.147031
 Sum of electronic and thermal Free Energies=        -1175.215176

                     E (Thermal)             CV                S
                      KCal/Mol        Cal/Mol-Kelvin    Cal/Mol-Kelvin
 Total                  176.448             66.732            143.422
 Electronic               0.000              0.000              0.000
 Translational            0.889              2.981             42.624
 Rotational               0.889              2.981             33.692
 Vibrational            174.670             60.770             67.106
 Vibration     1          0.593              1.986              7.378
 Vibration     2          0.594              1.984              5.834
 Vibration     3          0.594              1.983              5.690
 Vibration     4          0.596              1.976              4.695
 Vibration     5          0.596              1.974              4.513
 Vibration     6          0.600              1.961              3.820
 Vibration     7          0.606              1.943              3.316
 Vibration     8          0.616              1.910              2.757
 Vibration     9          0.622              1.892              2.552
 Vibration    10          0.628              1.871              2.361
 Vibration    11          0.648              1.807              1.941
 Vibration    12          0.655              1.785              1.829
 Vibration    13          0.667              1.750              1.677
 Vibration    14          0.677              1.720              1.568
 Vibration    15          0.684              1.697              1.490
 Vibration    16          0.690              1.682              1.441
 Vibration    17          0.702              1.647              1.342
 Vibration    18          0.720              1.596              1.213
 Vibration    19          0.734              1.556              1.124
 Vibration    20          0.743              1.532              1.075
 Vibration    21          0.762              1.482              0.982
 Vibration    22          0.800              1.383              0.827
 Vibration    23          0.815              1.346              0.776
 Vibration    24          0.860              1.239              0.646
 Vibration    25          0.884              1.187              0.590
 Vibration    26          0.925              1.097              0.505
 Vibration    27          0.957              1.033              0.451

 Optimization completed.
    -- Stationary point found.
 Normal termination of Gaussian 16 at Fri Dec 11 21:35:45 2020.

 ----------------------------------------------------------------------
 # B3LYP/6-311++G(d,p) empiricaldispersion=gd3bj scf=xqc pop=npa geom=c
 heck
 ----------------------------------------------------------------------

 ---------------------------------------
 CID_145895233_JID_8572_Energie_neutraal
 ---------------------------------------
 Structure from the checkpoint file:  "JID_8572.chk"
 Charge =  0 Multiplicity = 1

 SCF Done:  E(RB3LYP) =  -1175.66912682     A.U. after   17 cycles
 Normal termination of Gaussian 16 at Fri Dec 11 21:41:31 2020.

 ----------------------------------------------------------------------
 # B3LYP/6-311++G(d,p) empiricaldispersion=gd3bj scf=xqc pop=npa geom=c
 heck
 ----------------------------------------------------------------------

 -------------------------------------
 CID_145895233_JID_8572_Energie_kation
 -------------------------------------
 Structure from the checkpoint file:  "JID_8572.chk"
 Charge =  1 Multiplicity = 2

 SCF Done:  E(UB3LYP) =  -1175.36077808     A.U. after   30 cycles
 Normal termination of Gaussian 16 at Fri Dec 11 21:55:12 2020.
 Gaussian 16:  ES64L-G16RevA.03 25-Dec-2016

 ----------------------------------------------------------------------
 # B3LYP/6-311++G(d,p) empiricaldispersion=gd3bj scf=xqc pop=npa geom=c
 heck
 ----------------------------------------------------------------------

 ------------------------------------
 CID_145895233_JID_8572_Energie_anion
 ------------------------------------
 Structure from the checkpoint file:  "JID_8572.chk"
 Charge = -1 Multiplicity = 2

                         Standard orientation:
 ---------------------------------------------------------------------
 Center     Atomic      Atomic             Coordinates (Angstroms)
 Number     Number       Type             X           Y           Z
 ---------------------------------------------------------------------
      1          6           0        4.668829    0.297821    0.189388
      2          6           0        3.534178   -0.720832   -0.048779
      3          6           0        3.845078   -1.557680   -1.300471
      4          6           0        3.406529   -1.649401    1.177402
      5          6           0        2.229984    0.019217   -0.253605
      6          7           0        1.512965   -0.044671   -1.340563
      7          7           0        0.388519    0.732699   -1.312503
      8          6           0        0.244830    1.365688   -0.185112
      9         16           0        1.530008    1.070219    0.970816
     10          7           0       -0.849060    2.176406    0.120440
     11          6           0       -2.185574    1.805944   -0.032569
     12          8           0       -3.045495    2.658910   -0.202827
     13          6           0       -2.510388    0.375288    0.094915
     14          6           0       -3.729027   -0.175716   -0.240509
     15          7           0       -3.628916   -1.509647    0.061188
     16          6           0       -2.366469   -1.705024    0.571037
     17          7           0       -1.669648   -0.594954    0.606156
     18          6           0       -4.652055   -2.522520   -0.135881
     19          1           0        5.620281   -0.229288    0.321558
     20          1           0        4.487759    0.899122    1.086990
     21          1           0        4.767844    0.978287   -0.662691
     22          1           0        4.787951   -2.095607   -1.151551
     23          1           0        3.051941   -2.284326   -1.495381
     24          1           0        3.937033   -0.923613   -2.186059
     25          1           0        3.210997   -1.081511    2.093590
     26          1           0        2.589180   -2.364935    1.040780
     27          1           0        4.337358   -2.209991    1.318731
     28          1           0       -0.718637    3.181389    0.072299
     29          1           0       -4.621172    0.266546   -0.655433
     30          1           0       -2.030004   -2.680563    0.896236
     31          1           0       -5.560660   -2.261237    0.414365
     32          1           0       -4.891719   -2.626775   -1.198322
     33          1           0       -4.276834   -3.477813    0.236536
 ---------------------------------------------------------------------

 SCF Done:  E(UB3LYP) =  -1175.66744649     A.U. after   33 cycles
 SCF Done:  E(UB3LYP) =  -1175.66744649     a.u. after    1 cycles

 The electronic state is 2-A.
 Alpha  occ. eigenvalues --  -88.76242 -18.97310 -14.27250 -14.23316 -14.21800
 Alpha  occ. eigenvalues --  -14.21208 -14.19175 -10.15680 -10.13854 -10.12180
 Alpha  occ. eigenvalues --  -10.11839 -10.11310 -10.10937 -10.09334 -10.08316
 Alpha  occ. eigenvalues --  -10.08098 -10.07774 -10.07122  -7.84937  -5.81183
 Alpha  occ. eigenvalues --   -5.80891  -5.80540  -0.93055  -0.91745  -0.90788
 Alpha  occ. eigenvalues --   -0.82122  -0.78800  -0.74867  -0.68009  -0.67625
 Alpha  occ. eigenvalues --   -0.65667  -0.62394  -0.60717  -0.60167  -0.54583
 Alpha  occ. eigenvalues --   -0.52422  -0.50233  -0.48149  -0.46311  -0.44369
 Alpha  occ. eigenvalues --   -0.41643  -0.40280  -0.37694  -0.36858  -0.36489
 Alpha  occ. eigenvalues --   -0.35954  -0.34469  -0.34299  -0.32838  -0.32358
 Alpha  occ. eigenvalues --   -0.32006  -0.31232  -0.30899  -0.30095  -0.29914
 Alpha  occ. eigenvalues --   -0.29401  -0.28397  -0.28089  -0.26134  -0.25358
 Alpha  occ. eigenvalues --   -0.24920  -0.19431  -0.18634  -0.17834  -0.17193
 Alpha  occ. eigenvalues --   -0.16856  -0.15487  -0.14479  -0.13676  -0.12897
 Alpha  occ. eigenvalues --    0.03996
 Alpha virt. eigenvalues --    0.05444   0.06023   0.07891   0.08095   0.08296
 Alpha virt. eigenvalues --    0.08672   0.09132   0.09641   0.09805   0.10510
 Alpha virt. eigenvalues --    0.10876   0.11488   0.11713   0.12266   0.12447

  Beta  occ. eigenvalues --  -88.76217 -18.97188 -14.27211 -14.23358 -14.21818
  Beta  occ. eigenvalues --  -14.21151 -14.19158 -10.15540 -10.13615 -10.12191
  Beta  occ. eigenvalues --  -10.11783 -10.11076 -10.10952 -10.09236 -10.08322
  Beta  occ. eigenvalues --  -10.08085 -10.07755 -10.07121  -7.84914  -5.81177
  Beta  occ. eigenvalues --   -5.80885  -5.80447  -0.92858  -0.91652  -0.90608
  Beta  occ. eigenvalues --   -0.81970  -0.78740  -0.74742  -0.67873  -0.67451
  Beta  occ. eigenvalues --   -0.65541  -0.62293  -0.60680  -0.60148  -0.54335
  Beta  occ. eigenvalues --   -0.52217  -0.50064  -0.48046  -0.46206  -0.44255
  Beta  occ. eigenvalues --   -0.41518  -0.40185  -0.37544  -0.36738  -0.36361
  Beta  occ. eigenvalues --   -0.35839  -0.34385  -0.34224  -0.32696  -0.32171
  Beta  occ. eigenvalues --   -0.31871  -0.31148  -0.30690  -0.29971  -0.29628
  Beta  occ. eigenvalues --   -0.29280  -0.28371  -0.27768  -0.25938  -0.25267
  Beta  occ. eigenvalues --   -0.24901  -0.19108  -0.18483  -0.17567  -0.17017
  Beta  occ. eigenvalues --   -0.16424  -0.15350  -0.14174  -0.13253  -0.12564
  Beta virt. eigenvalues --    0.05918   0.06759   0.07574   0.08112   0.08460
  Beta virt. eigenvalues --    0.08793   0.08950   0.09508   0.09880   0.10166
  Beta virt. eigenvalues --    0.10647   0.10918   0.11624   0.11674   0.12476

 Mulliken charges and spin densities:
               1          2
     1  C   -0.537281  -0.036035
     2  C    0.858754   0.134852
     3  C   -0.628318  -0.031661
     4  C   -0.517132  -0.066511
     5  C   -0.748379   0.059283
     6  N   -0.036894  -0.009499
     7  N    0.114473   0.031087
     8  C   -0.021056   0.008451
     9  S   -0.167275   0.145922
    10  N   -0.202637  -0.006894
    11  C   -0.079289  -0.068944
    12  O   -0.377016   0.046981
    13  C   -0.022015  -0.070727
    14  C   -0.323641   0.157956
    15  N   -0.179226   0.192160
    16  C    0.225603   0.035105
    17  N   -0.054976   0.013466
    18  C    1.276808  -1.598447
    19  H    0.144604  -0.003931
    20  H    0.081453   0.037835
    21  H    0.146367   0.007543
    22  H    0.121320   0.007621
    23  H    0.164055   0.003232
    24  H    0.159963   0.006173
    25  H    0.127221  -0.001500
    26  H    0.134414   0.027970
    27  H    0.102010   0.037367
    28  H    0.255398   0.068007
    29  H    0.143025   0.028652
    30  H    0.023466   0.160129
    31  H   -0.574925   0.761852
    32  H   -0.013488   0.182061
    33  H   -0.595385   0.740443
 Sum of Mulliken charges =  -1.00000   1.00000

 Dipole moment (field-independent basis, Debye):
    X=              9.7480    Y=              0.8555    Z=              0.7870  Tot=              9.8170
 Quadrupole moment (field-independent basis, Debye-Ang):
   XX=           -190.4441   YY=           -156.3393   ZZ=           -135.8463
   XY=            -12.0110   XZ=              8.7649   YZ=              3.6571

 Summary of Natural Population Analysis:

                                       Natural Population
                Natural  -----------------------------------------------
    Atom  No    Charge         Core      Valence    Rydberg      Total
 -----------------------------------------------------------------------
      C    1   -0.27760      0.99964     2.27217    0.00580     3.27760
      C    2   -0.06849      0.99953     2.06129    0.00767     3.06849
      C    3   -0.27960      0.99964     2.27352    0.00644     3.27960
      C    4   -0.27780      0.99964     2.27240    0.00576     3.27780
      C    5    0.07270      0.99955     1.90862    0.01913     2.92730
      N    6   -0.16003      0.99962     2.64766    0.01276     3.66003
      N    7   -0.14656      0.99961     2.63135    0.01560     3.64656
      C    8    0.14874      0.99963     1.82902    0.02262     2.85126
      S    9    0.16734      4.99939     2.81497    0.01831     7.83266
      N   10   -0.33488      0.99963     2.82488    0.01037     3.83488
      C   11    0.35515      0.99961     1.62361    0.02163     2.64485
      O   12   -0.30834      0.99988     3.30329    0.00517     4.30834
      C   13   -0.00166      0.99949     1.98838    0.01380     3.00166
      C   14    0.01643      0.99952     1.97198    0.01208     2.98357
      N   15   -0.19952      0.99966     2.69016    0.00970     3.69952
      C   16    0.10217      0.99964     1.88013    0.01807     2.89783
      N   17   -0.24061      0.99971     2.73061    0.01029     3.74061
      C   18   -0.17159      0.99964     2.16455    0.00741     3.17159
      H   19    0.09399      0.00000     0.40515    0.00086     0.40601
      H   20    0.10091      0.00000     0.39813    0.00096     0.39909
      H   21    0.10191      0.00000     0.39721    0.00089     0.39809
      H   22    0.09098      0.00000     0.40808    0.00094     0.40902
      H   23    0.10769      0.00000     0.39124    0.00106     0.39231
      H   24    0.10602      0.00000     0.39313    0.00085     0.39398
      H   25    0.10083      0.00000     0.39833    0.00084     0.39917
      H   26    0.10515      0.00000     0.39398    0.00087     0.39485
      H   27    0.09350      0.00000     0.40546    0.00104     0.40650
      H   28    0.19796      0.00000     0.29932    0.00272     0.30204
      H   29    0.10790      0.00000     0.39110    0.00100     0.39210
      H   30    0.09204      0.00000     0.40659    0.00136     0.40796
      H   31    0.10427      0.00000     0.39227    0.00346     0.39573
      H   32    0.09673      0.00000     0.40234    0.00093     0.40327
      H   33    0.10426      0.00000     0.39340    0.00234     0.39574
 =======================================================================
   * Total *   -0.00000     21.99300    47.76430    0.24270    70.00000

 Normal termination of Gaussian 16 at Fri Dec 11 22:10:31 2020.
