 Gaussian 16, Revision A.03,

 -----------------------------------------------------------
 # opt freq B3LYP/6-31G(d) empiricaldispersion=gd3bj scf=xqc
 -----------------------------------------------------------

 -------------------------------
 CID_149569013_JID_5638_neutraal
 -------------------------------
 Symbolic Z-matrix:
 Charge =  0 Multiplicity = 1

 SCF Done:  E(RB3LYP) =  -646.657922005     A.U. after   15 cycles
 SCF Done:  E(RB3LYP) =  -646.663637417     A.U. after   12 cycles
 SCF Done:  E(RB3LYP) =  -646.664027167     A.U. after   11 cycles
 SCF Done:  E(RB3LYP) =  -646.664080846     A.U. after   11 cycles
 SCF Done:  E(RB3LYP) =  -646.664098708     A.U. after    9 cycles
 SCF Done:  E(RB3LYP) =  -646.664100588     A.U. after    9 cycles
 SCF Done:  E(RB3LYP) =  -646.664101580     A.U. after    8 cycles
 SCF Done:  E(RB3LYP) =  -646.664102239     A.U. after    8 cycles
 SCF Done:  E(RB3LYP) =  -646.664102495     A.U. after    8 cycles
 SCF Done:  E(RB3LYP) =  -646.664102602     A.U. after    7 cycles
 SCF Done:  E(RB3LYP) =  -646.664102636     A.U. after    7 cycles
 Optimization completed.
    -- Stationary point found.
 Normal termination of Gaussian 16 at Thu Dec 10 16:18:09 2020.

 --------------------------------------------------------------------
 #N Geom=AllCheck Guess=TCheck SCRF=Check GenChk RB3LYP/6-31G(d) Freq
 --------------------------------------------------------------------

 Structure from the checkpoint file:  "JID_5638.chk"
 -------------------------------
 CID_149569013_JID_5638_neutraal
 -------------------------------
 Charge =  0 Multiplicity = 1

 SCF Done:  E(RB3LYP) =  -646.664102636     A.U. after    1 cycles

  Exact polarizability: 198.426   0.750 153.147  -0.919   1.659  74.080
 Approx polarizability: 277.866  -0.146 263.845  -2.407   4.231 117.593

                      1                      2                      3
                      A                      A                      A
 Frequencies --     42.1152                57.5200               121.0968
 Red. masses --      3.6465                 3.0866                 3.9881
 Frc consts  --      0.0038                 0.0060                 0.0345
 IR Inten    --      1.5905                 1.5311                 3.8961

                      4                      5                      6
                      A                      A                      A
 Frequencies --    139.0464               179.1077               189.4413
 Red. masses --      3.5778                 3.0450                 2.3712
 Frc consts  --      0.0408                 0.0576                 0.0501
 IR Inten    --      3.0436                 0.2683                 0.6821

                      7                      8                      9
                      A                      A                      A
 Frequencies --    232.6406               237.4176               256.1007
 Red. masses --      4.5554                 1.3449                 2.2212
 Frc consts  --      0.1453                 0.0447                 0.0858
 IR Inten    --      0.4734                 1.0000                 1.8372

                     10                     11                     12
                      A                      A                      A
 Frequencies --    284.0280               336.3020               380.6853
 Red. masses --      4.2582                 3.6504                 3.9422
 Frc consts  --      0.2024                 0.2433                 0.3366
 IR Inten    --      1.1255                 0.8528                 3.8376

                     13                     14                     15
                      A                      A                      A
 Frequencies --    441.7788               497.4581               551.0194
 Red. masses --      1.9399                 4.7968                 4.1208
 Frc consts  --      0.2231                 0.6994                 0.7372
 IR Inten    --      0.2749                 0.7470                 1.1626

                     16                     17                     18
                      A                      A                      A
 Frequencies --    562.2480               607.7818               643.8689
 Red. masses --      3.0885                 7.3024                 5.2449
 Frc consts  --      0.5752                 1.5893                 1.2811
 IR Inten    --      1.2459                 3.8535                 9.3961

                     19                     20                     21
                      A                      A                      A
 Frequencies --    654.7803               656.0170               705.0261
 Red. masses --      5.8380                 5.8842                 1.2260
 Frc consts  --      1.4747                 1.4920                 0.3590
 IR Inten    --     14.3036                 8.1035                 4.4064

                     22                     23                     24
                      A                      A                      A
 Frequencies --    732.7922               742.7913               761.3241
 Red. masses --      1.3062                 2.9181                10.3235
 Frc consts  --      0.4133                 0.9486                 3.5254
 IR Inten    --     43.3048                 1.4301                 1.9157

                     25                     26                     27
                      A                      A                      A
 Frequencies --    835.5029               865.4909               872.6235
 Red. masses --      2.1901                 1.3108                 3.2154
 Frc consts  --      0.9007                 0.5785                 1.4426
 IR Inten    --      2.1541                 5.8231                 4.8622

                     28                     29                     30
                      A                      A                      A
 Frequencies --    897.2349               925.7646               929.5077
 Red. masses --      2.7913                 1.2843                 5.1740
 Frc consts  --      1.3240                 0.6485                 2.6338
 IR Inten    --      3.5444                 2.1208                 1.1210

                     31                     32                     33
                      A                      A                      A
 Frequencies --    945.7577               959.9461               967.8033
 Red. masses --      1.6130                 2.1415                 2.1012
 Frc consts  --      0.8501                 1.1627                 1.1596
 IR Inten    --      2.1261                16.0520                 2.2322

                     34                     35                     36
                      A                      A                      A
 Frequencies --    984.6478              1018.0078              1092.2197
 Red. masses --      1.3472                 1.8751                 2.8868
 Frc consts  --      0.7696                 1.1449                 2.0290
 IR Inten    --      1.4953                 1.8893                 4.3595

                     37                     38                     39
                      A                      A                      A
 Frequencies --   1103.7055              1118.8724              1158.9627
 Red. masses --      1.5064                 1.8864                 1.9877
 Frc consts  --      1.0812                 1.3914                 1.5730
 IR Inten    --      5.7157                 4.7449                22.4388

                     40                     41                     42
                      A                      A                      A
 Frequencies --   1167.6132              1190.0470              1194.7068
 Red. masses --      1.9216                 1.8564                 2.0707
 Frc consts  --      1.5435                 1.5490                 1.7414
 IR Inten    --      1.5137                 6.7853                 5.3594

                     43                     44                     45
                      A                      A                      A
 Frequencies --   1200.8830              1227.8682              1260.4334
 Red. masses --      1.6217                 2.2191                 1.4084
 Frc consts  --      1.3779                 1.9712                 1.3183
 IR Inten    --      7.4093                 8.1390                 8.1394

                     46                     47                     48
                      A                      A                      A
 Frequencies --   1272.4517              1296.4358              1316.5920
 Red. masses --      1.4486                 2.0031                 2.7900
 Frc consts  --      1.3819                 1.9836                 2.8494
 IR Inten    --      0.0781                50.4535                15.2744

                     49                     50                     51
                      A                      A                      A
 Frequencies --   1325.3705              1345.3391              1360.2396
 Red. masses --      1.3602                 1.7510                 2.6051
 Frc consts  --      1.4078                 1.8672                 2.8399
 IR Inten    --      1.6929                 9.7800                40.2768

                     52                     53                     54
                      A                      A                      A
 Frequencies --   1376.3444              1385.0807              1414.1182
 Red. masses --      1.4403                 1.6463                 1.9604
 Frc consts  --      1.6075                 1.8609                 2.3098
 IR Inten    --      3.2210                46.7413                 4.1054

                     55                     56                     57
                      A                      A                      A
 Frequencies --   1422.2121              1442.5623              1454.4243
 Red. masses --      1.9663                 1.2693                 5.3238
 Frc consts  --      2.3433                 1.5563                 6.6353
 IR Inten    --     55.1538                 1.6639                14.9666

                     58                     59                     60
                      A                      A                      A
 Frequencies --   1478.9188              1520.3775              1521.7272
 Red. masses --      2.9080                 1.1207                 4.0929
 Frc consts  --      3.7474                 1.5263                 5.5841
 IR Inten    --      3.8951                31.8164                 9.7081

                     61                     62                     63
                      A                      A                      A
 Frequencies --   1527.4668              1530.1605              1533.7094
 Red. masses --      1.0599                 1.0664                 4.4383
 Frc consts  --      1.4570                 1.4712                 6.1511
 IR Inten    --      3.5021                 4.6261                 5.6703

                     64                     65                     66
                      A                      A                      A
 Frequencies --   1539.2221              1547.3334              1581.3143
 Red. masses --      1.0898                 1.1712                 5.9038
 Frc consts  --      1.5212                 1.6521                 8.6979
 IR Inten    --     12.9882               143.3434               649.9080

                     67                     68                     69
                      A                      A                      A
 Frequencies --   1660.1934              3019.2002              3030.9708
 Red. masses --      6.1397                 1.0760                 1.0782
 Frc consts  --      9.9704                 5.7788                 5.8361
 IR Inten    --     81.1052                20.0492                24.7159

                     70                     71                     72
                      A                      A                      A
 Frequencies --   3042.7151              3045.0155              3054.3409
 Red. masses --      1.0500                 1.0614                 1.0644
 Frc consts  --      5.7272                 5.7982                 5.8504
 IR Inten    --     25.8063                21.6136                59.4342

                     73                     74                     75
                      A                      A                      A
 Frequencies --   3106.0385              3109.7614              3114.2983
 Red. masses --      1.0958                 1.0984                 1.1019
 Frc consts  --      6.2285                 6.2583                 6.2969
 IR Inten    --      1.0252                38.6188                11.4478

                     76                     77                     78
                      A                      A                      A
 Frequencies --   3116.7296              3150.8303              3196.1518
 Red. masses --      1.1000                 1.0933                 1.0901
 Frc consts  --      6.2958                 6.3952                 6.5610
 IR Inten    --     75.4826                10.8146                28.2117

                     79                     80                     81
                      A                      A                      A
 Frequencies --   3256.1148              3258.6418              3294.9155
 Red. masses --      1.0932                 1.0957                 1.1011
 Frc consts  --      6.8291                 6.8549                 7.0431
 IR Inten    --      8.7126                 7.8241                 1.8711

 - Thermochemistry -
 -------------------
 Temperature   298.150 Kelvin.  Pressure   1.00000 Atm.
 Atom     1 has atomic number  6 and mass  12.00000

 Molecular mass:   202.12185 amu.
 Principal axes and moments of inertia in atomic units:
                           1         2         3
     Eigenvalues --  1284.758194680.092945880.72992
           X            1.00000  -0.00173   0.00119
           Y            0.00173   1.00000  -0.00064
           Z           -0.00119   0.00064   1.00000
 This molecule is an asymmetric top.
 Rotational symmetry number  1.
 Warning -- assumption of classical behavior for rotation
           may cause significant error
 Rotational temperatures (Kelvin)      0.06742     0.01851     0.01473
 Rotational constants (GHZ):           1.40473     0.38562     0.30689
 Zero-point vibrational energy     643455.2 (Joules/Mol)
                                  153.78948 (Kcal/Mol)
 Warning -- explicit consideration of  17 degrees of freedom as
           vibrations may cause significant error
 Vibrational temperatures:     60.59    82.76   174.23   200.06   257.70
          (Kelvin)            272.56   334.72   341.59   368.47   408.65
                              483.86   547.72   635.62   715.73   792.79
                              808.95   874.46   926.38   942.08   943.86
                             1014.38  1054.32  1068.71  1095.38  1202.10
                             1245.25  1255.51  1290.92  1331.97  1337.35
                             1360.73  1381.15  1392.45  1416.69  1464.69
                             1571.46  1587.99  1609.81  1667.49  1679.93
                             1712.21  1718.92  1727.80  1766.63  1813.48
                             1830.77  1865.28  1894.28  1906.91  1935.64
                             1957.08  1980.25  1992.82  2034.60  2046.25
                             2075.53  2092.59  2127.83  2187.48  2189.43
                             2197.68  2201.56  2206.67  2214.60  2226.27
                             2275.16  2388.65  4343.96  4360.89  4377.79
                             4381.10  4394.52  4468.90  4474.25  4480.78
                             4484.28  4533.34  4598.55  4684.82  4688.46
                             4740.65

 Zero-point correction=                           0.245079 (Hartree/Particle)
 Thermal correction to Energy=                    0.257457
 Thermal correction to Enthalpy=                  0.258401
 Thermal correction to Gibbs Free Energy=         0.205918
 Sum of electronic and zero-point Energies=           -646.419024
 Sum of electronic and thermal Energies=              -646.406646
 Sum of electronic and thermal Enthalpies=            -646.405702
 Sum of electronic and thermal Free Energies=         -646.458185

                     E (Thermal)             CV                S
                      KCal/Mol        Cal/Mol-Kelvin    Cal/Mol-Kelvin
 Total                  161.557             48.859            110.460
 Electronic               0.000              0.000              0.000
 Translational            0.889              2.981             41.816
 Rotational               0.889              2.981             31.936
 Vibrational            159.779             42.897             36.708
 Vibration     1          0.595              1.980              5.157
 Vibration     2          0.596              1.974              4.541
 Vibration     3          0.609              1.932              3.083
 Vibration     4          0.615              1.914              2.817
 Vibration     5          0.629              1.868              2.338
 Vibration     6          0.633              1.854              2.233
 Vibration     7          0.653              1.791              1.858
 Vibration     8          0.656              1.783              1.822
 Vibration     9          0.666              1.752              1.688
 Vibration    10          0.682              1.703              1.509
 Vibration    11          0.717              1.603              1.230
 Vibration    12          0.750              1.511              1.036
 Vibration    13          0.802              1.379              0.821
 Vibration    14          0.853              1.256              0.665
 Vibration    15          0.906              1.137              0.542
 Vibration    16          0.918              1.113              0.519
 Vibration    17          0.967              1.015              0.436

 Optimization completed.
    -- Stationary point found.
 Normal termination of Gaussian 16 at Thu Dec 10 16:27:40 2020.

 ----------------------------------------------------------------------
 # B3LYP/6-311++G(d,p) empiricaldispersion=gd3bj scf=xqc pop=npa geom=c
 heck
 ----------------------------------------------------------------------

 ---------------------------------------
 CID_149569013_JID_5638_Energie_neutraal
 ---------------------------------------
 Structure from the checkpoint file:  "JID_5638.chk"
 Charge =  0 Multiplicity = 1

 SCF Done:  E(RB3LYP) =  -646.830066719     A.U. after   15 cycles
 Normal termination of Gaussian 16 at Thu Dec 10 16:33:02 2020.

 ----------------------------------------------------------------------
 # B3LYP/6-311++G(d,p) empiricaldispersion=gd3bj scf=xqc pop=npa geom=c
 heck
 ----------------------------------------------------------------------

 -------------------------------------
 CID_149569013_JID_5638_Energie_kation
 -------------------------------------
 Structure from the checkpoint file:  "JID_5638.chk"
 Charge =  1 Multiplicity = 2

 SCF Done:  E(UB3LYP) =  -646.568351562     A.U. after   20 cycles
 Normal termination of Gaussian 16 at Thu Dec 10 16:41:42 2020.
 Gaussian 16:  ES64L-G16RevA.03 25-Dec-2016

 ----------------------------------------------------------------------
 # B3LYP/6-311++G(d,p) empiricaldispersion=gd3bj scf=xqc pop=npa geom=c
 heck
 ----------------------------------------------------------------------

 ------------------------------------
 CID_149569013_JID_5638_Energie_anion
 ------------------------------------
 Structure from the checkpoint file:  "JID_5638.chk"
 Charge = -1 Multiplicity = 2

                         Standard orientation:
 ---------------------------------------------------------------------
 Center     Atomic      Atomic             Coordinates (Angstroms)
 Number     Number       Type             X           Y           Z
 ---------------------------------------------------------------------
      1          6           0        4.642373    0.496136    0.114152
      2          6           0        3.302187   -0.045007   -0.373636
      3          6           0        2.855176   -1.357377    0.290629
      4          6           0        1.355068   -1.426818   -0.011534
      5          7           0        0.963251   -0.010190   -0.040758
      6          6           0        2.117199    0.890527   -0.091701
      7          6           0       -0.297229    0.484924   -0.007506
      8          7           0       -0.442677    1.809133    0.021642
      9          6           0       -1.700697    2.326466    0.049664
     10          6           0       -2.846370    1.590374    0.053990
     11          7           0       -2.699699    0.212943    0.021794
     12          6           0       -1.443572   -0.389516   -0.011061
     13          7           0       -1.551607   -1.720328   -0.048745
     14          6           0       -2.889754   -1.971449   -0.037718
     15          6           0       -3.625627   -0.801012    0.005335
     16          1           0        4.622107    0.663594    1.198043
     17          1           0        4.888094    1.449348   -0.367948
     18          1           0        5.454105   -0.207162   -0.102787
     19          1           0        3.354495   -0.211846   -1.458824
     20          1           0        3.396266   -2.233512   -0.079421
     21          1           0        3.017802   -1.293831    1.374568
     22          1           0        0.779141   -1.975566    0.733800
     23          1           0        1.157315   -1.901014   -0.981450
     24          1           0        2.235452    1.414646    0.867989
     25          1           0        1.971956    1.657161   -0.857885
     26          1           0       -1.765482    3.410858    0.072445
     27          1           0       -3.851500    1.988329    0.078850
     28          1           0       -3.271217   -2.983665   -0.061984
     29          1           0       -4.685933   -0.601740    0.023390
 ---------------------------------------------------------------------

 SCF Done:  E(UB3LYP) =  -646.814118181     A.U. after   33 cycles
 SCF Done:  E(UB3LYP) =  -646.815611376     a.u. after    9 cycles

 The electronic state is 2-A.
 Alpha  occ. eigenvalues --  -14.29306 -14.23760 -14.20016 -14.19348 -10.15007
 Alpha  occ. eigenvalues --  -10.13647 -10.10550 -10.10428 -10.10392 -10.10207
 Alpha  occ. eigenvalues --  -10.09992 -10.09753 -10.08284 -10.07490 -10.06777
 Alpha  occ. eigenvalues --   -0.94064  -0.87707  -0.82494  -0.79233  -0.71515
 Alpha  occ. eigenvalues --   -0.66989  -0.65924  -0.64253  -0.59768  -0.55700
 Alpha  occ. eigenvalues --   -0.53244  -0.51815  -0.49883  -0.47693  -0.44570
 Alpha  occ. eigenvalues --   -0.43044  -0.40359  -0.38481  -0.37258  -0.37014
 Alpha  occ. eigenvalues --   -0.35421  -0.34314  -0.33058  -0.32885  -0.32432
 Alpha  occ. eigenvalues --   -0.31518  -0.30081  -0.29112  -0.28180  -0.26692
 Alpha  occ. eigenvalues --   -0.25093  -0.23860  -0.23813  -0.23170  -0.18443
 Alpha  occ. eigenvalues --   -0.17605  -0.16381  -0.13979  -0.10006   0.04332
 Alpha virt. eigenvalues --    0.05554   0.06426   0.07363   0.07958   0.08281
 Alpha virt. eigenvalues --    0.08301   0.09335   0.09354   0.10539   0.10737
 Alpha virt. eigenvalues --    0.11202   0.11999   0.12093   0.12401   0.12955

  Beta  occ. eigenvalues --  -14.29238 -14.23745 -14.19981 -14.19302 -10.14941
  Beta  occ. eigenvalues --  -10.13652 -10.10502 -10.10410 -10.10395 -10.10202
  Beta  occ. eigenvalues --  -10.09986 -10.09751 -10.08273 -10.07471 -10.06742
  Beta  occ. eigenvalues --   -0.93977  -0.87639  -0.82428  -0.79147  -0.71470
  Beta  occ. eigenvalues --   -0.66938  -0.65863  -0.64204  -0.59708  -0.55636
  Beta  occ. eigenvalues --   -0.53174  -0.51780  -0.49825  -0.47636  -0.44513
  Beta  occ. eigenvalues --   -0.42989  -0.40294  -0.38410  -0.37189  -0.36842
  Beta  occ. eigenvalues --   -0.35365  -0.34269  -0.33000  -0.32830  -0.32387
  Beta  occ. eigenvalues --   -0.31480  -0.30052  -0.29063  -0.28110  -0.26537
  Beta  occ. eigenvalues --   -0.25054  -0.23825  -0.23590  -0.23131  -0.18396
  Beta  occ. eigenvalues --   -0.17428  -0.16318  -0.13893  -0.09767
  Beta virt. eigenvalues --    0.06497   0.06941   0.07058   0.07732   0.08417
  Beta virt. eigenvalues --    0.08583   0.08912   0.09415   0.09796   0.11066
  Beta virt. eigenvalues --    0.11106   0.11283   0.11969   0.12334   0.12727

 Mulliken charges and spin densities:
               1          2
     1  C    1.168650  -1.927680
     2  C   -1.698627   2.183315
     3  C    0.760883  -1.546591
     4  C   -0.594485   0.503669
     5  N   -0.017893   0.068630
     6  C    0.679813  -1.255493
     7  C    0.135045  -0.116662
     8  N   -0.163838   0.031609
     9  C    0.173897  -0.283201
    10  C    0.261476  -0.194262
    11  N    0.040868   0.122207
    12  C   -0.180469  -0.505731
    13  N   -0.126597   0.035424
    14  C    0.560188  -0.528070
    15  C    0.190690  -0.196787
    16  H   -0.015097   0.146467
    17  H   -0.170040   0.306570
    18  H   -0.580088   0.738730
    19  H   -0.114951   0.304710
    20  H   -0.206514   0.371743
    21  H    0.091662   0.057334
    22  H    0.169763   0.023181
    23  H    0.061555   0.142387
    24  H    0.120514   0.082777
    25  H    0.107542   0.094984
    26  H    0.021987   0.161506
    27  H   -0.645420   0.816837
    28  H   -0.067866   0.221349
    29  H   -0.962649   1.141047
 Sum of Mulliken charges =  -1.00000   1.00000

 Dipole moment (field-independent basis, Debye):
    X=              0.2998    Y=             -0.4311    Z=              2.1512  Tot=              2.2143
 Quadrupole moment (field-independent basis, Debye-Ang):
   XX=           -205.7933   YY=           -125.8505   ZZ=           -112.6832
   XY=              7.1344   XZ=              1.1878   YZ=             -1.1241

 Summary of Natural Population Analysis:

                                       Natural Population
                Natural  -----------------------------------------------
    Atom  No    Charge         Core      Valence    Rydberg      Total
 -----------------------------------------------------------------------
      C    1   -0.28291      0.99965     2.27707    0.00619     3.28291
      C    2   -0.11817      0.99960     2.10791    0.01066     3.11817
      C    3   -0.19140      0.99962     2.18299    0.00879     3.19140
      C    4   -0.08043      0.99963     2.07071    0.01009     3.08043
      N    5   -0.23024      0.99964     2.72199    0.00861     3.73024
      C    6   -0.07819      0.99961     2.06706    0.01153     3.07819
      C    7    0.21885      0.99950     1.76841    0.01324     2.78115
      N    8   -0.27214      0.99969     2.76242    0.01004     3.77214
      C    9    0.00016      0.99958     1.98623    0.01402     2.99984
      C   10   -0.03158      0.99954     2.01956    0.01247     3.03158
      N   11   -0.17109      0.99962     2.66116    0.01031     3.67109
      C   12    0.15362      0.99957     1.83256    0.01425     2.84638
      N   13   -0.25595      0.99970     2.74641    0.00983     3.75595
      C   14   -0.02122      0.99960     2.00742    0.01420     3.02122
      C   15   -0.03993      0.99957     2.02836    0.01200     3.03993
      H   16    0.09530      0.00000     0.40369    0.00102     0.40470
      H   17    0.10047      0.00000     0.39849    0.00104     0.39953
      H   18    0.10332      0.00000     0.39502    0.00166     0.39668
      H   19    0.09714      0.00000     0.40136    0.00150     0.40286
      H   20    0.10491      0.00000     0.39397    0.00112     0.39509
      H   21    0.09387      0.00000     0.40498    0.00115     0.40613
      H   22    0.10828      0.00000     0.39030    0.00142     0.39172
      H   23    0.09613      0.00000     0.40245    0.00142     0.40387
      H   24    0.09315      0.00000     0.40548    0.00138     0.40685
      H   25    0.10645      0.00000     0.39201    0.00154     0.39355
      H   26    0.09325      0.00000     0.40574    0.00101     0.40675
      H   27    0.10523      0.00000     0.39284    0.00193     0.39477
      H   28    0.09573      0.00000     0.40341    0.00086     0.40427
      H   29    0.10738      0.00000     0.38999    0.00263     0.39262
 =======================================================================
   * Total *   -0.00000     14.99412    38.81997    0.18592    54.00000

 Normal termination of Gaussian 16 at Thu Dec 10 18:50:13 2020.
