 Gaussian 16, Revision A.03,

 -----------------------------------------------------------
 # opt freq B3LYP/6-31G(d) empiricaldispersion=gd3bj scf=xqc
 -----------------------------------------------------------

 -------------------------------
 CID_16281706_JID_10830_neutraal
 -------------------------------
 Symbolic Z-matrix:
 Charge =  0 Multiplicity = 1

 SCF Done:  E(RB3LYP) =  -900.268282048     A.U. after   15 cycles
 SCF Done:  E(RB3LYP) =  -900.288549837     A.U. after   13 cycles
 SCF Done:  E(RB3LYP) =  -900.291086504     A.U. after   13 cycles
 SCF Done:  E(RB3LYP) =  -900.289457281     A.U. after   15 cycles
 SCF Done:  E(RB3LYP) =  -900.291734271     A.U. after   13 cycles
 SCF Done:  E(RB3LYP) =  -900.292445211     A.U. after   12 cycles
 SCF Done:  E(RB3LYP) =  -900.291659352     A.U. after   13 cycles
 SCF Done:  E(RB3LYP) =  -900.292730643     A.U. after   12 cycles
 SCF Done:  E(RB3LYP) =  -900.292909047     A.U. after   11 cycles
 SCF Done:  E(RB3LYP) =  -900.292976311     A.U. after   11 cycles
 SCF Done:  E(RB3LYP) =  -900.293139349     A.U. after   10 cycles
 SCF Done:  E(RB3LYP) =  -900.293139130     A.U. after   10 cycles
 SCF Done:  E(RB3LYP) =  -900.293139697     A.U. after    9 cycles
 SCF Done:  E(RB3LYP) =  -900.293139846     A.U. after    9 cycles
 SCF Done:  E(RB3LYP) =  -900.293139862     A.U. after    7 cycles
 Optimization completed.
    -- Stationary point found.
 Normal termination of Gaussian 16 at Mon Dec 14 19:03:25 2020.

 --------------------------------------------------------------------
 #N Geom=AllCheck Guess=TCheck SCRF=Check GenChk RB3LYP/6-31G(d) Freq
 --------------------------------------------------------------------

 Structure from the checkpoint file:  "JID_10830.chk"
 -------------------------------
 CID_16281706_JID_10830_neutraal
 -------------------------------
 Charge =  0 Multiplicity = 1

 SCF Done:  E(RB3LYP) =  -900.293139862     A.U. after    1 cycles

  Exact polarizability: 173.860  12.696 197.934   3.409  -3.633 152.298
 Approx polarizability: 236.161  24.560 302.572  16.338  -6.959 250.590

                      1                      2                      3
                      A                      A                      A
 Frequencies --      6.3052                12.9410                23.3426
 Red. masses --      6.3702                 4.1829                 4.8093
 Frc consts  --      0.0001                 0.0004                 0.0015
 IR Inten    --      0.0674                 0.1724                 0.9016

                      4                      5                      6
                      A                      A                      A
 Frequencies --     36.1250                44.8332                66.9774
 Red. masses --      4.2638                 3.8973                 4.0081
 Frc consts  --      0.0033                 0.0046                 0.0106
 IR Inten    --      0.2248                 0.5366                 1.9347

                      7                      8                      9
                      A                      A                      A
 Frequencies --     87.4164               109.1833               125.3930
 Red. masses --      3.8563                 4.2564                 4.3384
 Frc consts  --      0.0174                 0.0299                 0.0402
 IR Inten    --      0.2478                 1.8850                 0.6925

                     10                     11                     12
                      A                      A                      A
 Frequencies --    163.8493               176.6267               187.5027
 Red. masses --      3.3769                 4.9641                 3.7169
 Frc consts  --      0.0534                 0.0912                 0.0770
 IR Inten    --      2.5342                 3.1241                 0.4650

                     13                     14                     15
                      A                      A                      A
 Frequencies --    248.8881               265.2816               280.6600
 Red. masses --      2.6975                 1.4378                 4.4210
 Frc consts  --      0.0985                 0.0596                 0.2052
 IR Inten    --      1.9483                 0.0852                 1.5730

                     16                     17                     18
                      A                      A                      A
 Frequencies --    301.0243               316.2620               348.0378
 Red. masses --      2.7078                 3.6172                 2.2105
 Frc consts  --      0.1446                 0.2132                 0.1578
 IR Inten    --      4.4832                 7.8804                 8.9042

                     19                     20                     21
                      A                      A                      A
 Frequencies --    367.2742               384.8051               423.4370
 Red. masses --      4.7122                 5.6010                 4.1590
 Frc consts  --      0.3745                 0.4887                 0.4394
 IR Inten    --      0.7232                 0.8648                 3.9375

                     22                     23                     24
                      A                      A                      A
 Frequencies --    433.4153               457.3593               518.8233
 Red. masses --      3.4156                 5.1427                 4.9152
 Frc consts  --      0.3780                 0.6338                 0.7795
 IR Inten    --      0.4427                 4.7309                 3.8381

                     25                     26                     27
                      A                      A                      A
 Frequencies --    525.0498               533.7468               613.8359
 Red. masses --      4.5663                 2.3351                 3.3840
 Frc consts  --      0.7417                 0.3919                 0.7512
 IR Inten    --      3.0017                 7.2933                 5.7649

                     28                     29                     30
                      A                      A                      A
 Frequencies --    618.3451               642.3720               661.0803
 Red. masses --      6.1318                 4.7015                 6.5097
 Frc consts  --      1.3813                 1.1430                 1.6762
 IR Inten    --      3.8985                 5.5305                 1.0611

                     31                     32                     33
                      A                      A                      A
 Frequencies --    710.5086               724.5179               729.3137
 Red. masses --      4.3396                 1.8907                 4.2255
 Frc consts  --      1.2907                 0.5848                 1.3242
 IR Inten    --      0.0294                 2.2805                41.2361

                     34                     35                     36
                      A                      A                      A
 Frequencies --    744.4899               803.0061               804.2015
 Red. masses --      1.6965                 1.4407                 2.4096
 Frc consts  --      0.5540                 0.5473                 0.9182
 IR Inten    --     62.5970                65.7236                14.6944

                     37                     38                     39
                      A                      A                      A
 Frequencies --    812.3552               823.4846               842.8043
 Red. masses --      1.3474                 1.9219                 1.6631
 Frc consts  --      0.5239                 0.7679                 0.6960
 IR Inten    --     25.2720                75.1447                47.4117

                     40                     41                     42
                      A                      A                      A
 Frequencies --    848.4344               866.4929               900.1398
 Red. masses --      5.2912                 1.3072                 2.9530
 Frc consts  --      2.2441                 0.5782                 1.4097
 IR Inten    --      2.8475                 0.3480                 5.9652

                     43                     44                     45
                      A                      A                      A
 Frequencies --    910.9437               911.2652               950.8628
 Red. masses --      1.5570                 2.8245                 1.2749
 Frc consts  --      0.7613                 1.3819                 0.6791
 IR Inten    --      0.2926                 1.0047                 0.0068

                     46                     47                     48
                      A                      A                      A
 Frequencies --    957.1144               995.6792              1028.2131
 Red. masses --      3.2177                 1.8782                 2.7889
 Frc consts  --      1.7367                 1.0970                 1.7372
 IR Inten    --     14.8704                 8.7552                 1.2727

                     49                     50                     51
                      A                      A                      A
 Frequencies --   1040.8466              1045.3929              1053.6264
 Red. masses --      1.4082                 2.1728                 3.7909
 Frc consts  --      0.8989                 1.3990                 2.4795
 IR Inten    --     19.6447                25.8139                93.1177

                     52                     53                     54
                      A                      A                      A
 Frequencies --   1088.2613              1088.9940              1115.3530
 Red. masses --      2.2603                 3.4203                 3.4980
 Frc consts  --      1.5772                 2.3898                 2.5638
 IR Inten    --     23.4865                50.5732                21.9190

                     55                     56                     57
                      A                      A                      A
 Frequencies --   1125.9650              1143.8641              1173.2411
 Red. masses --      4.2757                 1.2359                 3.6704
 Frc consts  --      3.1938                 0.9528                 2.9767
 IR Inten    --     13.4532                11.0795                31.3483

                     58                     59                     60
                      A                      A                      A
 Frequencies --   1183.8551              1187.8233              1213.5495
 Red. masses --      1.8210                 1.2726                 1.2400
 Frc consts  --      1.5037                 1.0579                 1.0759
 IR Inten    --     18.2162                 0.8392                 2.3121

                     61                     62                     63
                      A                      A                      A
 Frequencies --   1221.0542              1222.0663              1254.4341
 Red. masses --      1.6338                 1.3311                 2.4176
 Frc consts  --      1.4353                 1.1713                 2.2414
 IR Inten    --      3.8510                15.2743                14.3041

                     64                     65                     66
                      A                      A                      A
 Frequencies --   1256.9924              1271.0663              1295.9128
 Red. masses --      2.5346                 1.3847                 5.8824
 Frc consts  --      2.3595                 1.3180                 5.8205
 IR Inten    --    305.8219                 9.5407               118.1880

                     67                     68                     69
                      A                      A                      A
 Frequencies --   1301.5789              1329.9549              1347.1520
 Red. masses --      1.2470                 1.2495                 1.3132
 Frc consts  --      1.2447                 1.3021                 1.4041
 IR Inten    --     65.6193                 3.9491                14.9747

                     70                     71                     72
                      A                      A                      A
 Frequencies --   1373.3832              1380.8988              1409.2117
 Red. masses --      4.9206                 1.3130                 1.4189
 Frc consts  --      5.4683                 1.4752                 1.6601
 IR Inten    --     43.1368                34.9776                25.3458

                     73                     74                     75
                      A                      A                      A
 Frequencies --   1417.4006              1436.1448              1475.7050
 Red. masses --      1.3773                 2.5288                 3.2183
 Frc consts  --      1.6303                 3.0730                 4.1293
 IR Inten    --     20.5228                 0.3061                 4.8975

                     76                     77                     78
                      A                      A                      A
 Frequencies --   1486.7817              1500.3390              1512.6987
 Red. masses --      1.0770                 1.1900                 1.0897
 Frc consts  --      1.4027                 1.5783                 1.4692
 IR Inten    --      3.7141                23.2322                 6.8091

                     79                     80                     81
                      A                      A                      A
 Frequencies --   1516.8742              1519.7573              1526.8919
 Red. masses --      1.1862                 1.0482                 1.0886
 Frc consts  --      1.6080                 1.4264                 1.4953
 IR Inten    --     38.3438                 3.9539                 1.2592

                     82                     83                     84
                      A                      A                      A
 Frequencies --   1537.1997              1547.5750              1566.5186
 Red. masses --      1.0717                 4.8025                 2.3819
 Frc consts  --      1.4921                 6.7767                 3.4439
 IR Inten    --     53.2528                13.1450               238.6224

                     85                     86                     87
                      A                      A                      A
 Frequencies --   1644.5694              1644.9852              1682.2157
 Red. masses --      6.9812                 5.9444                 5.8649
 Frc consts  --     11.1247                 9.4773                 9.7785
 IR Inten    --     14.7625                 1.2012                 5.0561

                     88                     89                     90
                      A                      A                      A
 Frequencies --   2375.0565              2989.4871              3017.6248
 Red. masses --     11.8595                 1.0685                 1.0496
 Frc consts  --     39.4154                 5.6260                 5.6313
 IR Inten    --      9.9140                26.9589                51.8849

                     91                     92                     93
                      A                      A                      A
 Frequencies --   3018.2982              3044.7169              3057.7220
 Red. masses --      1.0547                 1.0902                 1.0611
 Frc consts  --      5.6614                 5.9543                 5.8450
 IR Inten    --     45.3902                22.3995                33.2374

                     94                     95                     96
                      A                      A                      A
 Frequencies --   3073.0411              3104.7748              3107.0468
 Red. masses --      1.1062                 1.0930                 1.1038
 Frc consts  --      6.1547                 6.2076                 6.2783
 IR Inten    --     49.8044                17.8979                14.2930

                     97                     98                     99
                      A                      A                      A
 Frequencies --   3154.5498              3207.3715              3222.0352
 Red. masses --      1.0990                 1.0874                 1.0922
 Frc consts  --      6.4433                 6.5908                 6.6803
 IR Inten    --     30.4370                 7.4823                12.2337

                    100                    101                    102
                      A                      A                      A
 Frequencies --   3222.3967              3240.1432              3261.5180
 Red. masses --      1.0905                 1.0926                 1.0923
 Frc consts  --      6.6718                 6.7581                 6.8462
 IR Inten    --      6.6233                 4.0016                 4.5822

                    103                    104                    105
                      A                      A                      A
 Frequencies --   3273.8488              3302.8600              3488.4015
 Red. masses --      1.0958                 1.1048                 1.0744
 Frc consts  --      6.9202                 7.1009                 7.7028
 IR Inten    --      1.7586                 1.5352                 0.7395

 - Thermochemistry -
 -------------------
 Temperature   298.150 Kelvin.  Pressure   1.00000 Atm.
 Atom     1 has atomic number  6 and mass  12.00000

 Molecular mass:   271.12084 amu.
 Principal axes and moments of inertia in atomic units:
                           1         2         3
     Eigenvalues --  4356.51155********************
           X            0.99997   0.00647  -0.00387
           Y           -0.00651   0.99994  -0.00922
           Z            0.00381   0.00924   0.99995
 This molecule is an asymmetric top.
 Rotational symmetry number  1.
 Warning -- assumption of classical behavior for rotation
           may cause significant error
 Rotational temperatures (Kelvin)      0.01988     0.00759     0.00626
 Rotational constants (GHZ):           0.41426     0.15814     0.13042
 Zero-point vibrational energy     793393.6 (Joules/Mol)
                                  189.62562 (Kcal/Mol)
 Warning -- explicit consideration of  28 degrees of freedom as
           vibrations may cause significant error
 Vibrational temperatures:      9.07    18.62    33.58    51.98    64.51
          (Kelvin)             96.37   125.77   157.09   180.41   235.74
                              254.13   269.77   358.09   381.68   403.81
                              433.11   455.03   500.75   528.43   553.65
                              609.23   623.59   658.04   746.47   755.43
                              767.94   883.17   889.66   924.23   951.15
                             1022.26  1042.42  1049.32  1071.15  1155.35
                             1157.07  1168.80  1184.81  1212.61  1220.71
                             1246.69  1295.10  1310.64  1311.11  1368.08
                             1377.07  1432.56  1479.37  1497.55  1504.09
                             1515.93  1565.77  1566.82  1604.74  1620.01
                             1645.77  1688.03  1703.30  1709.01  1746.03
                             1756.82  1758.28  1804.85  1808.53  1828.78
                             1864.53  1872.68  1913.51  1938.25  1975.99
                             1986.81  2027.54  2039.32  2066.29  2123.21
                             2139.15  2158.65  2176.44  2182.44  2186.59
                             2196.86  2211.69  2226.62  2253.87  2366.17
                             2366.77  2420.33  3417.18  4301.21  4341.69
                             4342.66  4380.67  4399.38  4421.42  4467.08
                             4470.35  4538.69  4614.69  4635.79  4636.31
                             4661.84  4692.60  4710.34  4752.08  5019.03

 Zero-point correction=                           0.302188 (Hartree/Particle)
 Thermal correction to Energy=                    0.321191
 Thermal correction to Enthalpy=                  0.322135
 Thermal correction to Gibbs Free Energy=         0.249246
 Sum of electronic and zero-point Energies=           -899.990952
 Sum of electronic and thermal Energies=              -899.971949
 Sum of electronic and thermal Enthalpies=            -899.971005
 Sum of electronic and thermal Free Energies=         -900.043894

                     E (Thermal)             CV                S
                      KCal/Mol        Cal/Mol-Kelvin    Cal/Mol-Kelvin
 Total                  201.550             70.427            153.406
 Electronic               0.000              0.000              0.000
 Translational            0.889              2.981             42.691
 Rotational               0.889              2.981             34.886
 Vibrational            199.773             64.465             75.830
 Vibration     1          0.593              1.987              8.927
 Vibration     2          0.593              1.987              7.499
 Vibration     3          0.593              1.985              6.327
 Vibration     4          0.594              1.982              5.461
 Vibration     5          0.595              1.979              5.033
 Vibration     6          0.598              1.970              4.240
 Vibration     7          0.601              1.958              3.717
 Vibration     8          0.606              1.942              3.283
 Vibration     9          0.610              1.928              3.016
 Vibration    10          0.623              1.887              2.505
 Vibration    11          0.628              1.871              2.364
 Vibration    12          0.632              1.857              2.252
 Vibration    13          0.662              1.765              1.738
 Vibration    14          0.671              1.737              1.627
 Vibration    15          0.680              1.709              1.530
 Vibration    16          0.693              1.672              1.411
 Vibration    17          0.703              1.643              1.329
 Vibration    18          0.726              1.579              1.175
 Vibration    19          0.740              1.540              1.091
 Vibration    20          0.754              1.503              1.020
 Vibration    21          0.786              1.419              0.880
 Vibration    22          0.794              1.397              0.848
 Vibration    23          0.815              1.345              0.774
 Vibration    24          0.874              1.208              0.613
 Vibration    25          0.880              1.195              0.598
 Vibration    26          0.889              1.175              0.579
 Vibration    27          0.973              1.003              0.426
 Vibration    28          0.978              0.993              0.419

                           ! Non-Optimized Parameters !
 Normal termination of Gaussian 16 at Mon Dec 14 19:20:15 2020.

 ----------------------------------------------------------------------
 # B3LYP/6-311++G(d,p) empiricaldispersion=gd3bj scf=xqc pop=npa geom=c
 heck
 ----------------------------------------------------------------------

 ---------------------------------------
 CID_16281706_JID_10830_Energie_neutraal
 ---------------------------------------
 Structure from the checkpoint file:  "JID_10830.chk"
 Charge =  0 Multiplicity = 1

 SCF Done:  E(RB3LYP) =  -900.545281201     A.U. after   15 cycles
 Normal termination of Gaussian 16 at Mon Dec 14 19:28:12 2020.

 ----------------------------------------------------------------------
 # B3LYP/6-311++G(d,p) empiricaldispersion=gd3bj scf=xqc pop=npa geom=c
 heck
 ----------------------------------------------------------------------

 -------------------------------------
 CID_16281706_JID_10830_Energie_kation
 -------------------------------------
 Structure from the checkpoint file:  "JID_10830.chk"
 Charge =  1 Multiplicity = 2

 SCF Done:  E(UB3LYP) =  -900.277188806     A.U. after   26 cycles
 Normal termination of Gaussian 16 at Mon Dec 14 19:47:27 2020.
 Gaussian 16:  ES64L-G16RevA.03 25-Dec-2016

 ----------------------------------------------------------------------
 # B3LYP/6-311++G(d,p) empiricaldispersion=gd3bj scf=xqc pop=npa geom=c
 heck
 ----------------------------------------------------------------------

 ------------------------------------
 CID_16281706_JID_10830_Energie_anion
 ------------------------------------
 Structure from the checkpoint file:  "JID_10830.chk"
 Charge = -1 Multiplicity = 2

                         Standard orientation:
 ---------------------------------------------------------------------
 Center     Atomic      Atomic             Coordinates (Angstroms)
 Number     Number       Type             X           Y           Z
 ---------------------------------------------------------------------
      1          6           0        3.691068    3.362937   -1.096244
      2          8           0        3.947187    2.657117    0.102908
      3          6           0        3.487544    1.369574    0.189707
      4          6           0        3.771625    0.699266    1.389002
      5          6           0        3.349893   -0.606356    1.578777
      6          6           0        2.635376   -1.275869    0.574649
      7          6           0        2.346715   -0.613470   -0.617692
      8          6           0        2.773716    0.707885   -0.808843
      9          8           0        2.281175   -2.570873    0.870573
     10          6           0        1.572769   -3.313691   -0.118945
     11          6           0        0.216072   -2.817119   -0.355470
     12          6           0       -0.873080   -2.330538   -0.547607
     13          6           0       -2.150951   -1.655366   -0.762278
     14          7           0       -1.928189   -0.354827   -1.412586
     15          6           0       -3.157243    0.431766   -1.588165
     16          6           0       -3.845634    0.884544   -0.338930
     17          6           0       -3.797264    2.037473    0.390739
     18          6           0       -4.632377    1.839025    1.540305
     19          6           0       -5.129999    0.577743    1.431007
     20          8           0       -4.663554   -0.020577    0.295043
     21          1           0        4.138865    4.350147   -0.968154
     22          1           0        2.613127    3.474735   -1.278010
     23          1           0        4.148105    2.866639   -1.963355
     24          1           0        4.326881    1.224984    2.159036
     25          1           0        3.565425   -1.133958    2.502243
     26          1           0        1.772061   -1.090531   -1.401479
     27          1           0        2.533759    1.199065   -1.744437
     28          1           0        2.144289   -3.324949   -1.058923
     29          1           0        1.548894   -4.336874    0.267526
     30          1           0       -2.789323   -2.256741   -1.424385
     31          1           0       -2.688907   -1.582552    0.197636
     32          1           0       -1.269160    0.176470   -0.844727
     33          1           0       -2.897012    1.318739   -2.175348
     34          1           0       -3.849912   -0.165764   -2.193296
     35          1           0       -3.235773    2.926230    0.137364
     36          1           0       -4.835370    2.544679    2.333477
     37          1           0       -5.796458   -0.018700    2.034682
 ---------------------------------------------------------------------

 SCF Done:  E(UB3LYP) =  -900.534327662     A.U. after   33 cycles
 SCF Done:  E(UB3LYP) =  -900.534327662     a.u. after    1 cycles

 The electronic state is 2-A.
 Alpha  occ. eigenvalues --  -19.10285 -19.07324 -19.06302 -14.21962 -10.17358
 Alpha  occ. eigenvalues --  -10.14544 -10.14308 -10.13664 -10.13582 -10.13330
 Alpha  occ. eigenvalues --  -10.12905 -10.11992 -10.09244 -10.09031 -10.08916
 Alpha  occ. eigenvalues --  -10.08895 -10.08801 -10.08736 -10.08674 -10.08335
 Alpha  occ. eigenvalues --   -1.02572  -0.98832  -0.97857  -0.82972  -0.76973
 Alpha  occ. eigenvalues --   -0.71709  -0.71083  -0.68955  -0.67183  -0.66606
 Alpha  occ. eigenvalues --   -0.64245  -0.61134  -0.59300  -0.56368  -0.53470
 Alpha  occ. eigenvalues --   -0.51741  -0.50696  -0.47267  -0.46624  -0.44848
 Alpha  occ. eigenvalues --   -0.44142  -0.42963  -0.42185  -0.41431  -0.39504
 Alpha  occ. eigenvalues --   -0.37834  -0.37807  -0.36318  -0.36174  -0.35895
 Alpha  occ. eigenvalues --   -0.35393  -0.34946  -0.33001  -0.32457  -0.32036
 Alpha  occ. eigenvalues --   -0.31909  -0.31414  -0.30844  -0.29702  -0.29288
 Alpha  occ. eigenvalues --   -0.28289  -0.27035  -0.26441  -0.24317  -0.21368
 Alpha  occ. eigenvalues --   -0.19960  -0.19484  -0.18947  -0.17209  -0.15957
 Alpha  occ. eigenvalues --   -0.13845  -0.12286   0.03914
 Alpha virt. eigenvalues --    0.05628   0.06056   0.06633   0.06831   0.07184
 Alpha virt. eigenvalues --    0.07665   0.07829   0.08129   0.08243   0.08933
 Alpha virt. eigenvalues --    0.09190   0.09432   0.09752   0.10354   0.10601

  Beta  occ. eigenvalues --  -19.10265 -19.07321 -19.06294 -14.21947 -10.17348
  Beta  occ. eigenvalues --  -10.14545 -10.14308 -10.13657 -10.13557 -10.13318
  Beta  occ. eigenvalues --  -10.12861 -10.11974 -10.09240 -10.09026 -10.08910
  Beta  occ. eigenvalues --  -10.08891 -10.08797 -10.08720 -10.08670 -10.08309
  Beta  occ. eigenvalues --   -1.02538  -0.98824  -0.97840  -0.82944  -0.76962
  Beta  occ. eigenvalues --   -0.71676  -0.71061  -0.68924  -0.67162  -0.66580
  Beta  occ. eigenvalues --   -0.64214  -0.61093  -0.59261  -0.56313  -0.53446
  Beta  occ. eigenvalues --   -0.51710  -0.50672  -0.47215  -0.46607  -0.44805
  Beta  occ. eigenvalues --   -0.44109  -0.42935  -0.42166  -0.41406  -0.39460
  Beta  occ. eigenvalues --   -0.37806  -0.37785  -0.36286  -0.36147  -0.35836
  Beta  occ. eigenvalues --   -0.35363  -0.34927  -0.32970  -0.32423  -0.32019
  Beta  occ. eigenvalues --   -0.31860  -0.31380  -0.30827  -0.29675  -0.29270
  Beta  occ. eigenvalues --   -0.28260  -0.27016  -0.26417  -0.24290  -0.21348
  Beta  occ. eigenvalues --   -0.19902  -0.19461  -0.18930  -0.17184  -0.15921
  Beta  occ. eigenvalues --   -0.13785  -0.12271
  Beta virt. eigenvalues --    0.05775   0.06287   0.06586   0.06792   0.07019
  Beta virt. eigenvalues --    0.07685   0.07789   0.08063   0.08331   0.08648
  Beta virt. eigenvalues --    0.09143   0.09442   0.09603   0.09864   0.10440

 Mulliken charges and spin densities:
               1          2
     1  C    0.740588  -1.082677
     2  O   -0.217005   0.051399
     3  C   -0.697101   0.010821
     4  C   -0.162649  -0.002349
     5  C   -0.706867   0.566411
     6  C    0.177586  -0.573276
     7  C    1.085763  -0.763025
     8  C    0.109170   0.288113
     9  O   -0.082334   0.008224
    10  C   -0.251329  -0.354165
    11  C    0.135486   0.031357
    12  C    0.134085  -0.051486
    13  C   -0.240040  -0.328613
    14  N    0.028299   0.025826
    15  C    0.969266  -1.854556
    16  C    0.394943  -0.276580
    17  C   -1.613811   1.833230
    18  C    1.705062  -2.109533
    19  C   -0.645691   0.673117
    20  O   -0.011851   0.027627
    21  H   -0.331262   0.502889
    22  H   -0.310346   0.485899
    23  H   -0.221676   0.369592
    24  H    0.121004   0.054157
    25  H    0.096385   0.074861
    26  H   -0.099406   0.258158
    27  H   -0.101598   0.331414
    28  H    0.073228   0.122358
    29  H    0.084666   0.105271
    30  H   -0.055297   0.224017
    31  H    0.122421   0.036297
    32  H    0.423398  -0.246529
    33  H   -0.261816   0.477118
    34  H   -0.039522   0.208211
    35  H   -0.687259   0.880284
    36  H   -0.209332   0.367898
    37  H   -0.455157   0.628236
 Sum of Mulliken charges =  -1.00000   1.00000

 Dipole moment (field-independent basis, Debye):
    X=              1.3696    Y=             -6.7174    Z=              2.2095  Tot=              7.2029
 Quadrupole moment (field-independent basis, Debye-Ang):
   XX=           -204.4116   YY=           -177.0304   ZZ=           -156.2305
   XY=             -5.7612   XZ=              9.9129   YZ=              7.9699

 Summary of Natural Population Analysis:

                                       Natural Population
                Natural  -----------------------------------------------
    Atom  No    Charge         Core      Valence    Rydberg      Total
 -----------------------------------------------------------------------
      C    1   -0.10132      0.99960     2.09251    0.00921     3.10132
      O    2   -0.27475      0.99986     3.26519    0.00970     4.27475
      C    3    0.14804      0.99937     1.83845    0.01413     2.85196
      C    4   -0.11231      0.99953     2.10394    0.00884     3.11231
      C    5   -0.11267      0.99953     2.10418    0.00896     3.11267
      C    6    0.14212      0.99937     1.84451    0.01400     2.85788
      C    7   -0.13257      0.99953     2.12388    0.00917     3.13257
      C    8   -0.13279      0.99953     2.12401    0.00925     3.13279
      O    9   -0.27323      0.99986     3.26435    0.00902     4.27323
      C   10   -0.04464      0.99951     2.03292    0.01222     3.04464
      C   11   -0.05591      0.99930     2.04710    0.00951     3.05591
      C   12    0.05472      0.99923     1.93678    0.00928     2.94528
      C   13   -0.13828      0.99959     2.12401    0.01468     3.13828
      N   14   -0.32516      0.99975     2.81338    0.01203     3.82516
      C   15   -0.11323      0.99957     2.10066    0.01299     3.11323
      C   16    0.13819      0.99947     1.84707    0.01527     2.86181
      C   17   -0.14343      0.99949     2.13469    0.00925     3.14343
      C   18   -0.14993      0.99957     2.14134    0.00902     3.14993
      C   19    0.05976      0.99951     1.92695    0.01378     2.94024
      O   20   -0.24018      0.99986     3.23159    0.00873     4.24018
      H   21    0.09336      0.00000     0.40543    0.00120     0.40664
      H   22    0.08915      0.00000     0.40844    0.00241     0.41085
      H   23    0.08349      0.00000     0.41485    0.00166     0.41651
      H   24    0.10545      0.00000     0.39358    0.00097     0.39455
      H   25    0.10487      0.00000     0.39416    0.00098     0.39513
      H   26    0.11036      0.00000     0.38742    0.00222     0.38964
      H   27    0.10984      0.00000     0.38849    0.00168     0.39016
      H   28    0.09690      0.00000     0.40162    0.00148     0.40310
      H   29    0.10430      0.00000     0.39432    0.00138     0.39570
      H   30    0.10560      0.00000     0.39261    0.00179     0.39440
      H   31    0.10242      0.00000     0.39543    0.00215     0.39758
      H   32    0.17622      0.00000     0.31980    0.00398     0.32378
      H   33    0.11037      0.00000     0.38823    0.00140     0.38963
      H   34    0.09972      0.00000     0.39881    0.00147     0.40028
      H   35    0.11384      0.00000     0.38450    0.00166     0.38616
      H   36    0.10914      0.00000     0.38994    0.00092     0.39086
      H   37    0.09505      0.00000     0.40373    0.00122     0.40495
 =======================================================================
   * Total *    0.00254     19.99103    51.75888    0.24756    71.99746

 Normal termination of Gaussian 16 at Mon Dec 14 20:12:24 2020.
