 Gaussian 16, Revision A.03,

 -----------------------------------------------------------
 # opt freq B3LYP/6-31G(d) empiricaldispersion=gd3bj scf=xqc
 -----------------------------------------------------------

 -------------------------------
 CID_143468961_JID_6692_neutraal
 -------------------------------
 Symbolic Z-matrix:
 Charge =  0 Multiplicity = 1

 SCF Done:  E(RB3LYP) =  -741.739124599     A.U. after   15 cycles
 SCF Done:  E(RB3LYP) =  -741.747636980     A.U. after   12 cycles
 SCF Done:  E(RB3LYP) =  -741.749549552     A.U. after   12 cycles
 SCF Done:  E(RB3LYP) =  -741.751101237     A.U. after   12 cycles
 SCF Done:  E(RB3LYP) =  -741.752484759     A.U. after   12 cycles
 SCF Done:  E(RB3LYP) =  -741.753269931     A.U. after   12 cycles
 SCF Done:  E(RB3LYP) =  -741.753488476     A.U. after   12 cycles
 SCF Done:  E(RB3LYP) =  -741.753447588     A.U. after   12 cycles
 SCF Done:  E(RB3LYP) =  -741.753619766     A.U. after   11 cycles
 SCF Done:  E(RB3LYP) =  -741.753624467     A.U. after    8 cycles
 SCF Done:  E(RB3LYP) =  -741.753627187     A.U. after    9 cycles
 SCF Done:  E(RB3LYP) =  -741.753628230     A.U. after    8 cycles
 SCF Done:  E(RB3LYP) =  -741.753628905     A.U. after    8 cycles
 SCF Done:  E(RB3LYP) =  -741.753629133     A.U. after    8 cycles
 Optimization completed.
    -- Stationary point found.
 Normal termination of Gaussian 16 at Thu Dec 10 22:54:00 2020.

 --------------------------------------------------------------------
 #N Geom=AllCheck Guess=TCheck SCRF=Check GenChk RB3LYP/6-31G(d) Freq
 --------------------------------------------------------------------

 Structure from the checkpoint file:  "JID_6692.chk"
 -------------------------------
 CID_143468961_JID_6692_neutraal
 -------------------------------
 Charge =  0 Multiplicity = 1

 SCF Done:  E(RB3LYP) =  -741.753629133     A.U. after    1 cycles

  Exact polarizability: 159.930   0.905 167.434  -8.469   7.856  81.490
 Approx polarizability: 244.253   5.759 273.075 -21.311  16.032 123.038

                      1                      2                      3
                      A                      A                      A
 Frequencies --     59.1018                70.9311                78.9287
 Red. masses --      4.0366                 4.8606                 3.1080
 Frc consts  --      0.0083                 0.0144                 0.0114
 IR Inten    --      0.3819                 0.5997                 0.6545

                      4                      5                      6
                      A                      A                      A
 Frequencies --    109.6247               130.8404               166.6148
 Red. masses --      1.7938                 1.8065                 1.7254
 Frc consts  --      0.0127                 0.0182                 0.0282
 IR Inten    --      2.9546                 6.3354                 2.9547

                      7                      8                      9
                      A                      A                      A
 Frequencies --    173.9601               236.2790               249.4108
 Red. masses --      1.2511                 4.1222                 4.0726
 Frc consts  --      0.0223                 0.1356                 0.1493
 IR Inten    --      1.7535                10.0446                 2.1230

                     10                     11                     12
                      A                      A                      A
 Frequencies --    264.6198               306.7826               329.1845
 Red. masses --      4.3632                 4.3837                 2.6235
 Frc consts  --      0.1800                 0.2431                 0.1675
 IR Inten    --      2.5588                 0.1902                22.3503

                     13                     14                     15
                      A                      A                      A
 Frequencies --    337.0624               377.6642               404.5055
 Red. masses --      2.5539                 2.0455                 5.4619
 Frc consts  --      0.1710                 0.1719                 0.5266
 IR Inten    --     29.0563               100.9876                 3.3958

                     16                     17                     18
                      A                      A                      A
 Frequencies --    428.8121               453.4537               531.8270
 Red. masses --      6.2646                 6.0364                 4.8229
 Frc consts  --      0.6787                 0.7313                 0.8037
 IR Inten    --     26.1347                10.6806                 3.9574

                     19                     20                     21
                      A                      A                      A
 Frequencies --    546.3240               559.2780               585.4169
 Red. masses --      4.6394                 5.7310                 4.2593
 Frc consts  --      0.8158                 1.0562                 0.8600
 IR Inten    --      2.9753                 6.4063                 4.6659

                     22                     23                     24
                      A                      A                      A
 Frequencies --    598.7937               627.4255               670.0012
 Red. masses --      4.3886                 5.0275                 5.1804
 Frc consts  --      0.9271                 1.1661                 1.3701
 IR Inten    --      6.1759                 2.8693                42.5530

                     25                     26                     27
                      A                      A                      A
 Frequencies --    693.7509               718.4228               755.2143
 Red. masses --      4.3973                 2.6365                 1.8160
 Frc consts  --      1.2469                 0.8017                 0.6102
 IR Inten    --      9.5778                13.5193                38.3635

                     28                     29                     30
                      A                      A                      A
 Frequencies --    778.6654               839.6489               857.3927
 Red. masses --      5.4403                 1.3743                 4.1773
 Frc consts  --      1.9435                 0.5709                 1.8093
 IR Inten    --      3.8310                 0.4167                 5.6146

                     31                     32                     33
                      A                      A                      A
 Frequencies --    897.6045               918.0954               942.7113
 Red. masses --      3.8724                 1.2055                 4.8788
 Frc consts  --      1.8382                 0.5987                 2.5546
 IR Inten    --      3.8709                 0.4776                32.5093

                     34                     35                     36
                      A                      A                      A
 Frequencies --   1011.0951              1031.1899              1047.1987
 Red. masses --      3.5994                 2.1472                 3.5650
 Frc consts  --      2.1680                 1.3453                 2.3034
 IR Inten    --      0.9147                24.6634                59.9800

                     37                     38                     39
                      A                      A                      A
 Frequencies --   1065.1444              1082.0884              1117.3258
 Red. masses --      4.2353                 2.0498                 6.4001
 Frc consts  --      2.8311                 1.4142                 4.7076
 IR Inten    --     60.6311                69.6655               221.5300

                     40                     41                     42
                      A                      A                      A
 Frequencies --   1161.0988              1165.6340              1176.7163
 Red. masses --      2.9737                 1.3887                 1.7007
 Frc consts  --      2.3620                 1.1117                 1.3874
 IR Inten    --      3.0666                 1.6111                27.6439

                     43                     44                     45
                      A                      A                      A
 Frequencies --   1185.5497              1195.6110              1218.7822
 Red. masses --      1.2812                 1.5051                 1.5519
 Frc consts  --      1.0610                 1.2677                 1.3582
 IR Inten    --      2.7572                23.8223                37.8175

                     46                     47                     48
                      A                      A                      A
 Frequencies --   1229.9157              1254.5946              1280.0105
 Red. masses --      1.8279                 1.2580                 1.9953
 Frc consts  --      1.6291                 1.1666                 1.9261
 IR Inten    --     37.4171                 7.6358                 7.8735

                     49                     50                     51
                      A                      A                      A
 Frequencies --   1289.0908              1346.1370              1362.7031
 Red. masses --      1.4951                 3.4236                 1.9072
 Frc consts  --      1.4638                 3.6552                 2.0867
 IR Inten    --      9.7958                97.3610                52.0220

                     52                     53                     54
                      A                      A                      A
 Frequencies --   1377.7942              1404.3789              1423.6157
 Red. masses --      2.5760                 3.2615                 1.6653
 Frc consts  --      2.8812                 3.7900                 1.9885
 IR Inten    --     49.5632               109.0965                71.8756

                     55                     56                     57
                      A                      A                      A
 Frequencies --   1444.0460              1458.0682              1462.1100
 Red. masses --      1.5437                 2.4863                 1.2606
 Frc consts  --      1.8966                 3.1143                 1.5878
 IR Inten    --     35.9370                87.6402                13.9231

                     58                     59                     60
                      A                      A                      A
 Frequencies --   1491.1862              1514.4640              1523.5466
 Red. masses --      1.1900                 1.0561                 1.2879
 Frc consts  --      1.5590                 1.4271                 1.7613
 IR Inten    --     23.6159                 5.8808                22.9855

                     61                     62                     63
                      A                      A                      A
 Frequencies --   1527.7985              1534.2489              1542.9919
 Red. masses --      1.0788                 1.7143                 1.1047
 Frc consts  --      1.4836                 2.3776                 1.5495
 IR Inten    --      9.3717                36.6356                34.4681

                     64                     65                     66
                      A                      A                      A
 Frequencies --   1544.1728              1566.3426              1663.7476
 Red. masses --      1.2755                 3.6503                 7.0529
 Frc consts  --      1.7920                 5.2765                11.5024
 IR Inten    --     68.3641               137.3512                 9.4029

                     67                     68                     69
                      A                      A                      A
 Frequencies --   1714.4020              1779.3052              2956.9082
 Red. masses --      8.9225                11.0981                 1.0731
 Frc consts  --     15.4512                20.7014                 5.5280
 IR Inten    --     64.6823               417.6866                72.6453

                     70                     71                     72
                      A                      A                      A
 Frequencies --   3037.6536              3042.7697              3055.3420
 Red. masses --      1.0395                 1.0850                 1.0386
 Frc consts  --      5.6515                 5.9188                 5.7123
 IR Inten    --     55.0785                61.9201                37.6084

                     73                     74                     75
                      A                      A                      A
 Frequencies --   3104.2080              3113.5041              3132.8827
 Red. masses --      1.0995                 1.1039                 1.0891
 Frc consts  --      6.2421                 6.3051                 6.2979
 IR Inten    --     29.0509                23.8603                10.3657

                     76                     77                     78
                      A                      A                      A
 Frequencies --   3159.2445              3195.7300              3198.9953
 Red. masses --      1.1026                 1.0868                 1.0984
 Frc consts  --      6.4837                 6.5392                 6.6225
 IR Inten    --     29.9792                 6.0175                 1.2410

                     79                     80                     81
                      A                      A                      A
 Frequencies --   3213.0542              3227.2401              3629.2787
 Red. masses --      1.0926                 1.0930                 1.0775
 Frc consts  --      6.6458                 6.7072                 8.3618
 IR Inten    --     19.0367                10.9871                29.8622

 - Thermochemistry -
 -------------------
 Temperature   298.150 Kelvin.  Pressure   1.00000 Atm.
 Atom     1 has atomic number  6 and mass  12.00000

 Molecular mass:   219.10078 amu.
 Principal axes and moments of inertia in atomic units:
                           1         2         3
     Eigenvalues --  2421.004843349.959565162.86637
           X            0.99912  -0.04193   0.00296
           Y            0.04193   0.99912   0.00158
           Z           -0.00302  -0.00145   0.99999
 This molecule is an asymmetric top.
 Rotational symmetry number  1.
 Warning -- assumption of classical behavior for rotation
           may cause significant error
 Rotational temperatures (Kelvin)      0.03578     0.02586     0.01678
 Rotational constants (GHZ):           0.74545     0.53874     0.34956
 Zero-point vibrational energy     621802.5 (Joules/Mol)
                                  148.61437 (Kcal/Mol)
 Warning -- explicit consideration of  22 degrees of freedom as
           vibrations may cause significant error
 Vibrational temperatures:     85.03   102.05   113.56   157.73   188.25
          (Kelvin)            239.72   250.29   339.95   358.85   380.73
                              441.39   473.62   484.96   543.37   581.99
                              616.96   652.42   765.18   786.04   804.68
                              842.28   861.53   902.73   963.98   998.15
                             1033.65  1086.58  1120.33  1208.07  1233.60
                             1291.45  1320.93  1356.35  1454.74  1483.65
                             1506.69  1532.51  1556.88  1607.58  1670.56
                             1677.09  1693.03  1705.74  1720.22  1753.56
                             1769.57  1805.08  1841.65  1854.71  1936.79
                             1960.63  1982.34  2020.59  2048.27  2077.66
                             2097.83  2103.65  2145.48  2178.98  2192.04
                             2198.16  2207.44  2220.02  2221.72  2253.62
                             2393.76  2466.64  2560.02  4254.33  4370.51
                             4377.87  4395.96  4466.26  4479.64  4507.52
                             4545.45  4597.94  4602.64  4622.87  4643.28
                             5221.72

 Zero-point correction=                           0.236832 (Hartree/Particle)
 Thermal correction to Energy=                    0.250764
 Thermal correction to Enthalpy=                  0.251708
 Thermal correction to Gibbs Free Energy=         0.196264
 Sum of electronic and zero-point Energies=           -741.516797
 Sum of electronic and thermal Energies=              -741.502865
 Sum of electronic and thermal Enthalpies=            -741.501921
 Sum of electronic and thermal Free Energies=         -741.557365

                     E (Thermal)             CV                S
                      KCal/Mol        Cal/Mol-Kelvin    Cal/Mol-Kelvin
 Total                  157.357             53.768            116.691
 Electronic               0.000              0.000              0.000
 Translational            0.889              2.981             42.056
 Rotational               0.889              2.981             32.104
 Vibrational            155.579             47.806             42.531
 Vibration     1          0.596              1.974              4.487
 Vibration     2          0.598              1.968              4.127
 Vibration     3          0.600              1.963              3.917
 Vibration     4          0.606              1.942              3.276
 Vibration     5          0.612              1.922              2.934
 Vibration     6          0.624              1.884              2.473
 Vibration     7          0.627              1.875              2.392
 Vibration     8          0.655              1.785              1.831
 Vibration     9          0.662              1.764              1.735
 Vibration    10          0.671              1.738              1.631
 Vibration    11          0.697              1.661              1.380
 Vibration    12          0.712              1.617              1.264
 Vibration    13          0.718              1.601              1.226
 Vibration    14          0.748              1.518              1.049
 Vibration    15          0.770              1.460              0.946
 Vibration    16          0.790              1.408              0.863
 Vibration    17          0.812              1.353              0.785
 Vibration    18          0.887              1.180              0.583
 Vibration    19          0.902              1.148              0.552
 Vibration    20          0.915              1.119              0.525
 Vibration    21          0.942              1.063              0.475
 Vibration    22          0.957              1.034              0.452

                           ! Non-Optimized Parameters !
 Normal termination of Gaussian 16 at Thu Dec 10 23:04:26 2020.

 ----------------------------------------------------------------------
 # B3LYP/6-311++G(d,p) empiricaldispersion=gd3bj scf=xqc pop=npa geom=c
 heck
 ----------------------------------------------------------------------

 ---------------------------------------
 CID_143468961_JID_6692_Energie_neutraal
 ---------------------------------------
 Structure from the checkpoint file:  "JID_6692.chk"
 Charge =  0 Multiplicity = 1

 SCF Done:  E(RB3LYP) =  -741.958386163     A.U. after   15 cycles
 Normal termination of Gaussian 16 at Thu Dec 10 23:08:14 2020.

 ----------------------------------------------------------------------
 # B3LYP/6-311++G(d,p) empiricaldispersion=gd3bj scf=xqc pop=npa geom=c
 heck
 ----------------------------------------------------------------------

 -------------------------------------
 CID_143468961_JID_6692_Energie_kation
 -------------------------------------
 Structure from the checkpoint file:  "JID_6692.chk"
 Charge =  1 Multiplicity = 2

 SCF Done:  E(UB3LYP) =  -741.698059348     A.U. after   21 cycles
 Normal termination of Gaussian 16 at Thu Dec 10 23:16:00 2020.
 Gaussian 16:  ES64L-G16RevA.03 25-Dec-2016

 ----------------------------------------------------------------------
 # B3LYP/6-311++G(d,p) empiricaldispersion=gd3bj scf=xqc pop=npa geom=c
 heck
 ----------------------------------------------------------------------

 ------------------------------------
 CID_143468961_JID_6692_Energie_anion
 ------------------------------------
 Structure from the checkpoint file:  "JID_6692.chk"
 Charge = -1 Multiplicity = 2

                         Standard orientation:
 ---------------------------------------------------------------------
 Center     Atomic      Atomic             Coordinates (Angstroms)
 Number     Number       Type             X           Y           Z
 ---------------------------------------------------------------------
      1          6           0       -3.433979    0.049069    0.605238
      2          7           0       -2.079075   -0.233185    0.150358
      3          6           0       -1.759348   -1.529431   -0.219717
      4          8           0       -2.563355   -2.448347   -0.163517
      5          6           0       -0.350709   -1.804685   -0.783510
      6          7           0        0.615062   -0.837597   -0.309584
      7          6           0        2.031460   -0.824078   -0.645688
      8          7           0        2.326181    0.614190   -0.730876
      9          6           0        1.207135    1.369684   -0.350968
     10          6           0        0.164380    0.465856   -0.186436
     11          6           0       -1.143580    0.822917    0.059655
     12          6           0       -1.412561    2.195302    0.208106
     13          6           0       -0.363584    3.114390    0.095201
     14          6           0        0.959140    2.729396   -0.193182
     15          8           0        2.844889   -1.519999    0.271665
     16          6           0        2.668442   -1.145523    1.635733
     17          1           0       -3.956958    0.690015   -0.113836
     18          1           0       -3.403788    0.554899    1.575555
     19          1           0       -3.959319   -0.900012    0.693436
     20          1           0       -0.083181   -2.813726   -0.464180
     21          1           0       -0.436546   -1.812421   -1.885957
     22          1           0        2.237395   -1.337227   -1.594304
     23          1           0        3.265441    0.899201   -0.490880
     24          1           0       -2.419111    2.544887    0.405793
     25          1           0       -0.583418    4.170406    0.218670
     26          1           0        1.742968    3.471434   -0.304828
     27          1           0        2.918293   -0.089631    1.803976
     28          1           0        1.638260   -1.319940    1.964096
     29          1           0        3.351740   -1.772353    2.211401
 ---------------------------------------------------------------------

 SCF Done:  E(UB3LYP) =  -741.945394382     A.U. after   33 cycles
 SCF Done:  E(UB3LYP) =  -741.945394382     a.u. after    1 cycles

 The electronic state is 2-A.
 Alpha  occ. eigenvalues --  -19.04246 -19.01160 -14.27532 -14.24827 -14.23621
 Alpha  occ. eigenvalues --  -10.20429 -10.19827 -10.13645 -10.12290 -10.11664
 Alpha  occ. eigenvalues --  -10.11433 -10.11177 -10.10724 -10.07640 -10.07534
 Alpha  occ. eigenvalues --  -10.07403  -0.97261  -0.96471  -0.90043  -0.86478
 Alpha  occ. eigenvalues --   -0.81137  -0.74938  -0.66855  -0.66227  -0.65472
 Alpha  occ. eigenvalues --   -0.61917  -0.59175  -0.54785  -0.53208  -0.51466
 Alpha  occ. eigenvalues --   -0.48223  -0.44526  -0.42990  -0.42462  -0.41684
 Alpha  occ. eigenvalues --   -0.39623  -0.38472  -0.38310  -0.37014  -0.35776
 Alpha  occ. eigenvalues --   -0.34864  -0.34376  -0.33858  -0.31974  -0.31144
 Alpha  occ. eigenvalues --   -0.30835  -0.29916  -0.28913  -0.27580  -0.27332
 Alpha  occ. eigenvalues --   -0.24478  -0.23495  -0.21076  -0.19857  -0.18641
 Alpha  occ. eigenvalues --   -0.18036  -0.12203  -0.09680   0.04279
 Alpha virt. eigenvalues --    0.06024   0.06984   0.07132   0.07507   0.08313
 Alpha virt. eigenvalues --    0.08950   0.09397   0.09737   0.10086   0.10663
 Alpha virt. eigenvalues --    0.11117   0.11549   0.11886   0.12159   0.13263

  Beta  occ. eigenvalues --  -19.04241 -19.01156 -14.27531 -14.24828 -14.23588
  Beta  occ. eigenvalues --  -10.20423 -10.19825 -10.13633 -10.12280 -10.11665
  Beta  occ. eigenvalues --  -10.11393 -10.11143 -10.10718 -10.07629 -10.07518
  Beta  occ. eigenvalues --  -10.07382  -0.97246  -0.96462  -0.90030  -0.86464
  Beta  occ. eigenvalues --   -0.81108  -0.74912  -0.66829  -0.66195  -0.65437
  Beta  occ. eigenvalues --   -0.61869  -0.59130  -0.54753  -0.53159  -0.51432
  Beta  occ. eigenvalues --   -0.48192  -0.44492  -0.42961  -0.42425  -0.41651
  Beta  occ. eigenvalues --   -0.39598  -0.38425  -0.38277  -0.36978  -0.35745
  Beta  occ. eigenvalues --   -0.34840  -0.34341  -0.33827  -0.31951  -0.31112
  Beta  occ. eigenvalues --   -0.30799  -0.29884  -0.28892  -0.27547  -0.27301
  Beta  occ. eigenvalues --   -0.24442  -0.23464  -0.21050  -0.19835  -0.18619
  Beta  occ. eigenvalues --   -0.18025  -0.12168  -0.09654
  Beta virt. eigenvalues --    0.06467   0.07047   0.07180   0.07726   0.08020
  Beta virt. eigenvalues --    0.09089   0.09365   0.09765   0.09938   0.10318
  Beta virt. eigenvalues --    0.11020   0.11392   0.12016   0.12270   0.12429

 Mulliken charges and spin densities:
               1          2
     1  C    0.841201  -1.153041
     2  N   -0.123349   0.147216
     3  C    0.115835  -0.164778
     4  O   -0.349249   0.011270
     5  C    0.033909  -0.118629
     6  N    0.351490  -0.069692
     7  C   -1.203169   0.413777
     8  N   -0.174835   0.033728
     9  C    0.895146  -0.642624
    10  C    0.082920  -0.240522
    11  C   -0.283994   0.359914
    12  C    0.203460  -0.346961
    13  C    0.367187  -0.720024
    14  C   -0.164138  -0.265185
    15  O   -0.029348   0.032667
    16  C    0.842677  -1.076965
    17  H   -0.329581   0.499258
    18  H   -0.254525   0.419036
    19  H    0.160192   0.029340
    20  H    0.093756   0.126441
    21  H    0.057486   0.141505
    22  H   -0.210931   0.385597
    23  H   -0.181094   0.490458
    24  H   -0.253400   0.411466
    25  H   -0.249727   0.417568
    26  H   -0.671403   0.835684
    27  H   -0.276587   0.437365
    28  H    0.002946   0.163543
    29  H   -0.292876   0.442589
 Sum of Mulliken charges =  -1.00000   1.00000

 Dipole moment (field-independent basis, Debye):
    X=             -1.5334    Y=             -3.1225    Z=             -1.9648  Tot=              3.9952
 Quadrupole moment (field-independent basis, Debye-Ang):
   XX=           -167.3260   YY=           -150.9401   ZZ=           -125.0648
   XY=             -4.7521   XZ=             -3.5706   YZ=              0.4338

 Summary of Natural Population Analysis:

                                       Natural Population
                Natural  -----------------------------------------------
    Atom  No    Charge         Core      Valence    Rydberg      Total
 -----------------------------------------------------------------------
      C    1   -0.18273      0.99964     2.17466    0.00843     3.18273
      N    2   -0.23587      0.99961     2.72638    0.00987     3.73587
      C    3    0.34772      0.99966     1.63072    0.02190     2.65228
      O    4   -0.31880      0.99988     3.31300    0.00591     4.31880
      C    5   -0.11228      0.99959     2.10292    0.00978     3.11228
      N    6   -0.26031      0.99962     2.74985    0.01084     3.76031
      C    7    0.25333      0.99961     1.72683    0.02023     2.74667
      N    8   -0.32451      0.99969     2.81351    0.01131     3.82451
      C    9    0.07938      0.99943     1.90893    0.01226     2.92062
      C   10    0.06705      0.99942     1.92235    0.01118     2.93295
      C   11    0.06806      0.99942     1.92125    0.01127     2.93194
      C   12   -0.12903      0.99954     2.12016    0.00932     3.12903
      C   13   -0.09779      0.99959     2.08854    0.00966     3.09779
      C   14   -0.12526      0.99952     2.11562    0.01011     3.12526
      O   15   -0.30107      0.99988     3.29181    0.00938     4.30107
      C   16   -0.10962      0.99960     2.10040    0.00962     3.10962
      H   17    0.09804      0.00000     0.40057    0.00139     0.40196
      H   18    0.10037      0.00000     0.39823    0.00141     0.39963
      H   19    0.11598      0.00000     0.38300    0.00102     0.38402
      H   20    0.11087      0.00000     0.38744    0.00169     0.38913
      H   21    0.09500      0.00000     0.40314    0.00185     0.40500
      H   22    0.08216      0.00000     0.41622    0.00162     0.41784
      H   23    0.20093      0.00000     0.29348    0.00559     0.29907
      H   24    0.10643      0.00000     0.39199    0.00158     0.39357
      H   25    0.10088      0.00000     0.39805    0.00107     0.39912
      H   26    0.10643      0.00000     0.39179    0.00179     0.39357
      H   27    0.08583      0.00000     0.41186    0.00230     0.41417
      H   28    0.08704      0.00000     0.41145    0.00151     0.41296
      H   29    0.09176      0.00000     0.40695    0.00129     0.40824
 =======================================================================
   * Total *    0.00000     15.99369    41.80114    0.20517    58.00000

 Normal termination of Gaussian 16 at Thu Dec 10 23:27:41 2020.
