 Gaussian 16, Revision A.03,

 -----------------------------------------------------------
 # opt freq B3LYP/6-31G(d) empiricaldispersion=gd3bj scf=xqc
 -----------------------------------------------------------

 ------------------------------
 CID_82998496_JID_3301_neutraal
 ------------------------------
 Symbolic Z-matrix:
 Charge =  0 Multiplicity = 1

 SCF Done:  E(RB3LYP) =  -592.743717531     A.U. after   14 cycles
 SCF Done:  E(RB3LYP) =  -592.751097859     A.U. after   12 cycles
 SCF Done:  E(RB3LYP) =  -592.752099986     A.U. after   12 cycles
 SCF Done:  E(RB3LYP) =  -592.752388952     A.U. after   11 cycles
 SCF Done:  E(RB3LYP) =  -592.752500150     A.U. after   11 cycles
 SCF Done:  E(RB3LYP) =  -592.752579352     A.U. after   10 cycles
 SCF Done:  E(RB3LYP) =  -592.752697087     A.U. after   11 cycles
 SCF Done:  E(RB3LYP) =  -592.752716476     A.U. after   10 cycles
 SCF Done:  E(RB3LYP) =  -592.752727504     A.U. after   10 cycles
 SCF Done:  E(RB3LYP) =  -592.752741231     A.U. after   10 cycles
 SCF Done:  E(RB3LYP) =  -592.752749798     A.U. after   10 cycles
 SCF Done:  E(RB3LYP) =  -592.752752298     A.U. after    8 cycles
 SCF Done:  E(RB3LYP) =  -592.752753259     A.U. after    8 cycles
 SCF Done:  E(RB3LYP) =  -592.752754144     A.U. after    8 cycles
 SCF Done:  E(RB3LYP) =  -592.752754391     A.U. after    7 cycles
 Optimization completed.
    -- Stationary point found.
 Normal termination of Gaussian 16 at Wed Dec  9 22:55:27 2020.

 --------------------------------------------------------------------
 #N Geom=AllCheck Guess=TCheck SCRF=Check GenChk RB3LYP/6-31G(d) Freq
 --------------------------------------------------------------------

 Structure from the checkpoint file:  "JID_3301.chk"
 ------------------------------
 CID_82998496_JID_3301_neutraal
 ------------------------------
 Charge =  0 Multiplicity = 1

 SCF Done:  E(RB3LYP) =  -592.752754391     A.U. after    1 cycles

  Exact polarizability: 153.447   3.007 100.712   6.851  -4.774  93.359
 Approx polarizability: 186.587   8.886 154.283  12.079 -19.257 146.046

                      1                      2                      3
                      A                      A                      A
 Frequencies --     34.8725                48.8310                79.3917
 Red. masses --      3.2249                 3.0832                 3.4874
 Frc consts  --      0.0023                 0.0043                 0.0130
 IR Inten    --      0.9497                 0.1568                 0.9465

                      4                      5                      6
                      A                      A                      A
 Frequencies --     92.7234               113.5608               161.6362
 Red. masses --      3.2758                 3.8244                 6.1665
 Frc consts  --      0.0166                 0.0291                 0.0949
 IR Inten    --      2.1146                 0.7067                 0.0593

                      7                      8                      9
                      A                      A                      A
 Frequencies --    191.8589               235.5066               238.6243
 Red. masses --      4.3494                 1.0272                 1.0557
 Frc consts  --      0.0943                 0.0336                 0.0354
 IR Inten    --      2.4278                 0.0147                 0.3872

                     10                     11                     12
                      A                      A                      A
 Frequencies --    262.9113               264.9694               287.9166
 Red. masses --      1.1419                 1.0692                 2.6201
 Frc consts  --      0.0465                 0.0442                 0.1280
 IR Inten    --      0.0767                 0.1181                 0.5411

                     13                     14                     15
                      A                      A                      A
 Frequencies --    298.8137               340.6593               361.2760
 Red. masses --      3.3764                 2.5620                 2.9088
 Frc consts  --      0.1776                 0.1752                 0.2237
 IR Inten    --      5.4309                 3.9221                 3.4415

                     16                     17                     18
                      A                      A                      A
 Frequencies --    409.4857               426.9628               454.5221
 Red. masses --      2.2102                 2.1182                 2.2778
 Frc consts  --      0.2184                 0.2275                 0.2772
 IR Inten    --     24.4706                23.6590                28.0559

                     19                     20                     21
                      A                      A                      A
 Frequencies --    469.6562               518.7026               551.4412
 Red. masses --      1.7261                 3.6042                 3.3725
 Frc consts  --      0.2243                 0.5713                 0.6042
 IR Inten    --     30.0139                24.2541                48.4259

                     22                     23                     24
                      A                      A                      A
 Frequencies --    636.7471               675.8066               708.3766
 Red. masses --      2.7455                 5.8685                 2.8984
 Frc consts  --      0.6558                 1.5791                 0.8569
 IR Inten    --     30.6399                11.3838                19.3700

                     25                     26                     27
                      A                      A                      A
 Frequencies --    746.7421               774.7747               841.4695
 Red. masses --      4.9076                 2.9511                 3.3529
 Frc consts  --      1.6124                 1.0437                 1.3988
 IR Inten    --     44.9294                32.0424                 0.2196

                     28                     29                     30
                      A                      A                      A
 Frequencies --    861.9783               897.8086               944.1487
 Red. masses --      2.3084                 2.7963                 1.2384
 Frc consts  --      1.0105                 1.3280                 0.6504
 IR Inten    --      7.1064                 1.2139                 0.6069

                     31                     32                     33
                      A                      A                      A
 Frequencies --    946.3732               960.9365               969.2224
 Red. masses --      1.2391                 1.6550                 1.7329
 Frc consts  --      0.6538                 0.9004                 0.9591
 IR Inten    --      4.1539                 5.4084                 0.3064

                     34                     35                     36
                      A                      A                      A
 Frequencies --    976.9734               985.7810              1020.5586
 Red. masses --      2.0576                 1.8145                 2.1745
 Frc consts  --      1.1571                 1.0389                 1.3344
 IR Inten    --      2.5052                 2.0307                 4.6012

                     37                     38                     39
                      A                      A                      A
 Frequencies --   1089.5243              1113.5922              1159.4169
 Red. masses --      2.9113                 1.6817                 2.0704
 Frc consts  --      2.0361                 1.2287                 1.6398
 IR Inten    --     92.6855                 8.8387                17.5704

                     40                     41                     42
                      A                      A                      A
 Frequencies --   1166.2480              1200.4601              1208.8980
 Red. masses --      1.9779                 2.0269                 2.2867
 Frc consts  --      1.5851                 1.7210                 1.9690
 IR Inten    --      2.9026                 4.3774                15.4604

                     43                     44                     45
                      A                      A                      A
 Frequencies --   1217.6708              1232.7052              1282.7493
 Red. masses --      2.1325                 2.4682                 1.8417
 Frc consts  --      1.8629                 2.2098                 1.7855
 IR Inten    --     39.7347                68.6797                69.6322

                     46                     47                     48
                      A                      A                      A
 Frequencies --   1296.1762              1309.4326              1361.6817
 Red. masses --      1.4093                 2.0048                 1.4232
 Frc consts  --      1.3950                 2.0253                 1.5548
 IR Inten    --      3.3626                 5.3039                 3.1551

                     49                     50                     51
                      A                      A                      A
 Frequencies --   1368.7864              1374.5695              1392.5265
 Red. masses --      1.4085                 1.3220                 1.3747
 Frc consts  --      1.5548                 1.4717                 1.5706
 IR Inten    --      2.0054                 6.8104                 1.6158

                     52                     53                     54
                      A                      A                      A
 Frequencies --   1429.4010              1430.0640              1447.7525
 Red. masses --      1.2915                 1.2657                 1.2435
 Frc consts  --      1.5547                 1.5250                 1.5357
 IR Inten    --      6.7472                 9.6320                13.2823

                     55                     56                     57
                      A                      A                      A
 Frequencies --   1449.1792              1474.2200              1503.5542
 Red. masses --      1.2480                 1.6998                 2.0642
 Frc consts  --      1.5442                 2.1765                 2.7494
 IR Inten    --      8.6518               100.0781               148.3632

                     58                     59                     60
                      A                      A                      A
 Frequencies --   1515.7802              1519.4758              1521.6485
 Red. masses --      1.0455                 1.1216                 1.0538
 Frc consts  --      1.4153                 1.5257                 1.4376
 IR Inten    --      1.9775                23.2623                 2.5936

                     61                     62                     63
                      A                      A                      A
 Frequencies --   1529.3599              1533.7185              1536.2374
 Red. masses --      1.0545                 1.0711                 1.0492
 Frc consts  --      1.4531                 1.4844                 1.4589
 IR Inten    --      0.7981                 9.3679                 5.0092

                     64                     65                     66
                      A                      A                      A
 Frequencies --   1538.6853              1547.3703              1725.8492
 Red. masses --      1.0620                 1.0558                 6.8946
 Frc consts  --      1.4815                 1.4895                12.0995
 IR Inten    --      2.9964                 5.6402               567.2890

                     67                     68                     69
                      A                      A                      A
 Frequencies --   1843.8014              3034.0421              3040.1067
 Red. masses --     11.0991                 1.0823                 1.0818
 Frc consts  --     22.2313                 5.8701                 5.8907
 IR Inten    --    319.5309                18.7829                16.6505

                     70                     71                     72
                      A                      A                      A
 Frequencies --   3043.9156              3048.3318              3048.6753
 Red. masses --      1.0607                 1.0374                 1.0539
 Frc consts  --      5.7903                 5.6799                 5.7710
 IR Inten    --     13.1399                14.6044                36.6616

                     73                     74                     75
                      A                      A                      A
 Frequencies --   3050.5081              3053.3104              3107.6821
 Red. masses --      1.0425                 1.0397                 1.1019
 Frc consts  --      5.7157                 5.7108                 6.2701
 IR Inten    --     26.7233                27.2961                31.6398

                     76                     77                     78
                      A                      A                      A
 Frequencies --   3113.1914              3115.8298              3123.1515
 Red. masses --      1.1014                 1.1003                 1.0996
 Frc consts  --      6.2894                 6.2937                 6.3194
 IR Inten    --     37.7785                 2.8542                54.0134

                     79                     80                     81
                      A                      A                      A
 Frequencies --   3126.4551              3129.8792              3140.3951
 Red. masses --      1.1022                 1.1027                 1.1004
 Frc consts  --      6.3479                 6.3643                 6.3941
 IR Inten    --     26.8108                25.5941                16.9308

                     82                     83                     84
                      A                      A                      A
 Frequencies --   3143.1092              3551.8924              3643.1751
 Red. masses --      1.1038                 1.0744                 1.0791
 Frc consts  --      6.4249                 7.9859                 8.4386
 IR Inten    --     23.5182                14.0890                30.7215

 - Thermochemistry -
 -------------------
 Temperature   298.150 Kelvin.  Pressure   1.00000 Atm.
 Atom     1 has atomic number  6 and mass  12.00000

 Molecular mass:   183.13716 amu.
 Principal axes and moments of inertia in atomic units:
                           1         2         3
     Eigenvalues --   994.536304475.598784826.21833
           X            0.99993  -0.01158   0.00028
           Y            0.01152   0.99700   0.07660
           Z           -0.00116  -0.07659   0.99706
 This molecule is an asymmetric top.
 Rotational symmetry number  1.
 Warning -- assumption of classical behavior for rotation
           may cause significant error
 Rotational temperatures (Kelvin)      0.08709     0.01935     0.01795
 Rotational constants (GHZ):           1.81466     0.40324     0.37395
 Zero-point vibrational energy     691598.3 (Joules/Mol)
                                  165.29596 (Kcal/Mol)
 Warning -- explicit consideration of  21 degrees of freedom as
           vibrations may cause significant error
 Vibrational temperatures:     50.17    70.26   114.23   133.41   163.39
          (Kelvin)            232.56   276.04   338.84   343.33   378.27
                              381.23   414.25   429.93   490.13   519.80
                              589.16   614.30   653.96   675.73   746.30
                              793.40   916.14   972.33  1019.20  1074.40
                             1114.73  1210.69  1240.19  1291.75  1358.42
                             1361.62  1382.57  1394.49  1405.65  1418.32
                             1468.36  1567.58  1602.21  1668.14  1677.97
                             1727.19  1739.33  1751.96  1773.59  1845.59
                             1864.91  1883.98  1959.16  1969.38  1977.70
                             2003.54  2056.59  2057.54  2082.99  2085.05
                             2121.07  2163.28  2180.87  2186.19  2189.31
                             2200.41  2206.68  2210.30  2213.82  2226.32
                             2483.11  2652.82  4365.31  4374.04  4379.52
                             4385.87  4386.36  4389.00  4393.03  4471.26
                             4479.19  4482.98  4493.52  4498.27  4503.20
                             4518.33  4522.23  5110.38  5241.72

 Zero-point correction=                           0.263416 (Hartree/Particle)
 Thermal correction to Energy=                    0.277714
 Thermal correction to Enthalpy=                  0.278659
 Thermal correction to Gibbs Free Energy=         0.222175
 Sum of electronic and zero-point Energies=           -592.489339
 Sum of electronic and thermal Energies=              -592.475040
 Sum of electronic and thermal Enthalpies=            -592.474096
 Sum of electronic and thermal Free Energies=         -592.530579

                     E (Thermal)             CV                S
                      KCal/Mol        Cal/Mol-Kelvin    Cal/Mol-Kelvin
 Total                  174.268             53.382            118.879
 Electronic               0.000              0.000              0.000
 Translational            0.889              2.981             41.522
 Rotational               0.889              2.981             31.441
 Vibrational            172.491             47.420             45.917
 Vibration     1          0.594              1.983              5.531
 Vibration     2          0.595              1.978              4.864
 Vibration     3          0.600              1.963              3.906
 Vibration     4          0.602              1.954              3.602
 Vibration     5          0.607              1.938              3.207
 Vibration     6          0.622              1.889              2.531
 Vibration     7          0.634              1.851              2.210
 Vibration     8          0.655              1.786              1.837
 Vibration     9          0.657              1.781              1.813
 Vibration    10          0.670              1.741              1.642
 Vibration    11          0.671              1.737              1.629
 Vibration    12          0.685              1.696              1.486
 Vibration    13          0.692              1.676              1.424
 Vibration    14          0.720              1.594              1.209
 Vibration    15          0.735              1.552              1.117
 Vibration    16          0.774              1.450              0.928
 Vibration    17          0.789              1.412              0.869
 Vibration    18          0.813              1.351              0.782
 Vibration    19          0.827              1.317              0.739
 Vibration    20          0.874              1.209              0.613
 Vibration    21          0.907              1.137              0.541

 Optimization completed.
    -- Stationary point found.
 Normal termination of Gaussian 16 at Wed Dec  9 23:02:40 2020.

 ----------------------------------------------------------------------
 # B3LYP/6-311++G(d,p) empiricaldispersion=gd3bj scf=xqc pop=npa geom=c
 heck
 ----------------------------------------------------------------------

 --------------------------------------
 CID_82998496_JID_3301_Energie_neutraal
 --------------------------------------
 Structure from the checkpoint file:  "JID_3301.chk"
 Charge =  0 Multiplicity = 1

 SCF Done:  E(RB3LYP) =  -592.926442463     A.U. after   14 cycles
 Normal termination of Gaussian 16 at Wed Dec  9 23:05:23 2020.

 ----------------------------------------------------------------------
 # B3LYP/6-311++G(d,p) empiricaldispersion=gd3bj scf=xqc pop=npa geom=c
 heck
 ----------------------------------------------------------------------

 ------------------------------------
 CID_82998496_JID_3301_Energie_kation
 ------------------------------------
 Structure from the checkpoint file:  "JID_3301.chk"
 Charge =  1 Multiplicity = 2

 SCF Done:  E(UB3LYP) =  -592.621633930     A.U. after   23 cycles
 Normal termination of Gaussian 16 at Wed Dec  9 23:11:17 2020.
 Gaussian 16:  ES64L-G16RevA.03 25-Dec-2016

 ----------------------------------------------------------------------
 # B3LYP/6-311++G(d,p) empiricaldispersion=gd3bj scf=xqc pop=npa geom=c
 heck
 ----------------------------------------------------------------------

 -----------------------------------
 CID_82998496_JID_3301_Energie_anion
 -----------------------------------
 Structure from the checkpoint file:  "JID_3301.chk"
 Charge = -1 Multiplicity = 2

                         Standard orientation:
 ---------------------------------------------------------------------
 Center     Atomic      Atomic             Coordinates (Angstroms)
 Number     Number       Type             X           Y           Z
 ---------------------------------------------------------------------
      1          6           0        2.498263   -1.447802   -0.998343
      2          6           0        2.696708   -0.801313    0.376790
      3          6           0        3.996993    0.007149    0.442891
      4          6           0        1.477717    0.061699    0.780996
      5          6           0        1.114454    1.120534   -0.276304
      6          8           0        1.788254    1.990251   -0.791171
      7          7           0       -0.220827    0.852025   -0.561651
      8          6           0       -0.625328   -0.268341    0.178724
      9          7           0        0.266479   -0.741580    0.976757
     10          7           0       -1.876180   -0.801969   -0.017717
     11          6           0       -3.050373    0.052089   -0.258146
     12          6           0       -4.242389   -0.851224   -0.571090
     13          6           0       -3.337717    1.005009    0.909035
     14          1           0        2.490611   -0.689993   -1.791183
     15          1           0        1.555706   -2.003409   -1.037125
     16          1           0        3.313804   -2.146000   -1.216341
     17          1           0        2.735220   -1.601311    1.127501
     18          1           0        3.969222    0.847321   -0.256996
     19          1           0        4.160859    0.412429    1.448701
     20          1           0        4.855161   -0.626413    0.191358
     21          1           0        1.723000    0.581730    1.717846
     22          1           0       -0.716398    1.282692   -1.328880
     23          1           0       -2.040797   -1.545220    0.654896
     24          1           0       -2.836141    0.646485   -1.155891
     25          1           0       -4.492771   -1.474086    0.297162
     26          1           0       -5.124793   -0.251664   -0.814649
     27          1           0       -4.019797   -1.511104   -1.414710
     28          1           0       -2.472812    1.642982    1.116977
     29          1           0       -4.194102    1.650418    0.683618
     30          1           0       -3.568273    0.437010    1.818044
 ---------------------------------------------------------------------

 SCF Done:  E(UB3LYP) =  -592.915908611     A.U. after   33 cycles
 SCF Done:  E(UB3LYP) =  -592.915908611     a.u. after    1 cycles

 The electronic state is 2-A.
 Alpha  occ. eigenvalues --  -19.01233 -14.25979 -14.23400 -14.18546 -10.18876
 Alpha  occ. eigenvalues --  -10.17960 -10.11477 -10.11399 -10.09086 -10.06991
 Alpha  occ. eigenvalues --  -10.06670 -10.05954 -10.05949  -0.96405  -0.91001
 Alpha  occ. eigenvalues --   -0.82828  -0.78169  -0.71292  -0.67834  -0.60933
 Alpha  occ. eigenvalues --   -0.59697  -0.59093  -0.53489  -0.51643  -0.50725
 Alpha  occ. eigenvalues --   -0.46489  -0.43562  -0.40371  -0.38919  -0.37242
 Alpha  occ. eigenvalues --   -0.35522  -0.35443  -0.34663  -0.33070  -0.32810
 Alpha  occ. eigenvalues --   -0.31353  -0.29575  -0.29214  -0.28983  -0.27798
 Alpha  occ. eigenvalues --   -0.27303  -0.25493  -0.25244  -0.25110  -0.24662
 Alpha  occ. eigenvalues --   -0.24510  -0.20872  -0.18089  -0.15630  -0.13329
 Alpha  occ. eigenvalues --    0.04429
 Alpha virt. eigenvalues --    0.06308   0.07385   0.07709   0.08234   0.08756
 Alpha virt. eigenvalues --    0.08895   0.09800   0.10194   0.11059   0.11078
 Alpha virt. eigenvalues --    0.12040   0.12132   0.12412   0.13202   0.13560

  Beta  occ. eigenvalues --  -19.01226 -14.25937 -14.23390 -14.18542 -10.18876
  Beta  occ. eigenvalues --  -10.17957 -10.11442 -10.11392 -10.09084 -10.06984
  Beta  occ. eigenvalues --  -10.06657 -10.05904 -10.05897  -0.96390  -0.90978
  Beta  occ. eigenvalues --   -0.82797  -0.78130  -0.71277  -0.67780  -0.60901
  Beta  occ. eigenvalues --   -0.59676  -0.58997  -0.53447  -0.51585  -0.50623
  Beta  occ. eigenvalues --   -0.46448  -0.43517  -0.40344  -0.38886  -0.37197
  Beta  occ. eigenvalues --   -0.35481  -0.35404  -0.34622  -0.33035  -0.32784
  Beta  occ. eigenvalues --   -0.31313  -0.29561  -0.29183  -0.28934  -0.27758
  Beta  occ. eigenvalues --   -0.27265  -0.25468  -0.25204  -0.25092  -0.24611
  Beta  occ. eigenvalues --   -0.24442  -0.20855  -0.18058  -0.15607  -0.13317
  Beta virt. eigenvalues --    0.06257   0.07341   0.07661   0.08372   0.08718
  Beta virt. eigenvalues --    0.09165   0.09504   0.09811   0.10726   0.11343
  Beta virt. eigenvalues --    0.11622   0.12256   0.12329   0.12631   0.13281

 Mulliken charges and spin densities:
               1          2
     1  C   -0.155555  -0.383206
     2  C   -0.368145   0.503805
     3  C   -0.279523  -0.377227
     4  C    0.721094  -0.587791
     5  C    0.231224  -0.426282
     6  O   -0.340457   0.014874
     7  N   -0.184625   0.045713
     8  C    0.029981  -0.352359
     9  N   -0.133198   0.006032
    10  N   -0.115758   0.196745
    11  C   -1.358699   1.214519
    12  C    1.483299  -1.992396
    13  C    1.134014  -1.528527
    14  H    0.056632   0.113754
    15  H    0.027945   0.141779
    16  H    0.006981   0.137791
    17  H    0.128775   0.054240
    18  H    0.174441   0.002883
    19  H    0.050118   0.063360
    20  H    0.055946   0.069751
    21  H    0.083544   0.169634
    22  H   -0.199018   0.540064
    23  H    0.166286   0.110108
    24  H   -0.291761   0.420898
    25  H   -0.287842   0.417815
    26  H   -0.420083   0.581824
    27  H   -0.545576   0.710942
    28  H   -0.138077   0.299806
    29  H   -0.488118   0.649431
    30  H   -0.043843   0.182019
 Sum of Mulliken charges =  -1.00000   1.00000

 Dipole moment (field-independent basis, Debye):
    X=              8.3050    Y=             -1.9703    Z=              3.0721  Tot=              9.0715
 Quadrupole moment (field-independent basis, Debye-Ang):
   XX=           -167.5508   YY=           -120.0902   ZZ=           -114.4620
   XY=              0.7959   XZ=             -7.1092   YZ=              2.6538

 Summary of Natural Population Analysis:

                                       Natural Population
                Natural  -----------------------------------------------
    Atom  No    Charge         Core      Valence    Rydberg      Total
 -----------------------------------------------------------------------
      C    1   -0.29085      0.99965     2.28620    0.00500     3.29085
      C    2   -0.10947      0.99960     2.10028    0.00959     3.10947
      C    3   -0.28832      0.99965     2.28371    0.00497     3.28832
      C    4   -0.05648      0.99953     2.04279    0.01416     3.05648
      C    5    0.34632      0.99966     1.62857    0.02545     2.65368
      O    6   -0.30637      0.99987     3.30066    0.00584     4.30637
      N    7   -0.32620      0.99963     2.81804    0.00852     3.82620
      C    8    0.31167      0.99958     1.67015    0.01859     2.68833
      N    9   -0.29617      0.99968     2.78629    0.01021     3.79617
      N   10   -0.31852      0.99966     2.80731    0.01155     3.81852
      C   11   -0.01244      0.99961     2.00084    0.01199     3.01244
      C   12   -0.28578      0.99965     2.27915    0.00698     3.28578
      C   13   -0.29197      0.99965     2.28602    0.00630     3.29197
      H   14    0.09973      0.00000     0.39928    0.00099     0.40027
      H   15    0.10710      0.00000     0.39169    0.00122     0.39290
      H   16    0.09720      0.00000     0.40197    0.00083     0.40280
      H   17    0.09777      0.00000     0.40027    0.00196     0.40223
      H   18    0.10971      0.00000     0.38929    0.00100     0.39029
      H   19    0.09612      0.00000     0.40295    0.00093     0.40388
      H   20    0.09522      0.00000     0.40385    0.00093     0.40478
      H   21    0.10879      0.00000     0.38986    0.00135     0.39121
      H   22    0.21138      0.00000     0.28456    0.00406     0.28862
      H   23    0.19144      0.00000     0.30537    0.00319     0.30856
      H   24    0.09559      0.00000     0.39898    0.00543     0.40441
      H   25    0.09533      0.00000     0.40324    0.00144     0.40467
      H   26    0.10783      0.00000     0.38977    0.00240     0.39217
      H   27    0.10602      0.00000     0.39198    0.00200     0.39398
      H   28    0.10137      0.00000     0.39716    0.00148     0.39863
      H   29    0.10680      0.00000     0.39149    0.00171     0.39320
      H   30    0.09718      0.00000     0.40161    0.00121     0.40282
 =======================================================================
   * Total *    0.00000     12.99541    36.83330    0.17129    50.00000

 Normal termination of Gaussian 16 at Wed Dec  9 23:19:31 2020.
