 Gaussian 16, Revision A.03,

 -----------------------------------------------------------
 # opt freq B3LYP/6-31G(d) empiricaldispersion=gd3bj scf=xqc
 -----------------------------------------------------------

 ------------------------------
 CID_83389338_JID_4596_neutraal
 ------------------------------
 Symbolic Z-matrix:
 Charge =  0 Multiplicity = 1

 SCF Done:  E(RB3LYP) =  -664.311174183     A.U. after   15 cycles
 SCF Done:  E(RB3LYP) =  -664.314185413     A.U. after   13 cycles
 SCF Done:  E(RB3LYP) =  -664.312002785     A.U. after   14 cycles
 SCF Done:  E(RB3LYP) =  -664.314896705     A.U. after   12 cycles
 SCF Done:  E(RB3LYP) =  -664.315391205     A.U. after   12 cycles
 SCF Done:  E(RB3LYP) =  -664.315571596     A.U. after   12 cycles
 SCF Done:  E(RB3LYP) =  -664.315676683     A.U. after   13 cycles
 SCF Done:  E(RB3LYP) =  -664.315816885     A.U. after   12 cycles
 SCF Done:  E(RB3LYP) =  -664.316034671     A.U. after   13 cycles
 SCF Done:  E(RB3LYP) =  -664.316344962     A.U. after   14 cycles
 SCF Done:  E(RB3LYP) =  -664.318810264     A.U. after    8 cycles
 SCF Done:  E(RB3LYP) =  -664.318812099     A.U. after    8 cycles
 SCF Done:  E(RB3LYP) =  -664.318822423     A.U. after   11 cycles
 SCF Done:  E(RB3LYP) =  -664.318822319     A.U. after    8 cycles
 Optimization completed.
    -- Stationary point found.
 Normal termination of Gaussian 16 at Thu Dec 10 10:17:42 2020.

 --------------------------------------------------------------------
 #N Geom=AllCheck Guess=TCheck SCRF=Check GenChk RB3LYP/6-31G(d) Freq
 --------------------------------------------------------------------

 Structure from the checkpoint file:  "JID_4596.chk"
 ------------------------------
 CID_83389338_JID_4596_neutraal
 ------------------------------
 Charge =  0 Multiplicity = 1

 SCF Done:  E(RB3LYP) =  -664.318822319     A.U. after    1 cycles

  Exact polarizability: 108.051  -5.067 135.592 -10.832  -5.924  86.844
 Approx polarizability: 149.227  -7.463 237.174 -19.548 -19.186 128.569

                      1                      2                      3
                      A                      A                      A
 Frequencies --     35.5066                44.2390                81.0242
 Red. masses --      7.5702                 8.1392                 7.6939
 Frc consts  --      0.0056                 0.0094                 0.0298
 IR Inten    --      0.9152                 1.9775                 1.0871

                      4                      5                      6
                      A                      A                      A
 Frequencies --    114.4257               134.3423               155.7801
 Red. masses --      6.8002                 2.8966                 2.7281
 Frc consts  --      0.0525                 0.0308                 0.0390
 IR Inten    --      6.8275                 0.3493                 0.2477

                      7                      8                      9
                      A                      A                      A
 Frequencies --    171.0243               197.0585               248.1991
 Red. masses --      1.3489                 6.3053                 3.4601
 Frc consts  --      0.0232                 0.1443                 0.1256
 IR Inten    --      0.2772                 5.1648                 7.3253

                     10                     11                     12
                      A                      A                      A
 Frequencies --    250.0875               295.0572               312.0715
 Red. masses --      3.4891                 1.2058                 2.2401
 Frc consts  --      0.1286                 0.0619                 0.1285
 IR Inten    --      3.2463                 0.8375                 0.8667

                     13                     14                     15
                      A                      A                      A
 Frequencies --    330.2914               374.6879               439.2495
 Red. masses --      3.8891                 3.4401                 4.0128
 Frc consts  --      0.2500                 0.2846                 0.4562
 IR Inten    --      0.6392                 2.5749                 6.4160

                     16                     17                     18
                      A                      A                      A
 Frequencies --    511.8529               521.3495               530.8706
 Red. masses --      2.8995                 4.1494                 3.0738
 Frc consts  --      0.4476                 0.6645                 0.5104
 IR Inten    --     12.5935                 7.0103                13.6112

                     19                     20                     21
                      A                      A                      A
 Frequencies --    548.9546               607.8365               650.8981
 Red. masses --      6.1765                 5.5333                 4.4708
 Frc consts  --      1.0966                 1.2045                 1.1160
 IR Inten    --     29.5994                 1.1338                12.8937

                     22                     23                     24
                      A                      A                      A
 Frequencies --    656.3747               675.0542               687.0828
 Red. masses --      4.9156                 3.9526                 1.4948
 Frc consts  --      1.2478                 1.0612                 0.4158
 IR Inten    --      8.3319                 2.0159                92.1073

                     25                     26                     27
                      A                      A                      A
 Frequencies --    753.4742               778.5279               854.2023
 Red. masses --      4.2980                 5.8614                 3.1558
 Frc consts  --      1.4377                 2.0932                 1.3567
 IR Inten    --     13.2310                15.7844                 9.1916

                     28                     29                     30
                      A                      A                      A
 Frequencies --    870.0190               925.0705               957.0374
 Red. masses --      1.3505                 2.4779                 2.0101
 Frc consts  --      0.6023                 1.2493                 1.0847
 IR Inten    --      9.6681                 5.2270                 8.9291

                     31                     32                     33
                      A                      A                      A
 Frequencies --   1007.8531              1051.6832              1075.9313
 Red. masses --      2.6273                 1.5616                 3.5034
 Frc consts  --      1.5724                 1.0176                 2.3895
 IR Inten    --     19.0491                10.6481                 2.7472

                     34                     35                     36
                      A                      A                      A
 Frequencies --   1107.8203              1147.6735              1164.9672
 Red. masses --      1.6258                 2.6784                 1.2997
 Frc consts  --      1.1756                 2.0785                 1.0392
 IR Inten    --     34.2844                14.1178                 4.4663

                     37                     38                     39
                      A                      A                      A
 Frequencies --   1186.0331              1222.3090              1223.8569
 Red. masses --      2.4808                 1.4731                 2.1835
 Frc consts  --      2.0560                 1.2967                 1.9269
 IR Inten    --    250.5482                 4.5118                 9.4961

                     40                     41                     42
                      A                      A                      A
 Frequencies --   1280.9356              1312.1444              1320.3970
 Red. masses --      1.3372                 3.7370                 1.5906
 Frc consts  --      1.2927                 3.7909                 1.6339
 IR Inten    --      3.5772                 3.1403                 4.8740

                     43                     44                     45
                      A                      A                      A
 Frequencies --   1351.9895              1376.8052              1424.3061
 Red. masses --      1.5464                 1.7485                 7.7471
 Frc consts  --      1.6654                 1.9528                 9.2597
 IR Inten    --     28.6273                30.1368                 4.4703

                     46                     47                     48
                      A                      A                      A
 Frequencies --   1430.6654              1447.3872              1452.3278
 Red. masses --      1.4318                 1.7226                 1.7240
 Frc consts  --      1.7266                 2.1262                 2.1425
 IR Inten    --     29.3933                41.2029                12.2071

                     49                     50                     51
                      A                      A                      A
 Frequencies --   1476.5749              1486.7787              1507.7429
 Red. masses --      2.2314                 1.0986                 1.2561
 Frc consts  --      2.8664                 1.4308                 1.6824
 IR Inten    --      2.1648                13.5073                 3.9586

                     52                     53                     54
                      A                      A                      A
 Frequencies --   1523.8671              1535.3069              1544.1827
 Red. masses --      1.3387                 1.0895                 1.5959
 Frc consts  --      1.8316                 1.5131                 2.2421
 IR Inten    --      4.2869                 8.2674                50.2807

                     55                     56                     57
                      A                      A                      A
 Frequencies --   1557.3911              1578.9722              1835.0979
 Red. masses --      1.0808                 5.0618                 9.3555
 Frc consts  --      1.5445                 7.4354                18.5625
 IR Inten    --     12.3420                15.2308               232.9965

                     58                     59                     60
                      A                      A                      A
 Frequencies --   2341.8477              3044.0713              3063.8457
 Red. masses --     12.6553                 1.0826                 1.0601
 Frc consts  --     40.8922                 5.9107                 5.8631
 IR Inten    --     73.4419                 6.0921                 8.3572

                     61                     62                     63
                      A                      A                      A
 Frequencies --   3068.1109              3092.9766              3106.6742
 Red. masses --      1.0445                 1.0374                 1.0976
 Frc consts  --      5.7931                 5.8475                 6.2415
 IR Inten    --     19.7437                38.1462                 2.6447

                     64                     65                     66
                      A                      A                      A
 Frequencies --   3126.2313              3172.2433              3176.7978
 Red. masses --      1.1012                 1.0997                 1.0990
 Frc consts  --      6.3411                 6.5200                 6.5346
 IR Inten    --     26.2803                 7.3913                 7.9462

                     67                     68                     69
                      A                      A                      A
 Frequencies --   3208.3745              3274.8327              3683.1897
 Red. masses --      1.1065                 1.0973                 1.0640
 Frc consts  --      6.7109                 6.9333                 8.5045
 IR Inten    --      0.3474                 2.0800                54.5799

 - Thermochemistry -
 -------------------
 Temperature   298.150 Kelvin.  Pressure   1.00000 Atm.
 Atom     1 has atomic number  6 and mass  12.00000

 Molecular mass:   193.08513 amu.
 Principal axes and moments of inertia in atomic units:
                           1         2         3
     Eigenvalues --  2190.186522904.170593843.24850
           X            0.99946   0.02635  -0.01970
           Y           -0.02597   0.99947   0.01973
           Z            0.02021  -0.01921   0.99961
 This molecule is an asymmetric top.
 Rotational symmetry number  1.
 Warning -- assumption of classical behavior for rotation
           may cause significant error
 Rotational temperatures (Kelvin)      0.03955     0.02982     0.02254
 Rotational constants (GHZ):           0.82401     0.62143     0.46959
 Zero-point vibrational energy     524573.5 (Joules/Mol)
                                  125.37608 (Kcal/Mol)
 Warning -- explicit consideration of  20 degrees of freedom as
           vibrations may cause significant error
 Vibrational temperatures:     51.09    63.65   116.58   164.63   193.29
          (Kelvin)            224.13   246.07   283.52   357.10   359.82
                              424.52   449.00   475.22   539.09   631.98
                              736.44   750.11   763.80   789.82   874.54
                              936.50   944.38   971.25   988.56  1084.08
                             1120.13  1229.01  1251.76  1330.97  1376.96
                             1450.08  1513.14  1548.03  1593.91  1651.25
                             1676.13  1706.44  1758.63  1760.86  1842.98
                             1887.88  1899.76  1945.21  1980.92  2049.26
                             2058.41  2082.47  2089.58  2124.46  2139.14
                             2169.31  2192.50  2208.96  2221.73  2240.74
                             2271.79  2640.30  3369.40  4379.74  4408.19
                             4414.33  4450.10  4469.81  4497.95  4564.15
                             4570.70  4616.14  4711.75  5299.29

 Zero-point correction=                           0.199800 (Hartree/Particle)
 Thermal correction to Energy=                    0.213292
 Thermal correction to Enthalpy=                  0.214236
 Thermal correction to Gibbs Free Energy=         0.158947
 Sum of electronic and zero-point Energies=           -664.119023
 Sum of electronic and thermal Energies=              -664.105531
 Sum of electronic and thermal Enthalpies=            -664.104587
 Sum of electronic and thermal Free Energies=         -664.159875

                     E (Thermal)             CV                S
                      KCal/Mol        Cal/Mol-Kelvin    Cal/Mol-Kelvin
 Total                  133.843             49.460            116.364
 Electronic               0.000              0.000              0.000
 Translational            0.889              2.981             41.679
 Rotational               0.889              2.981             31.570
 Vibrational            132.065             43.498             43.115
 Vibration     1          0.594              1.982              5.495
 Vibration     2          0.595              1.980              5.060
 Vibration     3          0.600              1.962              3.866
 Vibration     4          0.607              1.937              3.192
 Vibration     5          0.613              1.919              2.883
 Vibration     6          0.620              1.896              2.600
 Vibration     7          0.626              1.878              2.424
 Vibration     8          0.636              1.844              2.160
 Vibration     9          0.662              1.766              1.743
 Vibration    10          0.663              1.763              1.730
 Vibration    11          0.689              1.683              1.445
 Vibration    12          0.700              1.651              1.351
 Vibration    13          0.713              1.615              1.259
 Vibration    14          0.746              1.524              1.061
 Vibration    15          0.799              1.385              0.829
 Vibration    16          0.867              1.224              0.629
 Vibration    17          0.876              1.203              0.607
 Vibration    18          0.886              1.182              0.585
 Vibration    19          0.904              1.142              0.546
 Vibration    20          0.967              1.015              0.436

                           ! Non-Optimized Parameters !
 Normal termination of Gaussian 16 at Thu Dec 10 10:24:50 2020.

 ----------------------------------------------------------------------
 # B3LYP/6-311++G(d,p) empiricaldispersion=gd3bj scf=xqc pop=npa geom=c
 heck
 ----------------------------------------------------------------------

 --------------------------------------
 CID_83389338_JID_4596_Energie_neutraal
 --------------------------------------
 Structure from the checkpoint file:  "JID_4596.chk"
 Charge =  0 Multiplicity = 1

 SCF Done:  E(RB3LYP) =  -664.510940886     A.U. after   15 cycles
 Normal termination of Gaussian 16 at Thu Dec 10 10:27:51 2020.

 ----------------------------------------------------------------------
 # B3LYP/6-311++G(d,p) empiricaldispersion=gd3bj scf=xqc pop=npa geom=c
 heck
 ----------------------------------------------------------------------

 ------------------------------------
 CID_83389338_JID_4596_Energie_kation
 ------------------------------------
 Structure from the checkpoint file:  "JID_4596.chk"
 Charge =  1 Multiplicity = 2

 SCF Done:  E(UB3LYP) =  -664.164561196     A.U. after   33 cycles
 SCF Done:  E(UB3LYP) =  -664.164561196     a.u. after    3 cycles
 Normal termination of Gaussian 16 at Thu Dec 10 10:53:36 2020.
 Gaussian 16:  ES64L-G16RevA.03 25-Dec-2016

 ----------------------------------------------------------------------
 # B3LYP/6-311++G(d,p) empiricaldispersion=gd3bj scf=xqc pop=npa geom=c
 heck
 ----------------------------------------------------------------------

 -----------------------------------
 CID_83389338_JID_4596_Energie_anion
 -----------------------------------
 Structure from the checkpoint file:  "JID_4596.chk"
 Charge = -1 Multiplicity = 2

                         Standard orientation:
 ---------------------------------------------------------------------
 Center     Atomic      Atomic             Coordinates (Angstroms)
 Number     Number       Type             X           Y           Z
 ---------------------------------------------------------------------
      1          6           0       -1.073216    0.808986    2.128996
      2          6           0       -0.403148   -0.256305    1.251137
      3          6           0       -1.427551   -1.104077    0.466806
      4          6           0       -2.179236   -0.365023   -0.614723
      5          8           0       -2.090299    0.814588   -0.886866
      6          8           0       -3.010236   -1.196138   -1.281106
      7          6           0        0.719862    0.208207    0.352854
      8          6           0        1.731199   -0.618408   -0.157674
      9          6           0        2.554581    0.228634   -0.938008
     10          7           0        2.105763    1.473193   -0.917503
     11          7           0        0.990945    1.445916   -0.132169
     12          6           0        0.270012    2.701889    0.033979
     13          6           0        1.849533   -2.007083    0.085239
     14          7           0        1.904552   -3.150522    0.302806
     15          1           0       -1.681002    1.501166    1.545257
     16          1           0       -0.329793    1.379541    2.694176
     17          1           0       -1.728743    0.312547    2.852375
     18          1           0        0.076268   -0.970207    1.933024
     19          1           0       -0.935435   -1.966822    0.004407
     20          1           0       -2.168387   -1.522392    1.160128
     21          1           0       -3.456605   -0.654101   -1.958987
     22          1           0        3.442822   -0.029014   -1.497657
     23          1           0        0.779757    3.427152   -0.598537
     24          1           0       -0.763106    2.576689   -0.287320
     25          1           0        0.307488    3.036812    1.073330
 ---------------------------------------------------------------------

 SCF Done:  E(UB3LYP) =  -664.503364361     A.U. after   33 cycles
 SCF Done:  E(UB3LYP) =  -664.503364361     a.u. after    1 cycles

 The electronic state is 2-A.
 Alpha  occ. eigenvalues --  -19.06533 -19.01507 -14.30631 -14.24574 -14.21238
 Alpha  occ. eigenvalues --  -10.20554 -10.13269 -10.11489 -10.11448 -10.11370
 Alpha  occ. eigenvalues --  -10.10575 -10.10407 -10.08861 -10.06695  -1.00889
 Alpha  occ. eigenvalues --   -0.96597  -0.91976  -0.80984  -0.76318  -0.74279
 Alpha  occ. eigenvalues --   -0.69144  -0.63068  -0.62671  -0.55405  -0.55055
 Alpha  occ. eigenvalues --   -0.49866  -0.47910  -0.44062  -0.40819  -0.39924
 Alpha  occ. eigenvalues --   -0.39113  -0.38304  -0.37065  -0.35337  -0.34612
 Alpha  occ. eigenvalues --   -0.33551  -0.31970  -0.31676  -0.30124  -0.29295
 Alpha  occ. eigenvalues --   -0.27413  -0.27142  -0.26696  -0.26194  -0.25519
 Alpha  occ. eigenvalues --   -0.23944  -0.22560  -0.21093  -0.18516  -0.17255
 Alpha  occ. eigenvalues --   -0.15654   0.04358
 Alpha virt. eigenvalues --    0.06566   0.07050   0.07743   0.08082   0.08985
 Alpha virt. eigenvalues --    0.09638   0.09923   0.10209   0.11100   0.11598
 Alpha virt. eigenvalues --    0.11723   0.12804   0.12874   0.13710   0.14139

  Beta  occ. eigenvalues --  -19.06472 -19.01470 -14.30581 -14.24579 -14.21186
  Beta  occ. eigenvalues --  -10.20508 -10.13178 -10.11478 -10.11448 -10.11358
  Beta  occ. eigenvalues --  -10.10574 -10.10393 -10.08815 -10.06654  -1.00782
  Beta  occ. eigenvalues --   -0.96536  -0.91887  -0.80904  -0.76266  -0.74183
  Beta  occ. eigenvalues --   -0.69071  -0.62970  -0.62606  -0.55297  -0.54989
  Beta  occ. eigenvalues --   -0.49730  -0.47848  -0.44010  -0.40719  -0.39812
  Beta  occ. eigenvalues --   -0.39020  -0.38207  -0.36938  -0.35308  -0.34544
  Beta  occ. eigenvalues --   -0.33475  -0.31886  -0.31626  -0.30039  -0.29224
  Beta  occ. eigenvalues --   -0.27324  -0.27048  -0.26537  -0.26118  -0.25427
  Beta  occ. eigenvalues --   -0.23899  -0.22439  -0.21076  -0.18450  -0.17066
  Beta  occ. eigenvalues --   -0.15410
  Beta virt. eigenvalues --    0.06854   0.07383   0.08025   0.08416   0.08476
  Beta virt. eigenvalues --    0.09257   0.09888   0.10581   0.10701   0.11267
  Beta virt. eigenvalues --    0.11732   0.12114   0.12922   0.13087   0.13855

 Mulliken charges and spin densities:
               1          2
     1  C    1.536205  -2.196764
     2  C   -2.616474   3.152467
     3  C    1.326837  -1.805576
     4  C   -0.450620   0.386166
     5  O   -0.287239  -0.031472
     6  O   -0.150325   0.033647
     7  C    0.488094  -1.139572
     8  C    2.007959  -0.110372
     9  C   -0.085154   0.186772
    10  N   -0.093627  -0.013887
    11  N    0.091114   0.134292
    12  C    0.194794  -0.515528
    13  C   -1.199489  -0.882605
    14  N   -0.218526   0.042016
    15  H    0.076413   0.094628
    16  H   -0.170768   0.310363
    17  H   -0.840274   1.020583
    18  H    0.118848   0.143696
    19  H    0.210287   0.036122
    20  H   -0.611901   0.847003
    21  H   -0.567589   0.854355
    22  H    0.123754   0.039678
    23  H    0.124288   0.036261
    24  H   -0.010295   0.224923
    25  H    0.003686   0.152802
 Sum of Mulliken charges =  -1.00000   1.00000

 Dipole moment (field-independent basis, Debye):
    X=              6.1294    Y=              3.9413    Z=             -1.5534  Tot=              7.4509
 Quadrupole moment (field-independent basis, Debye-Ang):
   XX=           -139.2420   YY=           -125.8662   ZZ=           -123.1349
   XY=             -0.5448   XZ=             -1.6922   YZ=              3.5419

 Summary of Natural Population Analysis:

                                       Natural Population
                Natural  -----------------------------------------------
    Atom  No    Charge         Core      Valence    Rydberg      Total
 -----------------------------------------------------------------------
      C    1   -0.28534      0.99965     2.27936    0.00633     3.28534
      C    2   -0.13014      0.99957     2.11864    0.01193     3.13014
      C    3   -0.23635      0.99955     2.22627    0.01053     3.23635
      C    4    0.41849      0.99971     1.55759    0.02422     2.58151
      O    5   -0.31746      0.99986     3.31089    0.00671     4.31746
      O    6   -0.34128      0.99988     3.33471    0.00669     4.34128
      C    7    0.14563      0.99948     1.84147    0.01342     2.85437
      C    8   -0.14855      0.99936     2.14160    0.00759     3.14855
      C    9    0.00916      0.99960     1.97728    0.01396     2.99084
      N   10   -0.15467      0.99973     2.64396    0.01098     3.65467
      N   11   -0.09416      0.99960     2.58260    0.01196     3.59416
      C   12   -0.17879      0.99963     2.17264    0.00652     3.17879
      C   13    0.15252      0.99963     1.83195    0.01590     2.84748
      N   14   -0.17968      0.99979     2.66932    0.01057     3.67968
      H   15    0.10702      0.00000     0.39143    0.00155     0.39298
      H   16    0.09871      0.00000     0.40006    0.00124     0.40129
      H   17    0.10768      0.00000     0.39035    0.00196     0.39232
      H   18    0.11390      0.00000     0.38386    0.00224     0.38610
      H   19    0.12084      0.00000     0.37781    0.00134     0.37916
      H   20    0.12483      0.00000     0.37156    0.00361     0.37517
      H   21    0.24481      0.00000     0.23643    0.01876     0.25519
      H   22    0.09986      0.00000     0.39937    0.00077     0.40014
      H   23    0.10635      0.00000     0.39231    0.00134     0.39365
      H   24    0.11949      0.00000     0.37904    0.00147     0.38051
      H   25    0.09711      0.00000     0.40174    0.00115     0.40289
 =======================================================================
   * Total *    0.00000     13.99505    36.81222    0.19273    51.00000

 Normal termination of Gaussian 16 at Thu Dec 10 11:03:20 2020.
