 Gaussian 16, Revision A.03,

 -----------------------------------------------------------
 # opt freq B3LYP/6-31G(d) empiricaldispersion=gd3bj scf=xqc
 -----------------------------------------------------------

 ------------------------------
 CID_81992101_JID_4273_neutraal
 ------------------------------
 Symbolic Z-matrix:
 Charge =  0 Multiplicity = 1

 SCF Done:  E(RB3LYP) =  -617.176686043     A.U. after   14 cycles
 SCF Done:  E(RB3LYP) =  -617.181068177     A.U. after   12 cycles
 SCF Done:  E(RB3LYP) =  -617.181579757     A.U. after   14 cycles
 SCF Done:  E(RB3LYP) =  -617.182779252     A.U. after   12 cycles
 SCF Done:  E(RB3LYP) =  -617.183577316     A.U. after   11 cycles
 SCF Done:  E(RB3LYP) =  -617.183866392     A.U. after   12 cycles
 SCF Done:  E(RB3LYP) =  -617.184011061     A.U. after   10 cycles
 SCF Done:  E(RB3LYP) =  -617.184023997     A.U. after    9 cycles
 SCF Done:  E(RB3LYP) =  -617.184032491     A.U. after    9 cycles
 SCF Done:  E(RB3LYP) =  -617.184038952     A.U. after    9 cycles
 SCF Done:  E(RB3LYP) =  -617.187015756     A.U. after   10 cycles
 SCF Done:  E(RB3LYP) =  -617.187015192     A.U. after    9 cycles
 SCF Done:  E(RB3LYP) =  -617.187018591     A.U. after    9 cycles
 SCF Done:  E(RB3LYP) =  -617.187016506     A.U. after    9 cycles
 SCF Done:  E(RB3LYP) =  -617.187018817     A.U. after    9 cycles
 Optimization completed.
    -- Stationary point found.
 Normal termination of Gaussian 16 at Thu Dec 10 09:46:45 2020.

 --------------------------------------------------------------------
 #N Geom=AllCheck Guess=TCheck SCRF=Check GenChk RB3LYP/6-31G(d) Freq
 --------------------------------------------------------------------

 Structure from the checkpoint file:  "JID_4273.chk"
 ------------------------------
 CID_81992101_JID_4273_neutraal
 ------------------------------
 Charge =  0 Multiplicity = 1

 SCF Done:  E(RB3LYP) =  -617.187018817     A.U. after    1 cycles

  Exact polarizability: 151.224  -0.344 117.650   3.369  -0.806 114.571
 Approx polarizability: 188.004  -2.034 165.136  10.526  -8.562 182.068

                      1                      2                      3
                      A                      A                      A
 Frequencies --     23.1130                39.2415                45.0416
 Red. masses --      3.8939                 3.5706                 3.1516
 Frc consts  --      0.0012                 0.0032                 0.0038
 IR Inten    --      0.0483                 0.7310                 0.2534

                      4                      5                      6
                      A                      A                      A
 Frequencies --     60.7089                82.4640                83.0623
 Red. masses --      3.7510                 3.3652                 3.0799
 Frc consts  --      0.0081                 0.0135                 0.0125
 IR Inten    --      1.4850                 0.0384                 0.7622

                      7                      8                      9
                      A                      A                      A
 Frequencies --    117.1163               141.9520               189.1625
 Red. masses --      2.5757                 3.4419                 2.0642
 Frc consts  --      0.0208                 0.0409                 0.0435
 IR Inten    --      0.4988                 1.9443                 1.9936

                     10                     11                     12
                      A                      A                      A
 Frequencies --    214.9926               248.7743               268.1765
 Red. masses --      2.2402                 2.0852                 1.8856
 Frc consts  --      0.0610                 0.0760                 0.0799
 IR Inten    --      0.7616                 2.6057                 1.3190

                     13                     14                     15
                      A                      A                      A
 Frequencies --    275.9295               300.8700               308.3998
 Red. masses --      2.8191                 1.8753                 1.4516
 Frc consts  --      0.1265                 0.1000                 0.0813
 IR Inten    --      4.2042                13.7661                17.7777

                     16                     17                     18
                      A                      A                      A
 Frequencies --    349.2226               385.0349               416.5995
 Red. masses --      2.1969                 2.7265                 1.9805
 Frc consts  --      0.1579                 0.2382                 0.2025
 IR Inten    --      0.5818                11.4700                 0.4724

                     19                     20                     21
                      A                      A                      A
 Frequencies --    449.4875               514.1120               520.5482
 Red. masses --      2.4032                 2.3762                 2.3652
 Frc consts  --      0.2861                 0.3700                 0.3776
 IR Inten    --     10.6177                 4.2710                26.8064

                     22                     23                     24
                      A                      A                      A
 Frequencies --    559.1106               567.4578               623.9567
 Red. masses --      2.0596                 2.1102                 2.7104
 Frc consts  --      0.3793                 0.4004                 0.6217
 IR Inten    --     18.8899                30.2977                 8.1656

                     25                     26                     27
                      A                      A                      A
 Frequencies --    671.1092               729.6774               740.3728
 Red. masses --      1.9588                 1.6021                 2.0009
 Frc consts  --      0.5198                 0.5026                 0.6462
 IR Inten    --     59.5624                23.9335                11.0300

                     28                     29                     30
                      A                      A                      A
 Frequencies --    779.2473               801.5840               838.4725
 Red. masses --      1.7773                 1.0744                 1.7584
 Frc consts  --      0.6359                 0.4067                 0.7284
 IR Inten    --      5.7475                 3.9377                 3.8722

                     31                     32                     33
                      A                      A                      A
 Frequencies --    840.7601               869.8309               893.1732
 Red. masses --      1.3988                 2.3270                 1.5346
 Frc consts  --      0.5826                 1.0373                 0.7213
 IR Inten    --     13.6987                23.7310               154.9912

                     34                     35                     36
                      A                      A                      A
 Frequencies --    899.0565               906.5794               939.0879
 Red. masses --      2.1988                 2.7405                 1.8992
 Frc consts  --      1.0471                 1.3271                 0.9868
 IR Inten    --      4.0724                14.5542                 5.6029

                     37                     38                     39
                      A                      A                      A
 Frequencies --    947.2959              1000.3828              1019.1133
 Red. masses --      2.1936                 1.9760                 1.5454
 Frc consts  --      1.1598                 1.1651                 0.9457
 IR Inten    --      6.2734                 1.6743                 3.3947

                     40                     41                     42
                      A                      A                      A
 Frequencies --   1021.5662              1053.3739              1055.6539
 Red. masses --      1.8376                 2.0603                 1.3456
 Frc consts  --      1.1299                 1.3469                 0.8835
 IR Inten    --      3.7308                21.6538                23.1265

                     43                     44                     45
                      A                      A                      A
 Frequencies --   1075.8800              1081.5090              1082.8109
 Red. masses --      1.8574                 1.4912                 1.4404
 Frc consts  --      1.2667                 1.0277                 0.9950
 IR Inten    --     16.8788                 3.8210                 2.0218

                     46                     47                     48
                      A                      A                      A
 Frequencies --   1108.2644              1145.6321              1155.1908
 Red. masses --      2.0608                 2.0921                 1.4838
 Frc consts  --      1.4913                 1.6178                 1.1666
 IR Inten    --      5.5315                 3.3571                 8.4391

                     49                     50                     51
                      A                      A                      A
 Frequencies --   1163.8169              1176.6752              1195.4837
 Red. masses --      1.0925                 2.2770                 1.7859
 Frc consts  --      0.8718                 1.8575                 1.5038
 IR Inten    --      0.6187                 8.2247                26.3754

                     52                     53                     54
                      A                      A                      A
 Frequencies --   1212.4992              1238.3215              1244.9574
 Red. masses --      1.4141                 1.4437                 1.6800
 Frc consts  --      1.2249                 1.3044                 1.5342
 IR Inten    --      4.7244                 8.5249                 2.8472

                     55                     56                     57
                      A                      A                      A
 Frequencies --   1252.1734              1270.8925              1309.5143
 Red. masses --      1.3927                 1.3967                 1.4377
 Frc consts  --      1.2866                 1.3292                 1.4526
 IR Inten    --      6.9110                 4.0543                33.4627

                     58                     59                     60
                      A                      A                      A
 Frequencies --   1325.8645              1345.1206              1368.6243
 Red. masses --      1.3910                 1.1227                 1.4317
 Frc consts  --      1.4407                 1.1968                 1.5801
 IR Inten    --     23.9278                 0.6351                54.8351

                     61                     62                     63
                      A                      A                      A
 Frequencies --   1386.5148              1394.6223              1402.4041
 Red. masses --      1.3715                 1.4080                 1.6098
 Frc consts  --      1.5535                 1.6135                 1.8653
 IR Inten    --      6.7181                 9.0339                 7.2119

                     64                     65                     66
                      A                      A                      A
 Frequencies --   1416.0400              1419.6365              1431.3128
 Red. masses --      1.4070                 1.4382                 1.3511
 Frc consts  --      1.6622                 1.7077                 1.6309
 IR Inten    --     14.2830                 9.0505                 4.1916

                     67                     68                     69
                      A                      A                      A
 Frequencies --   1444.8416              1445.5179              1490.3916
 Red. masses --      1.2947                 1.5571                 1.0913
 Frc consts  --      1.5925                 1.9170                 1.4282
 IR Inten    --      3.7134                57.7789                 1.0858

                     70                     71                     72
                      A                      A                      A
 Frequencies --   1492.9818              1501.1846              1511.3299
 Red. masses --      1.6908                 1.1216                 1.0835
 Frc consts  --      2.2204                 1.4892                 1.4582
 IR Inten    --     66.7728                12.3342                 4.3136

                     73                     74                     75
                      A                      A                      A
 Frequencies --   1521.6432              1522.7000              1533.4563
 Red. masses --      1.1023                 1.0999                 1.0769
 Frc consts  --      1.5037                 1.5026                 1.4920
 IR Inten    --      7.4087                 5.8331                11.7067

                     76                     77                     78
                      A                      A                      A
 Frequencies --   1535.0165              1537.0831              1542.6561
 Red. masses --      1.0722                 1.3866                 1.0854
 Frc consts  --      1.4885                 1.9301                 1.5219
 IR Inten    --      4.5768                 1.7018                12.5337

                     79                     80                     81
                      A                      A                      A
 Frequencies --   1693.9428              1774.6345              3029.0635
 Red. masses --      1.0955                 7.7257                 1.0674
 Frc consts  --      1.8520                14.3352                 5.7702
 IR Inten    --     17.6693               322.9000                23.8933

                     82                     83                     84
                      A                      A                      A
 Frequencies --   3036.3803              3045.0092              3051.4406
 Red. masses --      1.0621                 1.0415                 1.0616
 Frc consts  --      5.7691                 5.6898                 5.8242
 IR Inten    --     25.6214                11.3108                20.3911

                     85                     86                     87
                      A                      A                      A
 Frequencies --   3066.4981              3068.0029              3073.5050
 Red. masses --      1.0940                 1.0604                 1.0622
 Frc consts  --      6.0612                 5.8808                 5.9118
 IR Inten    --     25.7174                 0.3626                38.9552

                     88                     89                     90
                      A                      A                      A
 Frequencies --   3077.8015              3085.2761              3095.6018
 Red. masses --      1.0981                 1.0854                 1.1005
 Frc consts  --      6.1289                 6.0874                 6.2132
 IR Inten    --     40.0610                 5.4031                31.3308

                     91                     92                     93
                      A                      A                      A
 Frequencies --   3109.3219              3111.8222              3116.6486
 Red. masses --      1.1027                 1.1025                 1.1017
 Frc consts  --      6.2814                 6.2899                 6.3053
 IR Inten    --     70.2634                50.1373                40.3059

                     94                     95                     96
                      A                      A                      A
 Frequencies --   3120.3311              3134.5428              3144.8141
 Red. masses --      1.1002                 1.0542                 1.0557
 Frc consts  --      6.3113                 6.1025                 6.1512
 IR Inten    --     20.9994                19.3318                22.6131

                     97                     98                     99
                      A                      A                      A
 Frequencies --   3168.2036              3210.8910              3227.3524
 Red. masses --      1.0891                 1.1167                 1.1150
 Frc consts  --      6.4410                 6.7830                 6.8426
 IR Inten    --      6.5465                 3.2054                24.3705

                    100                    101                    102
                      A                      A                      A
 Frequencies --   3463.2249              3557.1287              3590.9737
 Red. masses --      1.0493                 1.0918                 1.0758
 Frc consts  --      7.4150                 8.1396                 8.1736
 IR Inten    --      2.8967                 0.5459                14.8022

 - Thermochemistry -
 -------------------
 Temperature   298.150 Kelvin.  Pressure   1.00000 Atm.
 Atom     1 has atomic number  6 and mass  12.00000

 Molecular mass:   198.17321 amu.
 Principal axes and moments of inertia in atomic units:
                           1         2         3
     Eigenvalues --  1805.632164867.465745679.80068
           X            0.99999   0.00321  -0.00103
           Y           -0.00318   0.99956   0.02933
           Z            0.00113  -0.02933   0.99957
 This molecule is an asymmetric top.
 Rotational symmetry number  1.
 Warning -- assumption of classical behavior for rotation
           may cause significant error
 Rotational temperatures (Kelvin)      0.04797     0.01779     0.01525
 Rotational constants (GHZ):           0.99951     0.37078     0.31775
 Zero-point vibrational energy     862064.0 (Joules/Mol)
                                  206.03824 (Kcal/Mol)
 Warning -- explicit consideration of  23 degrees of freedom as
           vibrations may cause significant error
 Vibrational temperatures:     33.25    56.46    64.80    87.35   118.65
          (Kelvin)            119.51   168.50   204.24   272.16   309.33
                              357.93   385.85   397.00   432.88   443.72
                              502.45   553.98   599.39   646.71   739.69
                              748.95   804.44   816.45   897.73   965.58
                             1049.84  1065.23  1121.16  1153.30  1206.37
                             1209.67  1251.49  1285.08  1293.54  1304.37
                             1351.14  1362.95  1439.33  1466.28  1469.81
                             1515.57  1518.85  1547.95  1556.05  1557.92
                             1594.55  1648.31  1662.06  1674.47  1692.97
                             1720.03  1744.52  1781.67  1791.22  1801.60
                             1828.53  1884.10  1907.62  1935.33  1969.15
                             1994.89  2006.55  2017.75  2037.37  2042.54
                             2059.34  2078.80  2079.78  2144.34  2148.07
                             2159.87  2174.47  2189.31  2190.83  2206.30
                             2208.55  2211.52  2219.54  2437.21  2553.30
                             4358.15  4368.67  4381.09  4390.34  4412.01
                             4414.17  4422.09  4428.27  4439.02  4453.88
                             4473.62  4477.22  4484.16  4489.46  4509.91
                             4524.69  4558.34  4619.76  4643.44  4982.81
                             5117.91  5166.61

 Zero-point correction=                           0.328343 (Hartree/Particle)
 Thermal correction to Energy=                    0.344517
 Thermal correction to Enthalpy=                  0.345461
 Thermal correction to Gibbs Free Energy=         0.283165
 Sum of electronic and zero-point Energies=           -616.858676
 Sum of electronic and thermal Energies=              -616.842502
 Sum of electronic and thermal Enthalpies=            -616.841558
 Sum of electronic and thermal Free Energies=         -616.903854

                     E (Thermal)             CV                S
                      KCal/Mol        Cal/Mol-Kelvin    Cal/Mol-Kelvin
 Total                  216.188             60.239            131.114
 Electronic               0.000              0.000              0.000
 Translational            0.889              2.981             41.757
 Rotational               0.889              2.981             32.279
 Vibrational            214.410             54.278             57.078
 Vibration     1          0.593              1.985              6.347
 Vibration     2          0.594              1.981              5.297
 Vibration     3          0.595              1.979              5.024
 Vibration     4          0.597              1.973              4.434
 Vibration     5          0.600              1.961              3.831
 Vibration     6          0.600              1.961              3.817
 Vibration     7          0.608              1.935              3.147
 Vibration     8          0.615              1.911              2.777
 Vibration     9          0.633              1.855              2.236
 Vibration    10          0.645              1.818              2.001
 Vibration    11          0.662              1.765              1.739
 Vibration    12          0.673              1.732              1.608
 Vibration    13          0.678              1.718              1.559
 Vibration    14          0.693              1.672              1.412
 Vibration    15          0.698              1.658              1.371
 Vibration    16          0.726              1.577              1.170
 Vibration    17          0.754              1.502              1.019
 Vibration    18          0.780              1.434              0.904
 Vibration    19          0.808              1.362              0.797
 Vibration    20          0.869              1.219              0.624
 Vibration    21          0.876              1.204              0.609
 Vibration    22          0.915              1.120              0.526
 Vibration    23          0.923              1.102              0.509

                           ! Non-Optimized Parameters !
 Normal termination of Gaussian 16 at Thu Dec 10 09:57:45 2020.

 ----------------------------------------------------------------------
 # B3LYP/6-311++G(d,p) empiricaldispersion=gd3bj scf=xqc pop=npa geom=c
 heck
 ----------------------------------------------------------------------

 --------------------------------------
 CID_81992101_JID_4273_Energie_neutraal
 --------------------------------------
 Structure from the checkpoint file:  "JID_4273.chk"
 Charge =  0 Multiplicity = 1

 SCF Done:  E(RB3LYP) =  -617.374078457     A.U. after   14 cycles
 Normal termination of Gaussian 16 at Thu Dec 10 10:03:19 2020.

 ----------------------------------------------------------------------
 # B3LYP/6-311++G(d,p) empiricaldispersion=gd3bj scf=xqc pop=npa geom=c
 heck
 ----------------------------------------------------------------------

 ------------------------------------
 CID_81992101_JID_4273_Energie_kation
 ------------------------------------
 Structure from the checkpoint file:  "JID_4273.chk"
 Charge =  1 Multiplicity = 2

 SCF Done:  E(UB3LYP) =  -617.055347871     A.U. after   29 cycles
 Normal termination of Gaussian 16 at Thu Dec 10 10:20:02 2020.
 Gaussian 16:  ES64L-G16RevA.03 25-Dec-2016

 ----------------------------------------------------------------------
 # B3LYP/6-311++G(d,p) empiricaldispersion=gd3bj scf=xqc pop=npa geom=c
 heck
 ----------------------------------------------------------------------

 -----------------------------------
 CID_81992101_JID_4273_Energie_anion
 -----------------------------------
 Structure from the checkpoint file:  "JID_4273.chk"
 Charge = -1 Multiplicity = 2

                         Standard orientation:
 ---------------------------------------------------------------------
 Center     Atomic      Atomic             Coordinates (Angstroms)
 Number     Number       Type             X           Y           Z
 ---------------------------------------------------------------------
      1          6           0        4.689640   -0.785022    0.280174
      2          6           0        3.596896   -0.486853   -0.750530
      3          6           0        2.203815   -0.996128   -0.350873
      4          6           0        1.647693   -0.427291    0.961266
      5          6           0        1.549306    1.106603    0.992741
      6          7           0        0.858740    1.691287   -0.151587
      7          6           0       -0.479372    1.687045   -0.439071
      8          8           0       -0.885136    2.065447   -1.534625
      9          6           0       -1.447431    1.239261    0.647471
     10          6           0       -2.591057    0.392878    0.066396
     11          6           0       -2.034531   -0.853515   -0.629611
     12          6           0       -1.629750   -2.084620    0.143860
     13          6           0       -2.831416   -2.121394   -0.771502
     14          7           0       -3.571248    0.167671    1.130868
     15          1           0        4.507240   -0.268058    1.229175
     16          1           0        5.673275   -0.467885   -0.082940
     17          1           0        4.742677   -1.859315    0.495391
     18          1           0        3.560306    0.595522   -0.938587
     19          1           0        3.870610   -0.943687   -1.710028
     20          1           0        1.495188   -0.771530   -1.157844
     21          1           0        2.236169   -2.090925   -0.266735
     22          1           0        0.651754   -0.853371    1.125396
     23          1           0        2.265915   -0.743420    1.811520
     24          1           0        1.061008    1.431512    1.917118
     25          1           0        2.551201    1.547088    1.008370
     26          1           0        1.421805    1.966664   -0.947135
     27          1           0       -0.947459    0.680656    1.444254
     28          1           0       -1.881203    2.136514    1.104246
     29          1           0       -3.083024    1.001188   -0.699525
     30          1           0       -1.404276   -0.605334   -1.480375
     31          1           0       -0.728031   -2.612832   -0.152479
     32          1           0       -1.822257   -2.110717    1.214584
     33          1           0       -3.809219   -2.171038   -0.298905
     34          1           0       -2.761826   -2.674905   -1.703298
     35          1           0       -4.391321   -0.306097    0.758010
     36          1           0       -3.182641   -0.442086    1.849898
 ---------------------------------------------------------------------

 SCF Done:  E(UB3LYP) =  -617.363290183     A.U. after   33 cycles
 SCF Done:  E(UB3LYP) =  -617.363290182     a.u. after    1 cycles

 The electronic state is 2-A.
 Alpha  occ. eigenvalues --  -18.99235 -14.24259 -14.20328 -10.17914 -10.11548
 Alpha  occ. eigenvalues --  -10.11111 -10.08308 -10.08174 -10.08071 -10.07843
 Alpha  occ. eigenvalues --  -10.07234 -10.07220 -10.07037 -10.06141  -0.94405
 Alpha  occ. eigenvalues --   -0.82969  -0.80772  -0.75471  -0.70915  -0.66821
 Alpha  occ. eigenvalues --   -0.65308  -0.59530  -0.56567  -0.53615  -0.51247
 Alpha  occ. eigenvalues --   -0.49287  -0.47015  -0.45403  -0.41885  -0.40672
 Alpha  occ. eigenvalues --   -0.40395  -0.39428  -0.38071  -0.36851  -0.36266
 Alpha  occ. eigenvalues --   -0.34410  -0.33023  -0.32068  -0.31655  -0.30408
 Alpha  occ. eigenvalues --   -0.29100  -0.28459  -0.27848  -0.27581  -0.27344
 Alpha  occ. eigenvalues --   -0.26914  -0.25318  -0.23665  -0.23084  -0.22828
 Alpha  occ. eigenvalues --   -0.20456  -0.19419  -0.16631  -0.16079  -0.15819
 Alpha  occ. eigenvalues --    0.04045
 Alpha virt. eigenvalues --    0.05728   0.06836   0.07270   0.07898   0.08278
 Alpha virt. eigenvalues --    0.08919   0.09494   0.09678   0.10237   0.10877
 Alpha virt. eigenvalues --    0.11019   0.11395   0.12018   0.12248   0.12660

  Beta  occ. eigenvalues --  -18.99232 -14.24253 -14.20294 -10.17912 -10.11521
  Beta  occ. eigenvalues --  -10.11107 -10.08307 -10.08160 -10.08055 -10.07816
  Beta  occ. eigenvalues --  -10.07218 -10.07199 -10.07025 -10.06098  -0.94398
  Beta  occ. eigenvalues --   -0.82953  -0.80730  -0.75444  -0.70880  -0.66788
  Beta  occ. eigenvalues --   -0.65262  -0.59475  -0.56533  -0.53549  -0.51184
  Beta  occ. eigenvalues --   -0.49252  -0.46954  -0.45363  -0.41860  -0.40625
  Beta  occ. eigenvalues --   -0.40373  -0.39390  -0.38027  -0.36812  -0.36235
  Beta  occ. eigenvalues --   -0.34379  -0.32991  -0.32041  -0.31624  -0.30380
  Beta  occ. eigenvalues --   -0.29065  -0.28422  -0.27815  -0.27550  -0.27311
  Beta  occ. eigenvalues --   -0.26882  -0.25297  -0.23625  -0.23048  -0.22793
  Beta  occ. eigenvalues --   -0.20428  -0.19403  -0.16624  -0.16063  -0.15788
  Beta virt. eigenvalues --    0.06242   0.06702   0.07463   0.07816   0.08347
  Beta virt. eigenvalues --    0.08715   0.09100   0.09689   0.10131   0.10618
  Beta virt. eigenvalues --    0.11224   0.11305   0.11616   0.12340   0.12603

 Mulliken charges and spin densities:
               1          2
     1  C    1.296273  -1.912941
     2  C   -0.859915   0.658839
     3  C    0.065639  -0.438022
     4  C   -0.041838   0.139622
     5  C    1.125773  -1.615902
     6  N   -0.255171   0.131537
     7  C   -0.763045   0.277464
     8  O   -0.315582   0.010784
     9  C    0.295190  -0.023674
    10  C    0.469570  -1.382719
    11  C   -1.391522   1.776584
    12  C    0.273370  -0.853198
    13  C    0.871610  -1.190736
    14  N   -0.303248   0.040507
    15  H   -0.187907   0.325210
    16  H   -0.419956   0.559215
    17  H   -0.154794   0.294472
    18  H   -0.045941   0.142014
    19  H   -0.240617   0.393115
    20  H    0.149657   0.014454
    21  H   -0.259235   0.415589
    22  H   -0.232914   0.359594
    23  H   -0.193710   0.396198
    24  H   -0.167205   0.357108
    25  H   -0.188240   0.385556
    26  H    0.143809   0.159375
    27  H    0.288314  -0.123305
    28  H    0.060942   0.175686
    29  H    0.255489  -0.031896
    30  H    0.051961   0.181189
    31  H    0.069947   0.082630
    32  H   -0.246367   0.401487
    33  H   -0.117944   0.251033
    34  H    0.049565   0.093150
    35  H    0.006160   0.221577
    36  H   -0.088120   0.328403
 Sum of Mulliken charges =  -1.00000   1.00000

 Dipole moment (field-independent basis, Debye):
    X=             -3.2568    Y=              1.0442    Z=             -2.2594  Tot=              4.0990
 Quadrupole moment (field-independent basis, Debye-Ang):
   XX=           -179.8090   YY=           -133.4202   ZZ=           -130.1629
   XY=              3.8551   XZ=              2.6767   YZ=              4.9070

 Summary of Natural Population Analysis:

                                       Natural Population
                Natural  -----------------------------------------------
    Atom  No    Charge         Core      Valence    Rydberg      Total
 -----------------------------------------------------------------------
      C    1   -0.28544      0.99967     2.28130    0.00447     3.28544
      C    2   -0.19081      0.99964     2.18308    0.00809     3.19081
      C    3   -0.19179      0.99962     2.18302    0.00914     3.19179
      C    4   -0.19939      0.99961     2.19103    0.00874     3.19939
      C    5   -0.09219      0.99961     2.08095    0.01163     3.09219
      N    6   -0.31814      0.99967     2.80852    0.00995     3.81814
      C    7    0.34727      0.99967     1.63079    0.02227     2.65273
      O    8   -0.33216      0.99988     3.32698    0.00529     4.33216
      C    9   -0.23576      0.99956     2.22719    0.00900     3.23576
      C   10   -0.01074      0.99958     1.99748    0.01368     3.01074
      C   11   -0.12562      0.99957     2.11558    0.01047     3.12562
      C   12   -0.20470      0.99961     2.19466    0.01043     3.20470
      C   13   -0.19821      0.99962     2.19082    0.00777     3.19821
      N   14   -0.42089      0.99977     2.91088    0.01024     3.92089
      H   15    0.09659      0.00000     0.40184    0.00157     0.40341
      H   16    0.09979      0.00000     0.39879    0.00142     0.40021
      H   17    0.09655      0.00000     0.40198    0.00146     0.40345
      H   18    0.08878      0.00000     0.40977    0.00145     0.41122
      H   19    0.09686      0.00000     0.40208    0.00106     0.40314
      H   20    0.09711      0.00000     0.40127    0.00161     0.40289
      H   21    0.09819      0.00000     0.40058    0.00124     0.40181
      H   22    0.10126      0.00000     0.39677    0.00197     0.39874
      H   23    0.10094      0.00000     0.39755    0.00150     0.39906
      H   24    0.09997      0.00000     0.39880    0.00122     0.40003
      H   25    0.10159      0.00000     0.39709    0.00133     0.39841
      H   26    0.19332      0.00000     0.30424    0.00244     0.30668
      H   27    0.10349      0.00000     0.39484    0.00167     0.39651
      H   28    0.11693      0.00000     0.38202    0.00105     0.38307
      H   29    0.10071      0.00000     0.39763    0.00166     0.39929
      H   30    0.11069      0.00000     0.38794    0.00137     0.38931
      H   31    0.10478      0.00000     0.39416    0.00106     0.39522
      H   32    0.10110      0.00000     0.39690    0.00200     0.39890
      H   33    0.09900      0.00000     0.39960    0.00139     0.40100
      H   34    0.10087      0.00000     0.39840    0.00073     0.39913
      H   35    0.17578      0.00000     0.32245    0.00176     0.32422
      H   36    0.17426      0.00000     0.32352    0.00222     0.32574
 =======================================================================
   * Total *   -0.00000     13.99508    40.83052    0.17440    55.00000

 Normal termination of Gaussian 16 at Thu Dec 10 10:39:54 2020.
