 Gaussian 16, Revision A.03,

 -----------------------------------------------------------
 # opt freq B3LYP/6-31G(d) empiricaldispersion=gd3bj scf=xqc
 -----------------------------------------------------------

 -------------------------------
 CID_149008684_JID_2186_neutraal
 -------------------------------
 Symbolic Z-matrix:
 Charge =  0 Multiplicity = 1

 SCF Done:  E(RB3LYP) =  -499.027785129     A.U. after   14 cycles
 SCF Done:  E(RB3LYP) =  -499.030754414     A.U. after   12 cycles
 SCF Done:  E(RB3LYP) =  -499.031079094     A.U. after   11 cycles
 SCF Done:  E(RB3LYP) =  -499.031179599     A.U. after   11 cycles
 SCF Done:  E(RB3LYP) =  -499.031200311     A.U. after   10 cycles
 SCF Done:  E(RB3LYP) =  -499.031206556     A.U. after    9 cycles
 SCF Done:  E(RB3LYP) =  -499.031207770     A.U. after    8 cycles
 Optimization completed.
    -- Stationary point found.
 Normal termination of Gaussian 16 at Wed Dec  9 16:49:43 2020.

 --------------------------------------------------------------------
 #N Geom=AllCheck Guess=TCheck SCRF=Check GenChk RB3LYP/6-31G(d) Freq
 --------------------------------------------------------------------

 Structure from the checkpoint file:  "JID_2186.chk"
 -------------------------------
 CID_149008684_JID_2186_neutraal
 -------------------------------
 Charge =  0 Multiplicity = 1

 SCF Done:  E(RB3LYP) =  -499.031207770     A.U. after    1 cycles

  Exact polarizability: 122.972  14.997 130.262 -11.562   3.618  80.761
 Approx polarizability: 185.772  32.014 212.523 -28.392   9.451 126.238

                      1                      2                      3
                      A                      A                      A
 Frequencies --     63.6658               109.6556               120.5205
 Red. masses --      2.7781                 3.7931                 3.3259
 Frc consts  --      0.0066                 0.0269                 0.0285
 IR Inten    --      0.1231                 0.2520                 1.8442

                      4                      5                      6
                      A                      A                      A
 Frequencies --    198.4480               234.1207               246.1899
 Red. masses --      2.9238                 2.0922                 1.1995
 Frc consts  --      0.0678                 0.0676                 0.0428
 IR Inten    --      0.5743                 1.6870                 0.1060

                      7                      8                      9
                      A                      A                      A
 Frequencies --    265.6434               301.5762               327.1160
 Red. masses --      1.0754                 3.5955                 2.8118
 Frc consts  --      0.0447                 0.1927                 0.1773
 IR Inten    --      1.0241                 5.4408                 0.9175

                     10                     11                     12
                      A                      A                      A
 Frequencies --    393.8823               414.4271               465.2046
 Red. masses --      2.5754                 3.0195                 2.9357
 Frc consts  --      0.2354                 0.3056                 0.3743
 IR Inten    --      3.6337                 3.5008                14.6708

                     13                     14                     15
                      A                      A                      A
 Frequencies --    490.7508               538.9882               559.3754
 Red. masses --      1.6353                 3.4200                 3.9955
 Frc consts  --      0.2320                 0.5854                 0.7366
 IR Inten    --     55.0357                 5.4478                 3.4961

                     16                     17                     18
                      A                      A                      A
 Frequencies --    621.3956               651.5255               685.5673
 Red. masses --      4.0130                 2.8852                 1.7141
 Frc consts  --      0.9130                 0.7216                 0.4747
 IR Inten    --      5.7417                 1.8749                25.8557

                     19                     20                     21
                      A                      A                      A
 Frequencies --    708.5355               724.6628               799.6508
 Red. masses --      2.1388                 3.0280                 2.9862
 Frc consts  --      0.6326                 0.9369                 1.1250
 IR Inten    --     16.7721                 1.3940                 4.4167

                     22                     23                     24
                      A                      A                      A
 Frequencies --    830.5577               842.1241               894.7095
 Red. masses --      1.7005                 1.4263                 3.0112
 Frc consts  --      0.6911                 0.5960                 1.4202
 IR Inten    --      8.6345                 6.0176                 7.0006

                     25                     26                     27
                      A                      A                      A
 Frequencies --    901.6970               930.1013               936.7285
 Red. masses --      2.5598                 3.0864                 2.5144
 Frc consts  --      1.2262                 1.5731                 1.2999
 IR Inten    --      4.2468                 4.0814                 4.1510

                     28                     29                     30
                      A                      A                      A
 Frequencies --    944.3590               980.1721              1006.2204
 Red. masses --      1.2064                 1.4862                 2.1202
 Frc consts  --      0.6339                 0.8412                 1.2648
 IR Inten    --      1.5747                 0.0796                 3.3648

                     31                     32                     33
                      A                      A                      A
 Frequencies --   1055.7180              1084.5549              1106.6045
 Red. masses --      2.1952                 1.4004                 1.6786
 Frc consts  --      1.4415                 0.9706                 1.2111
 IR Inten    --      1.6316                 3.7076                33.2838

                     34                     35                     36
                      A                      A                      A
 Frequencies --   1121.0396              1146.7628              1208.8426
 Red. masses --      1.4823                 1.8372                 2.2737
 Frc consts  --      1.0976                 1.4235                 1.9576
 IR Inten    --     20.1893                 2.8436                 5.3556

                     37                     38                     39
                      A                      A                      A
 Frequencies --   1213.6180              1241.5665              1254.6027
 Red. masses --      1.9626                 1.5446                 1.3044
 Frc consts  --      1.7031                 1.4029                 1.2096
 IR Inten    --      0.2696                 4.9301                 3.7890

                     40                     41                     42
                      A                      A                      A
 Frequencies --   1290.3601              1327.5768              1340.2263
 Red. masses --      1.6968                 1.4940                 2.2793
 Frc consts  --      1.6645                 1.5514                 2.4121
 IR Inten    --      1.3525                 5.3234                 8.2055

                     43                     44                     45
                      A                      A                      A
 Frequencies --   1360.6853              1388.2077              1397.5479
 Red. masses --      1.4842                 1.4050                 1.4239
 Frc consts  --      1.6190                 1.5953                 1.6385
 IR Inten    --      1.5908                 4.1189                 4.4572

                     46                     47                     48
                      A                      A                      A
 Frequencies --   1419.8082              1430.6138              1450.2236
 Red. masses --      1.6688                 1.2885                 1.3369
 Frc consts  --      1.9820                 1.5537                 1.6566
 IR Inten    --      0.8144                 7.2257                 7.9521

                     49                     50                     51
                      A                      A                      A
 Frequencies --   1456.6716              1480.3318              1487.8141
 Red. masses --      3.0053                 3.4758                 1.1814
 Frc consts  --      3.7572                 4.4877                 1.5407
 IR Inten    --      9.8232                 4.9079                16.6161

                     52                     53                     54
                      A                      A                      A
 Frequencies --   1517.2635              1527.1587              1533.9928
 Red. masses --      1.0442                 1.0531                 3.4936
 Frc consts  --      1.4163                 1.4470                 4.8436
 IR Inten    --      2.3363                 0.4403                15.6057

                     55                     56                     57
                      A                      A                      A
 Frequencies --   1535.6743              1543.1460              1610.3940
 Red. masses --      1.0577                 1.0775                 5.0259
 Frc consts  --      1.4696                 1.5117                 7.6793
 IR Inten    --     13.1770                 5.6083                 1.2361

                     58                     59                     60
                      A                      A                      A
 Frequencies --   1674.8696              3000.2310              3001.9592
 Red. masses --      7.8266                 1.0730                 1.0814
 Frc consts  --     12.9356                 5.6908                 5.7416
 IR Inten    --     32.3764                29.4479                22.2485

                     61                     62                     63
                      A                      A                      A
 Frequencies --   3036.3422              3043.4277              3053.2011
 Red. masses --      1.0793                 1.0397                 1.0369
 Frc consts  --      5.8625                 5.6742                 5.6952
 IR Inten    --     33.7110                47.5642                13.7091

                     64                     65                     66
                      A                      A                      A
 Frequencies --   3077.6965              3105.5931              3114.4982
 Red. masses --      1.0905                 1.1018                 1.1012
 Frc consts  --      6.0862                 6.2609                 6.2933
 IR Inten    --     22.6427                30.8826                35.4714

                     67                     68                     69
                      A                      A                      A
 Frequencies --   3121.2370              3127.0009              3138.2190
 Red. masses --      1.1015                 1.1017                 1.0896
 Frc consts  --      6.3224                 6.3471                 6.3225
 IR Inten    --     30.7113                31.2543                30.6769

                     70                     71                     72
                      A                      A                      A
 Frequencies --   3253.3147              3284.4651              3662.7239
 Red. masses --      1.0921                 1.1003                 1.0804
 Frc consts  --      6.8100                 6.9933                 8.5401
 IR Inten    --      6.2241                 2.9448                69.5287

 - Thermochemistry -
 -------------------
 Temperature   298.150 Kelvin.  Pressure   1.00000 Atm.
 Atom     1 has atomic number  6 and mass  12.00000

 Molecular mass:   162.11570 amu.
 Principal axes and moments of inertia in atomic units:
                           1         2         3
     Eigenvalues --  1386.639851874.683842638.91387
           X            0.99998  -0.00397   0.00456
           Y            0.00400   0.99997  -0.00728
           Z           -0.00453   0.00730   0.99996
 This molecule is an asymmetric top.
 Rotational symmetry number  1.
 Warning -- assumption of classical behavior for rotation
           may cause significant error
 Rotational temperatures (Kelvin)      0.06246     0.04620     0.03282
 Rotational constants (GHZ):           1.30152     0.96269     0.68390
 Zero-point vibrational energy     594623.9 (Joules/Mol)
                                  142.11853 (Kcal/Mol)
 Warning -- explicit consideration of  15 degrees of freedom as
           vibrations may cause significant error
 Vibrational temperatures:     91.60   157.77   173.40   285.52   336.85
          (Kelvin)            354.21   382.20   433.90   470.65   566.71
                              596.27   669.33   706.08   775.48   804.82
                              894.05   937.40   986.38  1019.42  1042.63
                             1150.52  1194.99  1211.63  1287.29  1297.34
                             1338.21  1347.74  1358.72  1410.25  1447.73
                             1518.94  1560.43  1592.16  1612.93  1649.94
                             1739.25  1746.13  1786.34  1805.09  1856.54
                             1910.09  1928.29  1957.72  1997.32  2010.76
                             2042.79  2058.33  2086.55  2095.83  2129.87
                             2140.63  2183.00  2197.24  2207.07  2209.49
                             2220.24  2317.00  2409.76  4316.66  4319.15
                             4368.62  4378.81  4392.88  4428.12  4468.26
                             4481.07  4490.76  4499.06  4515.20  4680.79
                             4725.61  5269.84

 Zero-point correction=                           0.226480 (Hartree/Particle)
 Thermal correction to Energy=                    0.237296
 Thermal correction to Enthalpy=                  0.238240
 Thermal correction to Gibbs Free Energy=         0.190500
 Sum of electronic and zero-point Energies=           -498.804727
 Sum of electronic and thermal Energies=              -498.793912
 Sum of electronic and thermal Enthalpies=            -498.792967
 Sum of electronic and thermal Free Energies=         -498.840708

                     E (Thermal)             CV                S
                      KCal/Mol        Cal/Mol-Kelvin    Cal/Mol-Kelvin
 Total                  148.906             43.219            100.479
 Electronic               0.000              0.000              0.000
 Translational            0.889              2.981             41.158
 Rotational               0.889              2.981             30.307
 Vibrational            147.128             37.258             29.014
 Vibration     1          0.597              1.972              4.340
 Vibration     2          0.606              1.941              3.275
 Vibration     3          0.609              1.932              3.092
 Vibration     4          0.637              1.842              2.147
 Vibration     5          0.654              1.789              1.847
 Vibration     6          0.661              1.769              1.758
 Vibration     7          0.671              1.736              1.624
 Vibration     8          0.694              1.671              1.408
 Vibration     9          0.711              1.621              1.274
 Vibration    10          0.761              1.483              0.985
 Vibration    11          0.778              1.439              0.911
 Vibration    12          0.823              1.327              0.751
 Vibration    13          0.847              1.271              0.682
 Vibration    14          0.894              1.164              0.567
 Vibration    15          0.915              1.119              0.525

                           ! Non-Optimized Parameters !
 Normal termination of Gaussian 16 at Wed Dec  9 16:56:17 2020.

 ----------------------------------------------------------------------
 # B3LYP/6-311++G(d,p) empiricaldispersion=gd3bj scf=xqc pop=npa geom=c
 heck
 ----------------------------------------------------------------------

 ---------------------------------------
 CID_149008684_JID_2186_Energie_neutraal
 ---------------------------------------
 Structure from the checkpoint file:  "JID_2186.chk"
 Charge =  0 Multiplicity = 1

 SCF Done:  E(RB3LYP) =  -499.165876705     A.U. after   15 cycles
 Normal termination of Gaussian 16 at Wed Dec  9 16:59:05 2020.

 ----------------------------------------------------------------------
 # B3LYP/6-311++G(d,p) empiricaldispersion=gd3bj scf=xqc pop=npa geom=c
 heck
 ----------------------------------------------------------------------

 -------------------------------------
 CID_149008684_JID_2186_Energie_kation
 -------------------------------------
 Structure from the checkpoint file:  "JID_2186.chk"
 Charge =  1 Multiplicity = 2

 SCF Done:  E(UB3LYP) =  -498.897531201     A.U. after   20 cycles
 Normal termination of Gaussian 16 at Wed Dec  9 17:04:16 2020.
 Gaussian 16:  ES64L-G16RevA.03 25-Dec-2016

 ----------------------------------------------------------------------
 # B3LYP/6-311++G(d,p) empiricaldispersion=gd3bj scf=xqc pop=npa geom=c
 heck
 ----------------------------------------------------------------------

 ------------------------------------
 CID_149008684_JID_2186_Energie_anion
 ------------------------------------
 Structure from the checkpoint file:  "JID_2186.chk"
 Charge = -1 Multiplicity = 2

                         Standard orientation:
 ---------------------------------------------------------------------
 Center     Atomic      Atomic             Coordinates (Angstroms)
 Number     Number       Type             X           Y           Z
 ---------------------------------------------------------------------
      1          6           0        1.822126    0.158478    1.497443
      2          6           0        2.027519   -0.327584    0.057910
      3          6           0        2.237586   -1.845768    0.027810
      4          6           0        0.886025    0.104306   -0.906642
      5          6           0        0.778502    1.648093   -1.044131
      6          6           0       -0.139975    2.321428   -0.042870
      7          7           0       -1.170872    1.768435    0.492421
      8          6           0       -1.346507    0.436766    0.153833
      9          6           0       -0.470233   -0.413921   -0.502835
     10          6           0       -1.100634   -1.686677   -0.563242
     11          6           0       -2.338801   -1.568840    0.049626
     12          7           0       -2.473278   -0.274688    0.490956
     13          1           0        0.894638   -0.247207    1.915474
     14          1           0        1.766784    1.250110    1.559135
     15          1           0        2.651274   -0.169870    2.134626
     16          1           0        2.941692    0.145341   -0.333291
     17          1           0        1.370445   -2.367335    0.446917
     18          1           0        2.388799   -2.209840   -0.995847
     19          1           0        3.116244   -2.128314    0.618880
     20          1           0        1.155572   -0.292112   -1.894171
     21          1           0        0.370861    1.887144   -2.040007
     22          1           0        1.772440    2.109330   -1.004539
     23          1           0        0.049721    3.367922    0.202137
     24          1           0       -0.706766   -2.588123   -1.012928
     25          1           0       -3.125994   -2.293770    0.193831
     26          1           0       -3.270302    0.122809    0.964717
 ---------------------------------------------------------------------

 SCF Done:  E(UB3LYP) =  -499.152921684     A.U. after   33 cycles
 SCF Done:  E(UB3LYP) =  -499.152921684     a.u. after    1 cycles

 The electronic state is 2-A.
 Alpha  occ. eigenvalues --  -14.23379 -14.17971 -10.08803 -10.07617 -10.07483
 Alpha  occ. eigenvalues --  -10.06138 -10.05786 -10.05652 -10.04315 -10.04111
 Alpha  occ. eigenvalues --  -10.03841 -10.03478  -0.86697  -0.79792  -0.70743
 Alpha  occ. eigenvalues --   -0.65640  -0.62861  -0.60544  -0.56889  -0.53016
 Alpha  occ. eigenvalues --   -0.48569  -0.47016  -0.46463  -0.40883  -0.37715
 Alpha  occ. eigenvalues --   -0.35107  -0.34119  -0.33573  -0.32042  -0.30711
 Alpha  occ. eigenvalues --   -0.29985  -0.29600  -0.27915  -0.27123  -0.26825
 Alpha  occ. eigenvalues --   -0.25430  -0.23732  -0.22550  -0.21358  -0.20424
 Alpha  occ. eigenvalues --   -0.19798  -0.13815  -0.12572  -0.07855   0.04893
 Alpha virt. eigenvalues --    0.06855   0.07878   0.08474   0.08656   0.09614
 Alpha virt. eigenvalues --    0.10021   0.10672   0.11201   0.12297   0.12621
 Alpha virt. eigenvalues --    0.13628   0.13866   0.14678   0.14915   0.15732

  Beta  occ. eigenvalues --  -14.23307 -14.17881 -10.08791 -10.07456 -10.07384
  Beta  occ. eigenvalues --  -10.06126 -10.05777 -10.05657 -10.04291 -10.04119
  Beta  occ. eigenvalues --  -10.03815 -10.03428  -0.86581  -0.79538  -0.70679
  Beta  occ. eigenvalues --   -0.65572  -0.62733  -0.60395  -0.56836  -0.52897
  Beta  occ. eigenvalues --   -0.48326  -0.46952  -0.46387  -0.40808  -0.37547
  Beta  occ. eigenvalues --   -0.34991  -0.33982  -0.33469  -0.31929  -0.30627
  Beta  occ. eigenvalues --   -0.29916  -0.29414  -0.27826  -0.27007  -0.26791
  Beta  occ. eigenvalues --   -0.25361  -0.23646  -0.22214  -0.21307  -0.20374
  Beta  occ. eigenvalues --   -0.19394  -0.13681  -0.12395  -0.07402
  Beta virt. eigenvalues --    0.07361   0.07952   0.08714   0.09064   0.09444
  Beta virt. eigenvalues --    0.10212   0.10462   0.10940   0.11458   0.12536
  Beta virt. eigenvalues --    0.12744   0.13807   0.14078   0.14879   0.15019

 Mulliken charges and spin densities:
               1          2
     1  C   -0.400643  -0.232356
     2  C   -0.064239   0.242595
     3  C    0.551013  -1.317928
     4  C    0.284504   0.031370
     5  C   -0.100563  -0.505885
     6  C    0.210672  -0.184882
     7  N   -0.110095   0.033629
     8  C   -1.308478   0.748557
     9  C    1.166239  -0.867671
    10  C    0.346229  -0.502062
    11  C    0.306643  -0.525953
    12  N   -0.197009   0.088328
    13  H    0.027517   0.154964
    14  H    0.009584   0.138753
    15  H    0.016874   0.117095
    16  H   -0.351515   0.516584
    17  H    0.176788  -0.029278
    18  H   -0.157384   0.288127
    19  H   -0.159531   0.275676
    20  H   -0.316019   0.549990
    21  H   -0.116265   0.282976
    22  H   -0.005638   0.150487
    23  H    0.017899   0.131602
    24  H   -0.053426   0.190523
    25  H   -0.635525   0.789174
    26  H   -0.137634   0.435582
 Sum of Mulliken charges =  -1.00000   1.00000

 Dipole moment (field-independent basis, Debye):
    X=              0.4612    Y=              0.5573    Z=              0.7719  Tot=              1.0578
 Quadrupole moment (field-independent basis, Debye-Ang):
   XX=           -126.8125   YY=           -105.7970   ZZ=           -102.6850
   XY=             -1.3943   XZ=              3.1248   YZ=             -3.2028

 Summary of Natural Population Analysis:

                                       Natural Population
                Natural  -----------------------------------------------
    Atom  No    Charge         Core      Valence    Rydberg      Total
 -----------------------------------------------------------------------
      C    1   -0.28896      0.99964     2.28265    0.00667     3.28896
      C    2   -0.10537      0.99960     2.09514    0.01063     3.10537
      C    3   -0.28624      0.99965     2.27990    0.00670     3.28624
      C    4   -0.10886      0.99955     2.09599    0.01332     3.10886
      C    5   -0.22474      0.99961     2.21603    0.00910     3.22474
      C    6    0.11376      0.99964     1.87178    0.01482     2.88624
      N    7   -0.24050      0.99966     2.72959    0.01126     3.74050
      C    8    0.14806      0.99940     1.83601    0.01653     2.85194
      C    9   -0.05918      0.99945     2.04815    0.01158     3.05918
      C   10   -0.14476      0.99953     2.13567    0.00955     3.14476
      C   11   -0.02342      0.99959     2.01029    0.01354     3.02342
      N   12   -0.25849      0.99965     2.74869    0.01015     3.75849
      H   13    0.10184      0.00000     0.39713    0.00103     0.39816
      H   14    0.10222      0.00000     0.39687    0.00092     0.39778
      H   15    0.09474      0.00000     0.40448    0.00078     0.40526
      H   16    0.09119      0.00000     0.40614    0.00267     0.40881
      H   17    0.10053      0.00000     0.39821    0.00126     0.39947
      H   18    0.09759      0.00000     0.40128    0.00113     0.40241
      H   19    0.09599      0.00000     0.40320    0.00081     0.40401
      H   20    0.10385      0.00000     0.39393    0.00221     0.39615
      H   21    0.11213      0.00000     0.38654    0.00132     0.38787
      H   22    0.10310      0.00000     0.39571    0.00119     0.39690
      H   23    0.07597      0.00000     0.42287    0.00116     0.42403
      H   24    0.10257      0.00000     0.39655    0.00087     0.39743
      H   25    0.09681      0.00000     0.40182    0.00137     0.40319
      H   26    0.20019      0.00000     0.29611    0.00370     0.29981
 =======================================================================
   * Total *    0.00000     11.99498    31.85073    0.15429    44.00000

 Normal termination of Gaussian 16 at Wed Dec  9 17:13:44 2020.
