 Gaussian 16, Revision A.03,

 -----------------------------------------------------------
 # opt freq B3LYP/6-31G(d) empiricaldispersion=gd3bj scf=xqc
 -----------------------------------------------------------

 -----------------------------
 CID_7293126_JID_8855_neutraal
 -----------------------------
 Symbolic Z-matrix:
 Charge =  0 Multiplicity = 1

 SCF Done:  E(RB3LYP) =  -839.082315578     A.U. after   15 cycles
 SCF Done:  E(RB3LYP) =  -839.087339576     A.U. after   13 cycles
 SCF Done:  E(RB3LYP) =  -839.088149053     A.U. after   12 cycles
 SCF Done:  E(RB3LYP) =  -839.088187944     A.U. after   12 cycles
 SCF Done:  E(RB3LYP) =  -839.088508019     A.U. after   12 cycles
 SCF Done:  E(RB3LYP) =  -839.088581569     A.U. after   11 cycles
 SCF Done:  E(RB3LYP) =  -839.088614083     A.U. after   11 cycles
 SCF Done:  E(RB3LYP) =  -839.088623578     A.U. after   10 cycles
 SCF Done:  E(RB3LYP) =  -839.088625696     A.U. after    8 cycles
 SCF Done:  E(RB3LYP) =  -839.088626092     A.U. after    8 cycles
 Optimization completed.
    -- Stationary point found.
 Normal termination of Gaussian 16 at Fri Dec 11 22:12:17 2020.

 --------------------------------------------------------------------
 #N Geom=AllCheck Guess=TCheck SCRF=Check GenChk RB3LYP/6-31G(d) Freq
 --------------------------------------------------------------------

 Structure from the checkpoint file:  "JID_8855.chk"
 -----------------------------
 CID_7293126_JID_8855_neutraal
 -----------------------------
 Charge =  0 Multiplicity = 1

 SCF Done:  E(RB3LYP) =  -839.088626092     A.U. after    1 cycles

  Exact polarizability: 228.013 -15.830 160.197   9.428   9.158  88.352
 Approx polarizability: 333.128 -20.229 289.478  18.046  23.291 131.168

                      1                      2                      3
                      A                      A                      A
 Frequencies --     26.0382                51.9180                58.2829
 Red. masses --      6.0832                 7.5247                 3.5115
 Frc consts  --      0.0024                 0.0120                 0.0070
 IR Inten    --      0.6996                 4.2408                 0.2534

                      4                      5                      6
                      A                      A                      A
 Frequencies --     68.6674                73.1746               107.2042
 Red. masses --      4.0842                 3.9175                 6.3190
 Frc consts  --      0.0113                 0.0124                 0.0428
 IR Inten    --      2.8064                 0.8794                 2.6569

                      7                      8                      9
                      A                      A                      A
 Frequencies --    164.6066               182.2393               208.2586
 Red. masses --      4.2316                 3.9937                 4.5106
 Frc consts  --      0.0676                 0.0781                 0.1153
 IR Inten    --      2.0720                 1.7803                 0.9733

                     10                     11                     12
                      A                      A                      A
 Frequencies --    233.8043               244.5092               307.5743
 Red. masses --      1.1638                 4.0929                 4.7070
 Frc consts  --      0.0375                 0.1442                 0.2624
 IR Inten    --      0.4759                 7.3005                 5.2539

                     13                     14                     15
                      A                      A                      A
 Frequencies --    319.7457               327.9734               354.9104
 Red. masses --      3.8664                 2.4820                 1.3119
 Frc consts  --      0.2329                 0.1573                 0.0974
 IR Inten    --      2.1251                31.2060               241.0493

                     16                     17                     18
                      A                      A                      A
 Frequencies --    374.7345               389.7961               451.4869
 Red. masses --      4.2839                 3.5817                 4.3834
 Frc consts  --      0.3544                 0.3206                 0.5264
 IR Inten    --     12.1693                 4.6437                 4.7861

                     19                     20                     21
                      A                      A                      A
 Frequencies --    480.3229               498.1172               516.4776
 Red. masses --      3.4824                 4.1753                 2.7501
 Frc consts  --      0.4734                 0.6104                 0.4322
 IR Inten    --      2.7302                 0.8012                 9.6795

                     22                     23                     24
                      A                      A                      A
 Frequencies --    533.3525               542.1252               552.1215
 Red. masses --      2.8094                 4.6807                 5.3339
 Frc consts  --      0.4709                 0.8105                 0.9580
 IR Inten    --      4.0633                 7.6348                 0.9031

                     25                     26                     27
                      A                      A                      A
 Frequencies --    583.3121               601.0819               637.2770
 Red. masses --      2.7277                 4.1816                 4.1119
 Frc consts  --      0.5468                 0.8901                 0.9839
 IR Inten    --      2.6165                 0.3390                17.6856

                     28                     29                     30
                      A                      A                      A
 Frequencies --    681.3990               686.4835               721.0506
 Red. masses --      2.7398                 2.8537                 2.9962
 Frc consts  --      0.7495                 0.7924                 0.9178
 IR Inten    --      2.3522                14.1889                16.9796

                     31                     32                     33
                      A                      A                      A
 Frequencies --    741.4592               766.1978               790.5088
 Red. masses --      4.4756                 2.1470                 1.5720
 Frc consts  --      1.4497                 0.7426                 0.5788
 IR Inten    --      4.0956                17.7817                41.2183

                     34                     35                     36
                      A                      A                      A
 Frequencies --    801.4023               824.6872               851.9463
 Red. masses --      1.2387                 2.5279                 4.5526
 Frc consts  --      0.4687                 1.0130                 1.9469
 IR Inten    --      2.8885                 8.0407                 6.0757

                     37                     38                     39
                      A                      A                      A
 Frequencies --    871.2885               919.6312               926.4840
 Red. masses --      3.8077                 1.3213                 1.2865
 Frc consts  --      1.7031                 0.6584                 0.6506
 IR Inten    --      4.7538                 0.6792                 0.6243

                     40                     41                     42
                      A                      A                      A
 Frequencies --    939.6068               948.4044               981.8822
 Red. masses --      2.7287                 5.5229                 1.2723
 Frc consts  --      1.4194                 2.9269                 0.7227
 IR Inten    --     13.8240                 8.7137                 1.1141

                     43                     44                     45
                      A                      A                      A
 Frequencies --   1023.4747              1040.7342              1099.1207
 Red. masses --      2.9073                 2.1194                 2.7214
 Frc consts  --      1.7943                 1.3525                 1.9370
 IR Inten    --      3.1400                 3.0027                36.0353

                     46                     47                     48
                      A                      A                      A
 Frequencies --   1109.1546              1116.0835              1120.3392
 Red. masses --      1.9412                 1.8146                 1.9543
 Frc consts  --      1.4070                 1.3317                 1.4453
 IR Inten    --      5.7554                32.2095                 5.0975

                     49                     50                     51
                      A                      A                      A
 Frequencies --   1126.9840              1198.3902              1217.6592
 Red. masses --      2.7409                 1.2601                 1.4080
 Frc consts  --      2.0511                 1.0662                 1.2300
 IR Inten    --    140.4155                 2.8274                33.8724

                     52                     53                     54
                      A                      A                      A
 Frequencies --   1230.2867              1260.9468              1270.1170
 Red. masses --      2.8111                 2.6981                 1.3851
 Frc consts  --      2.5069                 2.5275                 1.3165
 IR Inten    --     34.7536                30.1986                30.1092

                     55                     56                     57
                      A                      A                      A
 Frequencies --   1296.7955              1308.2161              1312.0763
 Red. masses --      1.5930                 1.6148                 4.4048
 Frc consts  --      1.5783                 1.6283                 4.4678
 IR Inten    --      0.1447               199.1029                57.8906

                     58                     59                     60
                      A                      A                      A
 Frequencies --   1377.0102              1390.1526              1397.9929
 Red. masses --      1.9744                 3.5571                 2.0349
 Frc consts  --      2.2058                 4.0501                 2.3432
 IR Inten    --     50.1064               106.7706                24.7846

                     61                     62                     63
                      A                      A                      A
 Frequencies --   1408.0456              1414.5623              1436.6132
 Red. masses --      1.3593                 1.7661                 1.2897
 Frc consts  --      1.5879                 2.0822                 1.5683
 IR Inten    --      3.3254                46.3087                21.5102

                     64                     65                     66
                      A                      A                      A
 Frequencies --   1464.2801              1500.0696              1507.3667
 Red. masses --      2.1596                 2.1716                 1.1407
 Frc consts  --      2.7282                 2.8790                 1.5270
 IR Inten    --      6.9330                 7.6135                 5.2089

                     67                     68                     69
                      A                      A                      A
 Frequencies --   1511.5400              1519.9064              1536.4377
 Red. masses --      1.1817                 1.0546                 2.8639
 Frc consts  --      1.5907                 1.4353                 3.9832
 IR Inten    --     10.8356                13.8473                68.6910

                     70                     71                     72
                      A                      A                      A
 Frequencies --   1537.7993              1610.6920              1633.7423
 Red. masses --      1.0911                 4.8665                 1.3864
 Frc consts  --      1.5202                 7.4385                 2.1802
 IR Inten    --     18.9844                93.4666               100.0296

                     73                     74                     75
                      A                      A                      A
 Frequencies --   1661.8031              1687.0338              1745.9732
 Red. masses --      5.8626                 6.1006                11.0531
 Frc consts  --      9.5389                10.2300                19.8522
 IR Inten    --     56.2625                82.5941               353.7963

                     76                     77                     78
                      A                      A                      A
 Frequencies --   1818.9102              3058.3224              3084.0272
 Red. masses --      9.3580                 1.0365                 1.0578
 Frc consts  --     18.2414                 5.7120                 5.9280
 IR Inten    --    297.5305                24.8721                27.3497

                     79                     80                     81
                      A                      A                      A
 Frequencies --   3085.2057              3121.7498              3135.5210
 Red. masses --      1.0651                 1.1027                 1.1086
 Frc consts  --      5.9732                 6.3316                 6.4216
 IR Inten    --     31.8251                26.9136                 7.9732

                     82                     83                     84
                      A                      A                      A
 Frequencies --   3146.6848              3159.3504              3202.6828
 Red. masses --      1.0985                 1.1041                 1.0885
 Frc consts  --      6.4084                 6.4932                 6.5781
 IR Inten    --     13.8688                11.9593                10.6459

                     85                     86                     87
                      A                      A                      A
 Frequencies --   3220.4587              3228.8375              3238.7476
 Red. masses --      1.0904                 1.0917                 1.0935
 Frc consts  --      6.6628                 6.7054                 6.7581
 IR Inten    --      4.7517                 4.7874                 4.5502

                     88                     89                     90
                      A                      A                      A
 Frequencies --   3260.6908              3593.6158              3719.2197
 Red. masses --      1.0940                 1.0445                 1.1053
 Frc consts  --      6.8529                 7.9474                 9.0078
 IR Inten    --      4.2673                32.4237                57.4774

 - Thermochemistry -
 -------------------
 Temperature   298.150 Kelvin.  Pressure   1.00000 Atm.
 Atom     1 has atomic number  6 and mass  12.00000

 Molecular mass:   246.10044 amu.
 Principal axes and moments of inertia in atomic units:
                           1         2         3
     Eigenvalues --  1783.019448382.194809371.38571
           X            0.99992  -0.01124   0.00604
           Y            0.01126   0.99993  -0.00457
           Z           -0.00599   0.00464   0.99997
 This molecule is an asymmetric top.
 Rotational symmetry number  1.
 Warning -- assumption of classical behavior for rotation
           may cause significant error
 Rotational temperatures (Kelvin)      0.04858     0.01033     0.00924
 Rotational constants (GHZ):           1.01218     0.21531     0.19258
 Zero-point vibrational energy     678802.8 (Joules/Mol)
                                  162.23777 (Kcal/Mol)
 Warning -- explicit consideration of  26 degrees of freedom as
           vibrations may cause significant error
 Vibrational temperatures:     37.46    74.70    83.86    98.80   105.28
          (Kelvin)            154.24   236.83   262.20   299.64   336.39
                              351.79   442.53   460.04   471.88   510.64
                              539.16   560.83   649.59   691.08   716.68
                              743.10   767.38   780.00   794.38   839.26
                              864.82   916.90   980.38   987.70  1037.43
                             1066.79  1102.39  1137.37  1153.04  1186.54
                             1225.76  1253.59  1323.14  1333.00  1351.88
                             1364.54  1412.71  1472.55  1497.38  1581.39
                             1595.83  1605.80  1611.92  1621.48  1724.22
                             1751.94  1770.11  1814.22  1827.42  1865.80
                             1882.23  1887.79  1981.21  2000.12  2011.40
                             2025.86  2035.24  2066.97  2106.77  2158.27
                             2168.76  2174.77  2186.81  2210.59  2212.55
                             2317.43  2350.59  2390.96  2427.27  2512.07
                             2617.01  4400.24  4437.23  4438.92  4491.50
                             4511.32  4527.38  4545.60  4607.95  4633.52
                             4645.58  4659.84  4691.41  5170.41  5351.13

 Zero-point correction=                           0.258542 (Hartree/Particle)
 Thermal correction to Energy=                    0.274663
 Thermal correction to Enthalpy=                  0.275607
 Thermal correction to Gibbs Free Energy=         0.213857
 Sum of electronic and zero-point Energies=           -838.830084
 Sum of electronic and thermal Energies=              -838.813964
 Sum of electronic and thermal Enthalpies=            -838.813019
 Sum of electronic and thermal Free Energies=         -838.874769

                     E (Thermal)             CV                S
                      KCal/Mol        Cal/Mol-Kelvin    Cal/Mol-Kelvin
 Total                  172.353             62.023            129.963
 Electronic               0.000              0.000              0.000
 Translational            0.889              2.981             42.402
 Rotational               0.889              2.981             33.304
 Vibrational            170.576             56.061             54.256
 Vibration     1          0.593              1.985              6.110
 Vibration     2          0.596              1.977              4.743
 Vibration     3          0.596              1.974              4.514
 Vibration     4          0.598              1.969              4.191
 Vibration     5          0.599              1.967              4.066
 Vibration     6          0.606              1.943              3.319
 Vibration     7          0.623              1.886              2.496
 Vibration     8          0.630              1.864              2.305
 Vibration     9          0.642              1.828              2.059
 Vibration    10          0.654              1.789              1.850
 Vibration    11          0.660              1.772              1.770
 Vibration    12          0.697              1.659              1.375
 Vibration    13          0.706              1.636              1.311
 Vibration    14          0.711              1.620              1.270
 Vibration    15          0.731              1.565              1.144
 Vibration    16          0.746              1.524              1.060
 Vibration    17          0.758              1.492              1.001
 Vibration    18          0.810              1.358              0.791
 Vibration    19          0.837              1.294              0.709
 Vibration    20          0.854              1.254              0.663
 Vibration    21          0.871              1.213              0.618
 Vibration    22          0.888              1.176              0.580
 Vibration    23          0.897              1.157              0.561
 Vibration    24          0.907              1.135              0.540
 Vibration    25          0.940              1.067              0.479
 Vibration    26          0.959              1.029              0.448

                           ! Non-Optimized Parameters !
 Normal termination of Gaussian 16 at Fri Dec 11 22:25:11 2020.

 ----------------------------------------------------------------------
 # B3LYP/6-311++G(d,p) empiricaldispersion=gd3bj scf=xqc pop=npa geom=c
 heck
 ----------------------------------------------------------------------

 -------------------------------------
 CID_7293126_JID_8855_Energie_neutraal
 -------------------------------------
 Structure from the checkpoint file:  "JID_8855.chk"
 Charge =  0 Multiplicity = 1

 SCF Done:  E(RB3LYP) =  -839.327340590     A.U. after   16 cycles
 Normal termination of Gaussian 16 at Fri Dec 11 22:31:43 2020.

 ----------------------------------------------------------------------
 # B3LYP/6-311++G(d,p) empiricaldispersion=gd3bj scf=xqc pop=npa geom=c
 heck
 ----------------------------------------------------------------------

 -----------------------------------
 CID_7293126_JID_8855_Energie_kation
 -----------------------------------
 Structure from the checkpoint file:  "JID_8855.chk"
 Charge =  1 Multiplicity = 2

 SCF Done:  E(UB3LYP) =  -839.048429176     A.U. after   23 cycles
 Normal termination of Gaussian 16 at Fri Dec 11 22:45:13 2020.
 Gaussian 16:  ES64L-G16RevA.03 25-Dec-2016

 ----------------------------------------------------------------------
 # B3LYP/6-311++G(d,p) empiricaldispersion=gd3bj scf=xqc pop=npa geom=c
 heck
 ----------------------------------------------------------------------

 ----------------------------------
 CID_7293126_JID_8855_Energie_anion
 ----------------------------------
 Structure from the checkpoint file:  "JID_8855.chk"
 Charge = -1 Multiplicity = 2

                         Standard orientation:
 ---------------------------------------------------------------------
 Center     Atomic      Atomic             Coordinates (Angstroms)
 Number     Number       Type             X           Y           Z
 ---------------------------------------------------------------------
      1          6           0        4.806675   -0.972623    1.257524
      2          6           0        4.353832   -0.793152   -0.190029
      3          7           0        2.908705   -0.550565   -0.290241
      4          6           0        2.046546   -1.600325   -0.522232
      5          6           0        0.702724   -1.442476   -0.582996
      6          6           0        0.146049   -0.132870   -0.397591
      7          6           0        1.009877    0.958408   -0.153212
      8          6           0        2.466291    0.761445   -0.074999
      9          8           0        3.272820    1.660071    0.163195
     10          6           0        0.500345    2.254884    0.029260
     11          6           0       -0.864349    2.466345   -0.029686
     12          6           0       -1.748688    1.397751   -0.266091
     13          6           0       -1.249404    0.116444   -0.450071
     14          8           0       -2.027365   -0.996478   -0.675443
     15          6           0       -3.422388   -0.802489   -0.868526
     16          6           0       -4.194762   -0.507270    0.422888
     17          8           0       -5.269914    0.071196    0.392141
     18          7           0       -3.611164   -0.998939    1.548023
     19          1           0        4.587862   -0.067377    1.829527
     20          1           0        5.886115   -1.155004    1.296293
     21          1           0        4.296358   -1.820606    1.727579
     22          1           0        4.854026    0.066735   -0.638301
     23          1           0        4.579556   -1.679905   -0.789842
     24          1           0        2.524731   -2.563640   -0.660259
     25          1           0        0.059323   -2.288397   -0.781176
     26          1           0        1.200434    3.060870    0.215205
     27          1           0       -1.271534    3.462703    0.112209
     28          1           0       -2.815045    1.589979   -0.288371
     29          1           0       -3.625948   -0.001241   -1.585138
     30          1           0       -3.791395   -1.743592   -1.286685
     31          1           0       -2.663330   -1.345125    1.518978
     32          1           0       -4.024763   -0.771620    2.440923
 ---------------------------------------------------------------------

 SCF Done:  E(UB3LYP) =  -839.326901216     A.U. after   33 cycles
 SCF Done:  E(UB3LYP) =  -839.326905122     a.u. after    3 cycles

 The electronic state is 2-A.
 Alpha  occ. eigenvalues --  -19.06143 -19.01196 -18.95452 -14.25335 -14.23210
 Alpha  occ. eigenvalues --  -10.19499 -10.14839 -10.13841 -10.11985 -10.09533
 Alpha  occ. eigenvalues --  -10.08589 -10.05751 -10.05497 -10.05078 -10.04978
 Alpha  occ. eigenvalues --  -10.04765 -10.04634 -10.04342  -0.98000  -0.95736
 Alpha  occ. eigenvalues --   -0.91184  -0.83151  -0.82826  -0.74192  -0.68263
 Alpha  occ. eigenvalues --   -0.66738  -0.63633  -0.62738  -0.60166  -0.54584
 Alpha  occ. eigenvalues --   -0.52627  -0.51865  -0.49475  -0.47813  -0.46466
 Alpha  occ. eigenvalues --   -0.43839  -0.41045  -0.40082  -0.38925  -0.37693
 Alpha  occ. eigenvalues --   -0.36328  -0.35177  -0.34659  -0.34154  -0.33189
 Alpha  occ. eigenvalues --   -0.32467  -0.30686  -0.30528  -0.30017  -0.29172
 Alpha  occ. eigenvalues --   -0.28211  -0.27127  -0.26864  -0.26225  -0.24767
 Alpha  occ. eigenvalues --   -0.23711  -0.22491  -0.22173  -0.21552  -0.19886
 Alpha  occ. eigenvalues --   -0.17840  -0.15586  -0.13432  -0.12504  -0.08734
 Alpha  occ. eigenvalues --    0.04351
 Alpha virt. eigenvalues --    0.06216   0.06829   0.07713   0.08333   0.08593
 Alpha virt. eigenvalues --    0.08871   0.09429   0.09706   0.10594   0.11425
 Alpha virt. eigenvalues --    0.11700   0.11762   0.12570   0.13377   0.13612

  Beta  occ. eigenvalues --  -19.06149 -19.01185 -18.95387 -14.25309 -14.23022
  Beta  occ. eigenvalues --  -10.19481 -10.14835 -10.13808 -10.12064 -10.09529
  Beta  occ. eigenvalues --  -10.08377 -10.05723 -10.05286 -10.04912 -10.04861
  Beta  occ. eigenvalues --  -10.04849 -10.04659 -10.04140  -0.98009  -0.95719
  Beta  occ. eigenvalues --   -0.91008  -0.82858  -0.82779  -0.73920  -0.68066
  Beta  occ. eigenvalues --   -0.66659  -0.63455  -0.62417  -0.59949  -0.54407
  Beta  occ. eigenvalues --   -0.52440  -0.51759  -0.49260  -0.47761  -0.46438
  Beta  occ. eigenvalues --   -0.43743  -0.40911  -0.39915  -0.38821  -0.37625
  Beta  occ. eigenvalues --   -0.36228  -0.35042  -0.34519  -0.34101  -0.32881
  Beta  occ. eigenvalues --   -0.32331  -0.30557  -0.30424  -0.29866  -0.29008
  Beta  occ. eigenvalues --   -0.28080  -0.27011  -0.26688  -0.26115  -0.24686
  Beta  occ. eigenvalues --   -0.23603  -0.22409  -0.21714  -0.20893  -0.19798
  Beta  occ. eigenvalues --   -0.17793  -0.14477  -0.13300  -0.11786  -0.07997
  Beta virt. eigenvalues --    0.06302   0.07284   0.07628   0.08457   0.08707
  Beta virt. eigenvalues --    0.09027   0.09242   0.09644   0.09891   0.10706
  Beta virt. eigenvalues --    0.11396   0.11771   0.11869   0.12563   0.13382

 Mulliken charges and spin densities:
               1          2
     1  C    0.333856  -0.744979
     2  C   -0.398980   0.295474
     3  N    0.155805   0.095368
     4  C   -0.167696   0.064933
     5  C   -0.149021  -0.097205
     6  C    0.405135  -0.156322
     7  C    0.839152   0.008185
     8  C   -0.241697   0.069121
     9  O   -0.380538   0.023466
    10  C   -0.577409  -0.047613
    11  C   -0.643666   0.251770
    12  C   -0.024063  -0.077360
    13  C   -0.025658  -0.268427
    14  O   -0.069482   0.007463
    15  C   -0.103926  -0.184171
    16  C   -0.036051   0.034703
    17  O   -0.321714   0.004728
    18  N   -0.278535  -0.021319
    19  H    0.095073   0.083994
    20  H   -0.255367   0.384798
    21  H    0.081402   0.047817
    22  H    0.170330   0.016569
    23  H   -0.453312   0.594021
    24  H   -0.167456   0.284867
    25  H    0.028192   0.142268
    26  H    0.161001   0.000628
    27  H    0.117361   0.016086
    28  H    0.135808  -0.029622
    29  H    0.162376   0.058003
    30  H    0.192899  -0.004693
    31  H    0.248864   0.032194
    32  H    0.167319   0.115255
 Sum of Mulliken charges =  -1.00000   1.00000

 Dipole moment (field-independent basis, Debye):
    X=             -5.1242    Y=             -1.6569    Z=              0.6376  Tot=              5.4231
 Quadrupole moment (field-independent basis, Debye-Ang):
   XX=           -200.1400   YY=           -132.3913   ZZ=           -119.4571
   XY=              9.3323   XZ=              0.8167   YZ=             -2.7641

 Summary of Natural Population Analysis:

                                       Natural Population
                Natural  -----------------------------------------------
    Atom  No    Charge         Core      Valence    Rydberg      Total
 -----------------------------------------------------------------------
      C    1   -0.29073      0.99966     2.28588    0.00519     3.29073
      C    2   -0.08626      0.99963     2.07500    0.01163     3.08626
      N    3   -0.20826      0.99963     2.69876    0.00988     3.70826
      C    4    0.06417      0.99955     1.92435    0.01193     2.93583
      C    5   -0.15956      0.99954     2.15079    0.00923     3.15956
      C    6   -0.00183      0.99947     1.99244    0.00992     3.00183
      C    7   -0.03159      0.99946     2.02289    0.00923     3.03159
      C    8    0.33766      0.99959     1.64141    0.02134     2.66234
      O    9   -0.33620      0.99988     3.33117    0.00515     4.33620
      C   10   -0.09417      0.99954     2.08522    0.00941     3.09417
      C   11   -0.09007      0.99958     2.08071    0.00977     3.09007
      C   12   -0.11086      0.99952     2.10388    0.00746     3.11086
      C   13    0.14322      0.99934     1.84551    0.01192     2.85678
      O   14   -0.28620      0.99986     3.27696    0.00938     4.28620
      C   15   -0.05241      0.99953     2.04117    0.01171     3.05241
      C   16    0.32469      0.99972     1.65272    0.02286     2.67531
      O   17   -0.32105      0.99987     3.31507    0.00610     4.32105
      N   18   -0.40124      0.99970     2.89383    0.00772     3.90124
      H   19    0.10744      0.00000     0.39164    0.00092     0.39256
      H   20    0.09715      0.00000     0.40162    0.00123     0.40285
      H   21    0.09502      0.00000     0.40413    0.00085     0.40498
      H   22    0.10774      0.00000     0.39106    0.00120     0.39226
      H   23    0.09384      0.00000     0.40401    0.00215     0.40616
      H   24    0.09263      0.00000     0.40631    0.00106     0.40737
      H   25    0.10732      0.00000     0.39140    0.00129     0.39268
      H   26    0.10854      0.00000     0.39040    0.00106     0.39146
      H   27    0.09278      0.00000     0.40614    0.00108     0.40722
      H   28    0.09857      0.00000     0.39957    0.00187     0.40143
      H   29    0.09969      0.00000     0.39857    0.00174     0.40031
      H   30    0.10128      0.00000     0.39776    0.00096     0.39872
      H   31    0.20435      0.00000     0.29381    0.00183     0.29565
      H   32    0.19434      0.00000     0.30328    0.00238     0.30566
 =======================================================================
   * Total *    0.00000     17.99309    46.79748    0.20944    65.00000

 Normal termination of Gaussian 16 at Fri Dec 11 23:43:38 2020.
