 Gaussian 16, Revision A.03,

 -----------------------------------------------------------
 # opt freq B3LYP/6-31G(d) empiricaldispersion=gd3bj scf=xqc
 -----------------------------------------------------------

 -------------------------------
 CID_149669665_JID_6916_neutraal
 -------------------------------
 Symbolic Z-matrix:
 Charge =  0 Multiplicity = 1

 SCF Done:  E(RB3LYP) =  -749.207194387     A.U. after   14 cycles
 SCF Done:  E(RB3LYP) =  -749.209790235     A.U. after   12 cycles
 SCF Done:  E(RB3LYP) =  -749.210251258     A.U. after   12 cycles
 SCF Done:  E(RB3LYP) =  -749.210181173     A.U. after   12 cycles
 SCF Done:  E(RB3LYP) =  -749.210424319     A.U. after   11 cycles
 SCF Done:  E(RB3LYP) =  -749.210444924     A.U. after   10 cycles
 SCF Done:  E(RB3LYP) =  -749.210472909     A.U. after   11 cycles
 SCF Done:  E(RB3LYP) =  -749.210524560     A.U. after   12 cycles
 SCF Done:  E(RB3LYP) =  -749.210539264     A.U. after   11 cycles
 SCF Done:  E(RB3LYP) =  -749.210579085     A.U. after   12 cycles
 SCF Done:  E(RB3LYP) =  -749.210713019     A.U. after    8 cycles
 SCF Done:  E(RB3LYP) =  -749.210712945     A.U. after    8 cycles
 SCF Done:  E(RB3LYP) =  -749.210712941     A.U. after    8 cycles
 SCF Done:  E(RB3LYP) =  -749.210712906     A.U. after    8 cycles
 SCF Done:  E(RB3LYP) =  -749.210712931     A.U. after    7 cycles
 Optimization completed.
    -- Stationary point found.
 Normal termination of Gaussian 16 at Fri Dec 11 01:15:55 2020.

 --------------------------------------------------------------------
 #N Geom=AllCheck Guess=TCheck SCRF=Check GenChk RB3LYP/6-31G(d) Freq
 --------------------------------------------------------------------

 Structure from the checkpoint file:  "JID_6916.chk"
 -------------------------------
 CID_149669665_JID_6916_neutraal
 -------------------------------
 Charge =  0 Multiplicity = 1

 SCF Done:  E(RB3LYP) =  -749.210712931     A.U. after    1 cycles

  Exact polarizability: 161.210   4.173 131.126  13.993   3.281 106.006
 Approx polarizability: 195.101   2.839 215.342  25.107   3.293 162.877

                      1                      2                      3
                      A                      A                      A
 Frequencies --     16.4229                19.7582                30.2001
 Red. masses --      6.2524                 6.4617                 8.0577
 Frc consts  --      0.0010                 0.0015                 0.0043
 IR Inten    --      0.5917                 0.2017                 1.4482

                      4                      5                      6
                      A                      A                      A
 Frequencies --     37.0463                51.9723                59.5449
 Red. masses --      4.1721                 3.8115                 3.9914
 Frc consts  --      0.0034                 0.0061                 0.0083
 IR Inten    --      0.0788                 0.0313                 0.1015

                      7                      8                      9
                      A                      A                      A
 Frequencies --     68.4633               116.3212               140.4000
 Red. masses --      5.3262                 3.4531                 4.1797
 Frc consts  --      0.0147                 0.0275                 0.0485
 IR Inten    --      0.6684                 0.1632                 0.9589

                     10                     11                     12
                      A                      A                      A
 Frequencies --    211.8086               227.4236               292.0884
 Red. masses --      2.5685                 3.7797                 3.0114
 Frc consts  --      0.0679                 0.1152                 0.1514
 IR Inten    --      0.9839                 3.0021                 1.8168

                     13                     14                     15
                      A                      A                      A
 Frequencies --    300.9853               341.9472               368.9645
 Red. masses --      2.0801                 2.4536                 2.1169
 Frc consts  --      0.1110                 0.1690                 0.1698
 IR Inten    --      0.1753                 2.2202                 3.2397

                     16                     17                     18
                      A                      A                      A
 Frequencies --    374.4648               414.4238               461.9907
 Red. masses --      2.0626                 2.0599                 2.3724
 Frc consts  --      0.1704                 0.2084                 0.2983
 IR Inten    --      2.2712                 2.6900                 5.2607

                     19                     20                     21
                      A                      A                      A
 Frequencies --    506.0788               528.1415               556.9759
 Red. masses --      2.6984                 1.7859                 2.6895
 Frc consts  --      0.4072                 0.2935                 0.4916
 IR Inten    --     13.5445                23.1579                 2.3748

                     22                     23                     24
                      A                      A                      A
 Frequencies --    627.4454               628.3862               664.8051
 Red. masses --      3.7818                 3.2196                 3.3024
 Frc consts  --      0.8772                 0.7490                 0.8600
 IR Inten    --      0.6264                15.1921                 4.1097

                     25                     26                     27
                      A                      A                      A
 Frequencies --    690.1501               715.2508               728.5805
 Red. masses --      1.3532                 1.4476                 1.7512
 Frc consts  --      0.3798                 0.4363                 0.5477
 IR Inten    --     88.7143                25.2283                34.8966

                     28                     29                     30
                      A                      A                      A
 Frequencies --    740.7309               767.4823               797.9919
 Red. masses --      1.3849                 2.5174                 2.6750
 Frc consts  --      0.4477                 0.8737                 1.0036
 IR Inten    --     17.9608                 0.9292                 9.2275

                     31                     32                     33
                      A                      A                      A
 Frequencies --    822.5493               848.2941               859.1181
 Red. masses --      2.6359                 2.3049                 1.3092
 Frc consts  --      1.0508                 0.9772                 0.5693
 IR Inten    --      7.2512                 1.3407                 6.5401

                     34                     35                     36
                      A                      A                      A
 Frequencies --    878.3407               916.2856               933.5113
 Red. masses --      2.1281                 2.2219                 2.5008
 Frc consts  --      0.9673                 1.0991                 1.2840
 IR Inten    --      4.3568                 0.6444                14.0094

                     37                     38                     39
                      A                      A                      A
 Frequencies --    937.6650               955.9998               985.5488
 Red. masses --      6.7082                 2.4298                 1.8082
 Frc consts  --      3.4750                 1.3084                 1.0348
 IR Inten    --     10.4721                 9.3407                 1.6356

                     40                     41                     42
                      A                      A                      A
 Frequencies --    997.2982              1028.2218              1041.9735
 Red. masses --      1.8860                 1.7459                 1.7007
 Frc consts  --      1.1052                 1.0875                 1.0879
 IR Inten    --      0.3218                 1.2279                 1.9123

                     43                     44                     45
                      A                      A                      A
 Frequencies --   1060.1249              1102.3006              1115.1201
 Red. masses --      1.7711                 1.8399                 3.7241
 Frc consts  --      1.1728                 1.3172                 2.7284
 IR Inten    --      1.6646                45.8634                 9.7199

                     46                     47                     48
                      A                      A                      A
 Frequencies --   1118.8326              1126.9499              1138.5582
 Red. masses --      2.3617                 2.5307                 1.8480
 Frc consts  --      1.7418                 1.8937                 1.4114
 IR Inten    --      5.3025                 8.2556                36.5933

                     49                     50                     51
                      A                      A                      A
 Frequencies --   1158.1942              1165.6486              1180.5328
 Red. masses --      1.6483                 1.4501                 1.5384
 Frc consts  --      1.3027                 1.1609                 1.2632
 IR Inten    --     53.8909                59.3348                15.1615

                     52                     53                     54
                      A                      A                      A
 Frequencies --   1195.2314              1215.0146              1245.5111
 Red. masses --      1.9465                 1.6576                 1.2680
 Frc consts  --      1.6383                 1.4418                 1.1589
 IR Inten    --     99.4650                 8.8105                25.2665

                     55                     56                     57
                      A                      A                      A
 Frequencies --   1248.0954              1280.4148              1303.9803
 Red. masses --      1.5282                 1.4337                 1.2640
 Frc consts  --      1.4026                 1.3849                 1.2663
 IR Inten    --     11.1653                 8.7912                 4.3442

                     58                     59                     60
                      A                      A                      A
 Frequencies --   1329.9495              1334.1372              1353.3291
 Red. masses --      1.3977                 1.2320                 1.1478
 Frc consts  --      1.4566                 1.2920                 1.2386
 IR Inten    --      4.4182                 3.1323                 3.1159

                     61                     62                     63
                      A                      A                      A
 Frequencies --   1362.3057              1382.1749              1387.8244
 Red. masses --      1.4881                 1.3805                 1.5831
 Frc consts  --      1.6272                 1.5538                 1.7965
 IR Inten    --      8.5439                13.3512                 3.1985

                     64                     65                     66
                      A                      A                      A
 Frequencies --   1404.2798              1409.3284              1420.7785
 Red. masses --      1.4686                 1.5777                 1.6339
 Frc consts  --      1.7063                 1.8463                 1.9433
 IR Inten    --     11.4678                 4.3090                 1.5619

                     67                     68                     69
                      A                      A                      A
 Frequencies --   1425.3081              1428.7838              1438.5080
 Red. masses --      1.5329                 1.4592                 1.8078
 Frc consts  --      1.8348                 1.7551                 2.2041
 IR Inten    --     11.5398                 1.3571                42.1721

                     70                     71                     72
                      A                      A                      A
 Frequencies --   1491.7587              1504.0064              1513.3656
 Red. masses --      1.0932                 1.1022                 1.0867
 Frc consts  --      1.4334                 1.4690                 1.4664
 IR Inten    --     11.1476                 2.7045                14.0518

                     73                     74                     75
                      A                      A                      A
 Frequencies --   1514.8592              1522.7499              1533.9466
 Red. masses --      1.0924                 1.1028                 1.0745
 Frc consts  --      1.4770                 1.5066                 1.4897
 IR Inten    --     10.2241                 2.6229                 6.7002

                     76                     77                     78
                      A                      A                      A
 Frequencies --   1536.6202              1544.3663              1565.7559
 Red. masses --      1.0765                 1.1011                 4.6103
 Frc consts  --      1.4977                 1.5473                 6.6593
 IR Inten    --      6.9251                 0.1514                 7.3608

                     79                     80                     81
                      A                      A                      A
 Frequencies --   1627.0557              1844.0188              3035.3550
 Red. masses --      8.1727                 9.3793                 1.0622
 Frc consts  --     12.7473                18.7910                 5.7660
 IR Inten    --     45.4368               223.0987                34.6234

                     82                     83                     84
                      A                      A                      A
 Frequencies --   3036.9343              3043.1535              3047.9143
 Red. masses --      1.0665                 1.0660                 1.0683
 Frc consts  --      5.7951                 5.8164                 5.8473
 IR Inten    --      8.8697                23.6833                 8.3168

                     85                     86                     87
                      A                      A                      A
 Frequencies --   3050.2942              3053.3473              3063.3625
 Red. masses --      1.0647                 1.0658                 1.0644
 Frc consts  --      5.8364                 5.8544                 5.8853
 IR Inten    --      3.7237                 7.2158                17.9983

                     88                     89                     90
                      A                      A                      A
 Frequencies --   3066.2800              3073.2405              3077.5390
 Red. masses --      1.0938                 1.0949                 1.0642
 Frc consts  --      6.0590                 6.0927                 5.9388
 IR Inten    --     47.9981                51.4200                 7.2814

                     91                     92                     93
                      A                      A                      A
 Frequencies --   3087.1210              3091.3066              3095.4869
 Red. masses --      1.0968                 1.0980                 1.1018
 Frc consts  --      6.1586                 6.1819                 6.2203
 IR Inten    --     91.9064                22.3081                51.2885

                     94                     95                     96
                      A                      A                      A
 Frequencies --   3101.8431              3113.6073              3125.2633
 Red. masses --      1.0992                 1.0951                 1.1038
 Frc consts  --      6.2311                 6.2548                 6.3518
 IR Inten    --     26.5749                29.9443                19.1780

                     97                     98                     99
                      A                      A                      A
 Frequencies --   3277.6726              3319.2268              3681.9078
 Red. masses --      1.0934                 1.1053                 1.0639
 Frc consts  --      6.9206                 7.1750                 8.4975
 IR Inten    --      5.7816                 1.6131                44.4607

 - Thermochemistry -
 -------------------
 Temperature   298.150 Kelvin.  Pressure   1.00000 Atm.
 Atom     1 has atomic number  6 and mass  12.00000

 Molecular mass:   225.13649 amu.
 Principal axes and moments of inertia in atomic units:
                           1         2         3
     Eigenvalues --  1232.54160********************
           X            1.00000  -0.00054  -0.00127
           Y            0.00056   0.99981   0.01963
           Z            0.00126  -0.01963   0.99981
 This molecule is an asymmetric top.
 Rotational symmetry number  1.
 Warning -- assumption of classical behavior for rotation
           may cause significant error
 Rotational temperatures (Kelvin)      0.07027     0.00797     0.00764
 Rotational constants (GHZ):           1.46424     0.16612     0.15914
 Zero-point vibrational energy     799474.1 (Joules/Mol)
                                  191.07889 (Kcal/Mol)
 Warning -- explicit consideration of  21 degrees of freedom as
           vibrations may cause significant error
 Vibrational temperatures:     23.63    28.43    43.45    53.30    74.78
          (Kelvin)             85.67    98.50   167.36   202.00   304.75
                              327.21   420.25   433.05   491.99   530.86
                              538.77   596.26   664.70   728.13   759.88
                              801.36   902.75   904.11   956.51   992.97
                             1029.09  1048.26  1065.75  1104.24  1148.13
                             1183.46  1220.51  1236.08  1263.74  1318.33
                             1343.11  1349.09  1375.47  1417.98  1434.89
                             1479.38  1499.17  1525.28  1585.96  1604.41
                             1609.75  1621.43  1638.13  1666.38  1677.11
                             1698.52  1719.67  1748.14  1792.01  1795.73
                             1842.23  1876.14  1913.50  1919.53  1947.14
                             1960.05  1988.64  1996.77  2020.45  2027.71
                             2044.18  2050.70  2055.70  2069.69  2146.31
                             2163.93  2177.40  2179.54  2190.90  2207.01
                             2210.85  2222.00  2252.77  2340.97  2653.13
                             4367.20  4369.47  4378.42  4385.27  4388.69
                             4393.09  4407.50  4411.69  4421.71  4427.89
                             4441.68  4447.70  4453.72  4462.86  4479.79
                             4496.56  4715.84  4775.63  5297.44

 Zero-point correction=                           0.304504 (Hartree/Particle)
 Thermal correction to Energy=                    0.320824
 Thermal correction to Enthalpy=                  0.321768
 Thermal correction to Gibbs Free Energy=         0.255872
 Sum of electronic and zero-point Energies=           -748.906209
 Sum of electronic and thermal Energies=              -748.889889
 Sum of electronic and thermal Enthalpies=            -748.888945
 Sum of electronic and thermal Free Energies=         -748.954841

                     E (Thermal)             CV                S
                      KCal/Mol        Cal/Mol-Kelvin    Cal/Mol-Kelvin
 Total                  201.320             59.936            138.691
 Electronic               0.000              0.000              0.000
 Translational            0.889              2.981             42.137
 Rotational               0.889              2.981             33.384
 Vibrational            199.543             53.974             63.169
 Vibration     1          0.593              1.986              7.026
 Vibration     2          0.593              1.986              6.658
 Vibration     3          0.594              1.984              5.816
 Vibration     4          0.594              1.982              5.411
 Vibration     5          0.596              1.977              4.741
 Vibration     6          0.597              1.974              4.472
 Vibration     7          0.598              1.969              4.197
 Vibration     8          0.608              1.936              3.161
 Vibration     9          0.615              1.913              2.798
 Vibration    10          0.643              1.823              2.028
 Vibration    11          0.651              1.799              1.899
 Vibration    12          0.687              1.688              1.462
 Vibration    13          0.693              1.672              1.411
 Vibration    14          0.721              1.592              1.203
 Vibration    15          0.741              1.536              1.084
 Vibration    16          0.746              1.524              1.061
 Vibration    17          0.778              1.439              0.911
 Vibration    18          0.820              1.334              0.760
 Vibration    19          0.861              1.237              0.643
 Vibration    20          0.883              1.188              0.591
 Vibration    21          0.912              1.124              0.530

 Optimization completed.
    -- Stationary point found.
 Normal termination of Gaussian 16 at Fri Dec 11 01:26:21 2020.

 ----------------------------------------------------------------------
 # B3LYP/6-311++G(d,p) empiricaldispersion=gd3bj scf=xqc pop=npa geom=c
 heck
 ----------------------------------------------------------------------

 ---------------------------------------
 CID_149669665_JID_6916_Energie_neutraal
 ---------------------------------------
 Structure from the checkpoint file:  "JID_6916.chk"
 Charge =  0 Multiplicity = 1

 SCF Done:  E(RB3LYP) =  -749.432049919     A.U. after   14 cycles
 Normal termination of Gaussian 16 at Fri Dec 11 01:31:28 2020.

 ----------------------------------------------------------------------
 # B3LYP/6-311++G(d,p) empiricaldispersion=gd3bj scf=xqc pop=npa geom=c
 heck
 ----------------------------------------------------------------------

 -------------------------------------
 CID_149669665_JID_6916_Energie_kation
 -------------------------------------
 Structure from the checkpoint file:  "JID_6916.chk"
 Charge =  1 Multiplicity = 2

 SCF Done:  E(UB3LYP) =  -749.109735853     A.U. after   28 cycles
 Normal termination of Gaussian 16 at Fri Dec 11 01:45:57 2020.
 Gaussian 16:  ES64L-G16RevA.03 25-Dec-2016

 ----------------------------------------------------------------------
 # B3LYP/6-311++G(d,p) empiricaldispersion=gd3bj scf=xqc pop=npa geom=c
 heck
 ----------------------------------------------------------------------

 ------------------------------------
 CID_149669665_JID_6916_Energie_anion
 ------------------------------------
 Structure from the checkpoint file:  "JID_6916.chk"
 Charge = -1 Multiplicity = 2

                         Standard orientation:
 ---------------------------------------------------------------------
 Center     Atomic      Atomic             Coordinates (Angstroms)
 Number     Number       Type             X           Y           Z
 ---------------------------------------------------------------------
      1          6           0        5.266357    0.676100    0.557474
      2          6           0        4.473134    1.713433    0.195194
      3          8           0        3.392934    1.195684   -0.476095
      4          6           0        3.599164   -0.156867   -0.482438
      5          7           0        4.694427   -0.514664    0.118845
      6          6           0        2.546017   -1.019574   -1.090450
      7          6           0        1.631427   -1.669049   -0.029416
      8          6           0        0.919695   -0.669611    0.893245
      9          6           0        0.042201    0.370793    0.179123
     10          6           0       -1.043930   -0.214675   -0.736498
     11          6           0       -2.024709   -1.180380   -0.052593
     12          6           0       -2.766225   -0.605714    1.164455
     13          6           0       -3.562424    0.670053    0.874692
     14          6           0       -4.697140    0.452951   -0.101316
     15          8           0       -5.211015   -0.609894   -0.374729
     16          8           0       -5.120168    1.622666   -0.644954
     17          1           0        6.203848    0.691382    1.094487
     18          1           0        4.507072    2.785225    0.303465
     19          1           0        1.958707   -0.416314   -1.789247
     20          1           0        3.039910   -1.807407   -1.668141
     21          1           0        0.896928   -2.295065   -0.550585
     22          1           0        2.243036   -2.343115    0.581301
     23          1           0        0.311384   -1.237995    1.608272
     24          1           0        1.671192   -0.139837    1.492995
     25          1           0       -0.425263    1.006930    0.942363
     26          1           0        0.680150    1.040758   -0.409544
     27          1           0       -1.600865    0.614936   -1.192240
     28          1           0       -0.572281   -0.741741   -1.576303
     29          1           0       -2.764724   -1.515978   -0.787567
     30          1           0       -1.487186   -2.081023    0.270191
     31          1           0       -3.454283   -1.366734    1.547843
     32          1           0       -2.054994   -0.387214    1.969859
     33          1           0       -4.014339    1.054319    1.799648
     34          1           0       -2.927408    1.477744    0.497321
     35          1           0       -5.867279    1.391366   -1.228643
 ---------------------------------------------------------------------

 SCF Done:  E(UB3LYP) =  -749.420600556     A.U. after   33 cycles
 SCF Done:  E(UB3LYP) =  -749.420600556     a.u. after    1 cycles

 The electronic state is 2-A.
 Alpha  occ. eigenvalues --  -19.11584 -19.07640 -19.02432 -14.22658 -10.21463
 Alpha  occ. eigenvalues --  -10.17734 -10.14344 -10.11648 -10.10383 -10.09287
 Alpha  occ. eigenvalues --  -10.09012 -10.08087 -10.07941 -10.07545 -10.07432
 Alpha  occ. eigenvalues --  -10.07388  -1.04891  -1.01746  -0.92884  -0.83865
 Alpha  occ. eigenvalues --   -0.74132  -0.72329  -0.69400  -0.66357  -0.63102
 Alpha  occ. eigenvalues --   -0.59711  -0.56200  -0.54459  -0.52352  -0.49610
 Alpha  occ. eigenvalues --   -0.47970  -0.45361  -0.43943  -0.41460  -0.40763
 Alpha  occ. eigenvalues --   -0.40151  -0.39449  -0.38926  -0.37430  -0.36590
 Alpha  occ. eigenvalues --   -0.35296  -0.34117  -0.33018  -0.32343  -0.31768
 Alpha  occ. eigenvalues --   -0.31377  -0.30721  -0.29337  -0.29218  -0.27785
 Alpha  occ. eigenvalues --   -0.26275  -0.25868  -0.25318  -0.23902  -0.23706
 Alpha  occ. eigenvalues --   -0.22951  -0.22489  -0.22391  -0.21148  -0.19229
 Alpha  occ. eigenvalues --   -0.16320   0.03905
 Alpha virt. eigenvalues --    0.05249   0.06003   0.06462   0.07195   0.07530
 Alpha virt. eigenvalues --    0.08001   0.08364   0.08699   0.09398   0.09788
 Alpha virt. eigenvalues --    0.10511   0.11165   0.11315   0.11568   0.11843

  Beta  occ. eigenvalues --  -19.11570 -19.07589 -19.02416 -14.22652 -10.21453
  Beta  occ. eigenvalues --  -10.17721 -10.14317 -10.11640 -10.10375 -10.09254
  Beta  occ. eigenvalues --  -10.09002 -10.08075 -10.07931 -10.07532 -10.07426
  Beta  occ. eigenvalues --  -10.07378  -1.04866  -1.01677  -0.92826  -0.83845
  Beta  occ. eigenvalues --   -0.74109  -0.72299  -0.69364  -0.66318  -0.63061
  Beta  occ. eigenvalues --   -0.59668  -0.56156  -0.54429  -0.52295  -0.49554
  Beta  occ. eigenvalues --   -0.47921  -0.45314  -0.43896  -0.41421  -0.40717
  Beta  occ. eigenvalues --   -0.40111  -0.39412  -0.38881  -0.37394  -0.36547
  Beta  occ. eigenvalues --   -0.35265  -0.34083  -0.32994  -0.32314  -0.31740
  Beta  occ. eigenvalues --   -0.31347  -0.30686  -0.29311  -0.29183  -0.27759
  Beta  occ. eigenvalues --   -0.26255  -0.25838  -0.25293  -0.23861  -0.23664
  Beta  occ. eigenvalues --   -0.22927  -0.22464  -0.22365  -0.21135  -0.19191
  Beta  occ. eigenvalues --   -0.16261
  Beta virt. eigenvalues --    0.05840   0.06419   0.06615   0.07029   0.07645
  Beta virt. eigenvalues --    0.07858   0.08294   0.08640   0.09018   0.09658
  Beta virt. eigenvalues --    0.09875   0.10649   0.11291   0.11395   0.11656

 Mulliken charges and spin densities:
               1          2
     1  C    0.162958  -0.197895
     2  C    0.266590  -0.200945
     3  O   -0.020647   0.054040
     4  C   -0.632431   0.087223
     5  N   -0.111826   0.139422
     6  C    1.132653  -1.649770
     7  C   -0.270734  -0.061767
     8  C    0.106618  -0.042113
     9  C   -0.401284  -0.098595
    10  C    0.264449  -0.588534
    11  C   -0.313671   0.156698
    12  C   -0.351301   0.031640
    13  C    0.834826  -1.079248
    14  C    0.159975  -0.395409
    15  O   -0.289528   0.024533
    16  O   -0.195960   0.076404
    17  H   -0.403392   0.574317
    18  H   -0.881023   1.076646
    19  H    0.084037   0.074226
    20  H    0.011362   0.190422
    21  H    0.105953   0.047976
    22  H    0.123111   0.046239
    23  H   -0.049101   0.226700
    24  H    0.074988   0.078271
    25  H   -0.165776   0.320904
    26  H    0.101679   0.088343
    27  H   -0.075490   0.251489
    28  H    0.049206   0.101533
    29  H    0.115973   0.062162
    30  H   -0.008658   0.133998
    31  H    0.065773   0.131999
    32  H    0.140777   0.005105
    33  H   -0.445985   0.640043
    34  H    0.201425   0.022891
    35  H   -0.385544   0.671053
 Sum of Mulliken charges =  -1.00000   1.00000

 Dipole moment (field-independent basis, Debye):
    X=              2.8715    Y=             -4.2771    Z=             -0.6744  Tot=              5.1956
 Quadrupole moment (field-independent basis, Debye-Ang):
   XX=           -240.2873   YY=           -141.1445   ZZ=           -127.7128
   XY=             -1.1838   XZ=            -10.4092   YZ=             -1.9347

 Summary of Natural Population Analysis:

                                       Natural Population
                Natural  -----------------------------------------------
    Atom  No    Charge         Core      Valence    Rydberg      Total
 -----------------------------------------------------------------------
      C    1   -0.04677      0.99957     2.03400    0.01320     3.04677
      C    2    0.04122      0.99950     1.94543    0.01385     2.95878
      O    3   -0.23710      0.99986     3.22933    0.00790     4.23710
      C    4    0.27389      0.99960     1.70646    0.02005     2.72611
      N    5   -0.25859      0.99968     2.74916    0.00975     3.75859
      C    6   -0.22076      0.99958     2.21307    0.00811     3.22076
      C    7   -0.18401      0.99962     2.17730    0.00709     3.18401
      C    8   -0.19381      0.99962     2.18682    0.00737     3.19381
      C    9   -0.19728      0.99962     2.18859    0.00907     3.19728
      C   10   -0.19440      0.99963     2.18631    0.00846     3.19440
      C   11   -0.19397      0.99962     2.18699    0.00736     3.19397
      C   12   -0.19322      0.99963     2.18377    0.00982     3.19322
      C   13   -0.24295      0.99957     2.23438    0.00900     3.24295
      C   14    0.40890      0.99972     1.56573    0.02565     2.59110
      O   15   -0.31009      0.99987     3.30384    0.00638     4.31009
      O   16   -0.34421      0.99988     3.33768    0.00666     4.34421
      H   17    0.10247      0.00000     0.39633    0.00120     0.39753
      H   18    0.10332      0.00000     0.39415    0.00253     0.39668
      H   19    0.10946      0.00000     0.38918    0.00137     0.39054
      H   20    0.11257      0.00000     0.38632    0.00111     0.38743
      H   21    0.09748      0.00000     0.40139    0.00113     0.40252
      H   22    0.10138      0.00000     0.39741    0.00120     0.39862
      H   23    0.09775      0.00000     0.40109    0.00115     0.40225
      H   24    0.10032      0.00000     0.39843    0.00125     0.39968
      H   25    0.09812      0.00000     0.40063    0.00125     0.40188
      H   26    0.10117      0.00000     0.39714    0.00168     0.39883
      H   27    0.09870      0.00000     0.40012    0.00117     0.40130
      H   28    0.09507      0.00000     0.40377    0.00115     0.40493
      H   29    0.10446      0.00000     0.39443    0.00112     0.39554
      H   30    0.09486      0.00000     0.40401    0.00112     0.40514
      H   31    0.10440      0.00000     0.39458    0.00101     0.39560
      H   32    0.09801      0.00000     0.40095    0.00104     0.40199
      H   33    0.11873      0.00000     0.37966    0.00161     0.38127
      H   34    0.11229      0.00000     0.38630    0.00141     0.38771
      H   35    0.24260      0.00000     0.24369    0.01372     0.25740
 =======================================================================
   * Total *    0.00000     15.99457    44.79847    0.20695    61.00000

 Normal termination of Gaussian 16 at Fri Dec 11 02:03:41 2020.
