 Gaussian 16, Revision A.03,

 -----------------------------------------------------------
 # opt freq B3LYP/6-31G(d) empiricaldispersion=gd3bj scf=xqc
 -----------------------------------------------------------

 ------------------------------
 CID_53871421_JID_1503_neutraal
 ------------------------------
 Symbolic Z-matrix:
 Charge =  0 Multiplicity = 1

 SCF Done:  E(RB3LYP) =  -465.948558888     A.U. after   13 cycles
 SCF Done:  E(RB3LYP) =  -465.951656971     A.U. after   11 cycles
 SCF Done:  E(RB3LYP) =  -465.951978725     A.U. after   10 cycles
 SCF Done:  E(RB3LYP) =  -465.952231710     A.U. after   11 cycles
 SCF Done:  E(RB3LYP) =  -465.952421643     A.U. after   10 cycles
 SCF Done:  E(RB3LYP) =  -465.952642412     A.U. after   10 cycles
 SCF Done:  E(RB3LYP) =  -465.952793136     A.U. after   11 cycles
 SCF Done:  E(RB3LYP) =  -465.952811414     A.U. after   11 cycles
 SCF Done:  E(RB3LYP) =  -465.952838365     A.U. after    9 cycles
 SCF Done:  E(RB3LYP) =  -465.952856683     A.U. after   10 cycles
 SCF Done:  E(RB3LYP) =  -465.952868829     A.U. after    9 cycles
 SCF Done:  E(RB3LYP) =  -465.952868013     A.U. after   10 cycles
 SCF Done:  E(RB3LYP) =  -465.952872572     A.U. after    9 cycles
 SCF Done:  E(RB3LYP) =  -465.952873614     A.U. after    8 cycles
 SCF Done:  E(RB3LYP) =  -465.952873704     A.U. after    7 cycles
 Optimization completed.
    -- Stationary point found.
 Normal termination of Gaussian 16 at Tue Dec  8 20:13:17 2020.

 --------------------------------------------------------------------
 #N Geom=AllCheck Guess=TCheck SCRF=Check GenChk RB3LYP/6-31G(d) Freq
 --------------------------------------------------------------------

 Structure from the checkpoint file:  "JID_1503.chk"
 ------------------------------
 CID_53871421_JID_1503_neutraal
 ------------------------------
 Charge =  0 Multiplicity = 1

 SCF Done:  E(RB3LYP) =  -465.952873704     A.U. after    1 cycles

  Exact polarizability: 114.955   0.003 128.453   0.005  -5.228  76.154
 Approx polarizability: 143.374   0.006 201.493   0.004 -16.658 113.826

                      1                      2                      3
                      A                      A                      A
 Frequencies --     53.6440               107.9769               114.3936
 Red. masses --      2.8829                 2.7520                 1.0506
 Frc consts  --      0.0049                 0.0189                 0.0081
 IR Inten    --      0.5871                 0.0001                 0.0530

                      4                      5                      6
                      A                      A                      A
 Frequencies --    120.6964               137.9954               142.4868
 Red. masses --      1.0951                 1.0216                 1.3983
 Frc consts  --      0.0094                 0.0115                 0.0167
 IR Inten    --      1.0462                 0.0023                 0.9503

                      7                      8                      9
                      A                      A                      A
 Frequencies --    148.4649               212.2490               240.1519
 Red. masses --      1.6328                 1.1202                 3.1217
 Frc consts  --      0.0212                 0.0297                 0.1061
 IR Inten    --      1.5352                 0.0004                 0.3628

                     10                     11                     12
                      A                      A                      A
 Frequencies --    263.4306               293.0319               332.2179
 Red. masses --      1.9786                 2.8325                 2.5001
 Frc consts  --      0.0809                 0.1433                 0.1626
 IR Inten    --      0.0582                 2.1066                 0.3223

                     13                     14                     15
                      A                      A                      A
 Frequencies --    353.2738               379.2946               433.0470
 Red. masses --      2.5804                 3.1210                 3.7969
 Frc consts  --      0.1897                 0.2645                 0.4195
 IR Inten    --      0.1453                 0.0097                 0.1388

                     16                     17                     18
                      A                      A                      A
 Frequencies --    463.3721               486.5349               511.7464
 Red. masses --      4.2035                 4.0508                 2.9721
 Frc consts  --      0.5318                 0.5650                 0.4586
 IR Inten    --      4.0022                 0.0292                 0.1848

                     19                     20                     21
                      A                      A                      A
 Frequencies --    581.8263               609.2883               687.6607
 Red. masses --      3.4546                 4.1640                 3.5973
 Frc consts  --      0.6890                 0.9108                 1.0023
 IR Inten    --      0.0017                 2.4662                 4.8745

                     22                     23                     24
                      A                      A                      A
 Frequencies --    696.0944               775.1089               864.3005
 Red. masses --      4.2692                 2.7813                 2.1322
 Frc consts  --      1.2188                 0.9845                 0.9384
 IR Inten    --      7.5704                 6.2736                 2.7273

                     25                     26                     27
                      A                      A                      A
 Frequencies --    966.8177               973.3342              1018.5274
 Red. masses --      1.7784                 1.8919                 1.4430
 Frc consts  --      0.9794                 1.0560                 0.8820
 IR Inten    --      2.9388                 0.6460                 6.1497

                     28                     29                     30
                      A                      A                      A
 Frequencies --   1047.2470              1054.5922              1059.2475
 Red. masses --      1.5143                 1.4941                 1.4415
 Frc consts  --      0.9785                 0.9791                 0.9529
 IR Inten    --      3.3977                 6.1185                 5.3150

                     31                     32                     33
                      A                      A                      A
 Frequencies --   1081.9511              1083.1274              1102.7338
 Red. masses --      1.5062                 1.5056                 1.5532
 Frc consts  --      1.0388                 1.0407                 1.1128
 IR Inten    --      1.2640                 0.1558                 1.5284

                     34                     35                     36
                      A                      A                      A
 Frequencies --   1111.8437              1128.3278              1189.9479
 Red. masses --      1.9741                 2.9273                 4.1274
 Frc consts  --      1.4378                 2.1958                 3.4433
 IR Inten    --      3.4252                 8.5192                17.9457

                     37                     38                     39
                      A                      A                      A
 Frequencies --   1209.1553              1221.7874              1247.3355
 Red. masses --      3.5755                 2.8970                 2.3511
 Frc consts  --      3.0800                 2.5479                 2.1552
 IR Inten    --    105.0103                28.0392               156.8221

                     40                     41                     42
                      A                      A                      A
 Frequencies --   1307.9471              1357.5048              1400.8085
 Red. masses --      3.5083                 1.3431                 1.9295
 Frc consts  --      3.5362                 1.4583                 2.2307
 IR Inten    --      1.2023                 8.5228                13.9703

                     43                     44                     45
                      A                      A                      A
 Frequencies --   1426.1720              1437.0279              1442.8207
 Red. masses --      1.2220                 1.4047                 1.4213
 Frc consts  --      1.4645                 1.7091                 1.7432
 IR Inten    --      2.7643                 7.4545                 0.4794

                     46                     47                     48
                      A                      A                      A
 Frequencies --   1454.8448              1456.5054              1503.6186
 Red. masses --      1.2485                 1.2300                 1.0452
 Frc consts  --      1.5569                 1.5374                 1.3923
 IR Inten    --     10.0863                 0.2797                 0.0325

                     49                     50                     51
                      A                      A                      A
 Frequencies --   1504.0090              1509.6794              1510.5472
 Red. masses --      1.0446                 1.0450                 1.0437
 Frc consts  --      1.3922                 1.4033                 1.4032
 IR Inten    --      4.6214                18.1491                 0.9874

                     52                     53                     54
                      A                      A                      A
 Frequencies --   1518.1596              1520.2664              1525.0338
 Red. masses --      1.0485                 1.0473                 1.0684
 Frc consts  --      1.4239                 1.4261                 1.4641
 IR Inten    --      0.3110                 3.9057                 3.8229

                     55                     56                     57
                      A                      A                      A
 Frequencies --   1529.7381              1530.8478              1531.2469
 Red. masses --      1.0673                 1.0683                 1.0458
 Frc consts  --      1.4716                 1.4751                 1.4447
 IR Inten    --      0.1006                17.9079                 4.1536

                     58                     59                     60
                      A                      A                      A
 Frequencies --   1758.1443              1791.8078              2966.6055
 Red. masses --      7.1266                 8.0420                 1.0821
 Frc consts  --     12.9791                15.2123                 5.6108
 IR Inten    --     12.8955                52.5476                47.4488

                     61                     62                     63
                      A                      A                      A
 Frequencies --   3027.4005              3028.1485              3049.4613
 Red. masses --      1.0431                 1.0429                 1.0376
 Frc consts  --      5.6325                 5.6342                 5.6849
 IR Inten    --     22.8061                62.7307                51.1738

                     64                     65                     66
                      A                      A                      A
 Frequencies --   3050.2521              3051.2704              3067.5559
 Red. masses --      1.0412                 1.0410                 1.0985
 Frc consts  --      5.7078                 5.7103                 6.0905
 IR Inten    --      9.9936                15.8450                 3.3119

                     67                     68                     69
                      A                      A                      A
 Frequencies --   3068.7238              3097.8583              3098.1899
 Red. masses --      1.0951                 1.1002                 1.1003
 Frc consts  --      6.0758                 6.2210                 6.2228
 IR Inten    --     62.2676                 0.5970                34.9121

                     70                     71                     72
                      A                      A                      A
 Frequencies --   3115.9088              3127.7519              3141.9120
 Red. masses --      1.1017                 1.1033                 1.0960
 Frc consts  --      6.3021                 6.3592                 6.3747
 IR Inten    --     43.4936                27.7407                16.8278

                     73                     74                     75
                      A                      A                      A
 Frequencies --   3142.2276              3171.0883              3171.3206
 Red. masses --      1.0958                 1.0953                 1.0952
 Frc consts  --      6.3747                 6.4895                 6.4897
 IR Inten    --     31.1407                42.1287                 6.6886

 - Thermochemistry -
 -------------------
 Temperature   298.150 Kelvin.  Pressure   1.00000 Atm.
 Atom     1 has atomic number  6 and mass  12.00000

 Molecular mass:   152.12012 amu.
 Principal axes and moments of inertia in atomic units:
                           1         2         3
     Eigenvalues --  1295.543331749.468822705.69811
           X            1.00000   0.00000   0.00001
           Y           -0.00000   0.99999   0.00541
           Z           -0.00001  -0.00541   0.99999
 This molecule is an asymmetric top.
 Rotational symmetry number  1.
 Warning -- assumption of classical behavior for rotation
           may cause significant error
 Rotational temperatures (Kelvin)      0.06686     0.04951     0.03201
 Rotational constants (GHZ):           1.39304     1.03159     0.66701
 Zero-point vibrational energy     627421.4 (Joules/Mol)
                                  149.95732 (Kcal/Mol)
 Warning -- explicit consideration of  20 degrees of freedom as
           vibrations may cause significant error
 Vibrational temperatures:     77.18   155.35   164.59   173.66   198.54
          (Kelvin)            205.01   213.61   305.38   345.53   379.02
                              421.61   477.99   508.28   545.72   623.06
                              666.69   700.02   736.29   837.12   876.63
                              989.39  1001.52  1115.21  1243.54  1391.03
                             1400.41  1465.43  1506.75  1517.32  1524.02
                             1556.69  1558.38  1586.59  1599.70  1623.41
                             1712.07  1739.70  1757.88  1794.64  1881.84
                             1953.15  2015.45  2051.94  2067.56  2075.90
                             2093.20  2095.59  2163.37  2163.93  2172.09
                             2173.34  2184.29  2187.32  2194.18  2200.95
                             2202.55  2203.12  2529.58  2578.01  4268.28
                             4355.75  4356.83  4387.49  4388.63  4390.10
                             4413.53  4415.21  4457.13  4457.60  4483.10
                             4500.14  4520.51  4520.96  4562.49  4562.82

 Zero-point correction=                           0.238972 (Hartree/Particle)
 Thermal correction to Energy=                    0.251916
 Thermal correction to Enthalpy=                  0.252860
 Thermal correction to Gibbs Free Energy=         0.200502
 Sum of electronic and zero-point Energies=           -465.713902
 Sum of electronic and thermal Energies=              -465.700957
 Sum of electronic and thermal Enthalpies=            -465.700013
 Sum of electronic and thermal Free Energies=         -465.752372

                     E (Thermal)             CV                S
                      KCal/Mol        Cal/Mol-Kelvin    Cal/Mol-Kelvin
 Total                  158.080             47.359            110.197
 Electronic               0.000              0.000              0.000
 Translational            0.889              2.981             40.968
 Rotational               0.889              2.981             30.196
 Vibrational            156.302             41.397             39.033
 Vibration     1          0.596              1.976              4.678
 Vibration     2          0.606              1.943              3.305
 Vibration     3          0.607              1.937              3.193
 Vibration     4          0.609              1.932              3.089
 Vibration     5          0.614              1.915              2.831
 Vibration     6          0.616              1.911              2.770
 Vibration     7          0.618              1.904              2.692
 Vibration     8          0.643              1.822              2.024
 Vibration     9          0.657              1.779              1.802
 Vibration    10          0.670              1.740              1.639
 Vibration    11          0.688              1.687              1.456
 Vibration    12          0.714              1.611              1.249
 Vibration    13          0.729              1.569              1.152
 Vibration    14          0.749              1.514              1.042
 Vibration    15          0.794              1.398              0.849
 Vibration    16          0.821              1.331              0.756
 Vibration    17          0.843              1.280              0.693
 Vibration    18          0.867              1.224              0.629
 Vibration    19          0.939              1.071              0.482
 Vibration    20          0.968              1.012              0.434

                           ! Non-Optimized Parameters !
 Normal termination of Gaussian 16 at Tue Dec  8 20:19:29 2020.

 ----------------------------------------------------------------------
 # B3LYP/6-311++G(d,p) empiricaldispersion=gd3bj scf=xqc pop=npa geom=c
 heck
 ----------------------------------------------------------------------

 --------------------------------------
 CID_53871421_JID_1503_Energie_neutraal
 --------------------------------------
 Structure from the checkpoint file:  "JID_1503.chk"
 Charge =  0 Multiplicity = 1

 SCF Done:  E(RB3LYP) =  -466.080141831     A.U. after   14 cycles
 Normal termination of Gaussian 16 at Tue Dec  8 20:22:12 2020.

 ----------------------------------------------------------------------
 # B3LYP/6-311++G(d,p) empiricaldispersion=gd3bj scf=xqc pop=npa geom=c
 heck
 ----------------------------------------------------------------------

 ------------------------------------
 CID_53871421_JID_1503_Energie_kation
 ------------------------------------
 Structure from the checkpoint file:  "JID_1503.chk"
 Charge =  1 Multiplicity = 2

 SCF Done:  E(UB3LYP) =  -465.810801588     A.U. after   18 cycles
 Normal termination of Gaussian 16 at Tue Dec  8 20:27:46 2020.
 Gaussian 16:  ES64L-G16RevA.03 25-Dec-2016

 ----------------------------------------------------------------------
 # B3LYP/6-311++G(d,p) empiricaldispersion=gd3bj scf=xqc pop=npa geom=c
 heck
 ----------------------------------------------------------------------

 -----------------------------------
 CID_53871421_JID_1503_Energie_anion
 -----------------------------------
 Structure from the checkpoint file:  "JID_1503.chk"
 Charge = -1 Multiplicity = 2

                         Standard orientation:
 ---------------------------------------------------------------------
 Center     Atomic      Atomic             Coordinates (Angstroms)
 Number     Number       Type             X           Y           Z
 ---------------------------------------------------------------------
      1          6           0        0.000345    2.127933    1.197912
      2          6           0        0.000105    1.302426   -0.111247
      3          6           0        1.251196    0.453678   -0.226256
      4          6           0        1.192420   -0.858329    0.039598
      5          8           0       -0.000139   -1.495470    0.337724
      6          6           0       -1.192618   -0.858063    0.039947
      7          6           0       -1.251168    0.453911   -0.225992
      8          6           0       -2.508181    1.179066   -0.621224
      9          6           0       -2.298989   -1.867466    0.063636
     10          6           0        2.298599   -1.867932    0.063603
     11          6           0        2.508358    1.178796   -0.621157
     12          1           0        0.000489    1.456650    2.062830
     13          1           0       -0.883857    2.771724    1.262238
     14          1           0        0.884583    2.771708    1.261911
     15          1           0        0.000108    2.025884   -0.944413
     16          1           0       -3.377776    0.523969   -0.705185
     17          1           0       -2.758685    1.970325    0.097857
     18          1           0       -2.371379    1.674136   -1.593182
     19          1           0       -2.153926   -2.617664   -0.723594
     20          1           0       -2.290959   -2.401795    1.021131
     21          1           0       -3.280702   -1.410999   -0.066060
     22          1           0        2.151055   -2.620502   -0.720866
     23          1           0        3.280062   -1.412158   -0.070249
     24          1           0        2.293183   -2.399324    1.022777
     25          1           0        2.759902    1.968643    0.099127
     26          1           0        3.377523    0.523377   -0.706917
     27          1           0        2.371078    1.675672   -1.592113
 ---------------------------------------------------------------------

 SCF Done:  E(UB3LYP) =  -466.062927995     A.U. after   30 cycles

 The electronic state is 2-A.
 Alpha  occ. eigenvalues --  -19.04915 -10.11690 -10.11689 -10.07517 -10.06517
 Alpha  occ. eigenvalues --  -10.06517 -10.06153 -10.06152 -10.05941 -10.05941
 Alpha  occ. eigenvalues --  -10.05251  -0.96868  -0.72451  -0.70881  -0.63797
 Alpha  occ. eigenvalues --   -0.63373  -0.60367  -0.56981  -0.55032  -0.50260
 Alpha  occ. eigenvalues --   -0.48339  -0.39964  -0.37565  -0.35781  -0.33558
 Alpha  occ. eigenvalues --   -0.32625  -0.32266  -0.31670  -0.30815  -0.30452
 Alpha  occ. eigenvalues --   -0.30184  -0.28964  -0.28587  -0.28193  -0.27234
 Alpha  occ. eigenvalues --   -0.27110  -0.26353  -0.24704  -0.21874  -0.21402
 Alpha  occ. eigenvalues --   -0.13689  -0.09796   0.04666
 Alpha virt. eigenvalues --    0.06739   0.07340   0.08485   0.08827   0.09437
 Alpha virt. eigenvalues --    0.10178   0.10516   0.11334   0.11516   0.11733
 Alpha virt. eigenvalues --    0.12148   0.12899   0.13987   0.14190   0.14670

  Beta  occ. eigenvalues --  -19.04906 -10.11687 -10.11686 -10.07506 -10.06487
  Beta  occ. eigenvalues --  -10.06487 -10.06152 -10.06151 -10.05903 -10.05903
  Beta  occ. eigenvalues --  -10.05224  -0.96855  -0.72431  -0.70862  -0.63759
  Beta  occ. eigenvalues --   -0.63332  -0.60314  -0.56923  -0.54974  -0.50209
  Beta  occ. eigenvalues --   -0.48296  -0.39938  -0.37519  -0.35751  -0.33516
  Beta  occ. eigenvalues --   -0.32581  -0.32232  -0.31629  -0.30781  -0.30414
  Beta  occ. eigenvalues --   -0.30145  -0.28929  -0.28547  -0.28158  -0.27203
  Beta  occ. eigenvalues --   -0.27078  -0.26319  -0.24666  -0.21841  -0.21378
  Beta  occ. eigenvalues --   -0.13667  -0.09774
  Beta virt. eigenvalues --    0.06808   0.07723   0.07997   0.09011   0.09374
  Beta virt. eigenvalues --    0.10131   0.10532   0.11032   0.11552   0.11773
  Beta virt. eigenvalues --    0.12363   0.12551   0.13269   0.14249   0.14461

 Mulliken charges and spin densities:
               1          2
     1  C    1.180647  -1.932706
     2  C   -1.930112   1.772070
     3  C   -0.262509   1.255563
     4  C   -1.250999   0.751074
     5  O   -0.103707   0.045977
     6  C   -1.253823   0.752766
     7  C   -0.258855   1.253535
     8  C    1.819195  -2.373847
     9  C    1.038876  -1.659861
    10  C    1.039981  -1.660325
    11  C    1.821806  -2.377064
    12  H   -0.073506   0.246855
    13  H   -0.144940   0.267606
    14  H   -0.145404   0.268089
    15  H   -0.004801   0.169268
    16  H   -0.212296   0.333248
    17  H   -0.227888   0.377628
    18  H   -0.312686   0.469166
    19  H   -0.116943   0.275287
    20  H   -0.101368   0.257829
    21  H   -0.264291   0.396952
    22  H   -0.117439   0.275641
    23  H   -0.264297   0.396959
    24  H   -0.101786   0.258304
    25  H   -0.227057   0.376852
    26  H   -0.212206   0.333131
    27  H   -0.313589   0.470002
 Sum of Mulliken charges =  -1.00000   1.00000

 Dipole moment (field-independent basis, Debye):
    X=             -0.0020    Y=             -1.5623    Z=              0.8854  Tot=              1.7957
 Quadrupole moment (field-independent basis, Debye-Ang):
   XX=           -132.0462   YY=           -116.2523   ZZ=           -101.5360
   XY=              0.0049   XZ=              0.0064   YZ=              0.6119

 Summary of Natural Population Analysis:

                                       Natural Population
                Natural  -----------------------------------------------
    Atom  No    Charge         Core      Valence    Rydberg      Total
 -----------------------------------------------------------------------
      C    1   -0.27839      0.99964     2.27382    0.00494     3.27839
      C    2   -0.12118      0.99954     2.10916    0.01248     3.12118
      C    3   -0.04566      0.99943     2.03393    0.01229     3.04566
      C    4    0.15989      0.99929     1.82833    0.01249     2.84011
      O    5   -0.27980      0.99984     3.26883    0.01112     4.27980
      C    6    0.15989      0.99929     1.82833    0.01249     2.84011
      C    7   -0.04566      0.99943     2.03394    0.01229     3.04566
      C    8   -0.29009      0.99963     2.28445    0.00601     3.29009
      C    9   -0.29812      0.99962     2.29346    0.00504     3.29812
      C   10   -0.29811      0.99962     2.29345    0.00504     3.29811
      C   11   -0.29009      0.99963     2.28445    0.00601     3.29009
      H   12    0.09812      0.00000     0.40046    0.00142     0.40188
      H   13    0.09790      0.00000     0.40084    0.00126     0.40210
      H   14    0.09790      0.00000     0.40084    0.00126     0.40210
      H   15    0.09596      0.00000     0.40157    0.00247     0.40404
      H   16    0.10275      0.00000     0.39602    0.00123     0.39725
      H   17    0.10109      0.00000     0.39733    0.00158     0.39891
      H   18    0.10164      0.00000     0.39681    0.00154     0.39836
      H   19    0.10368      0.00000     0.39459    0.00174     0.39632
      H   20    0.10487      0.00000     0.39339    0.00173     0.39513
      H   21    0.10470      0.00000     0.39415    0.00116     0.39530
      H   22    0.10368      0.00000     0.39458    0.00174     0.39632
      H   23    0.10470      0.00000     0.39414    0.00115     0.39530
      H   24    0.10486      0.00000     0.39340    0.00173     0.39514
      H   25    0.10109      0.00000     0.39733    0.00158     0.39891
      H   26    0.10275      0.00000     0.39602    0.00123     0.39725
      H   27    0.10164      0.00000     0.39682    0.00154     0.39836
 =======================================================================
   * Total *    0.00000     10.99498    30.88045    0.12457    42.00000

 Normal termination of Gaussian 16 at Tue Dec  8 20:37:02 2020.
