 Gaussian 16, Revision A.03,

 -----------------------------------------------------------
 # opt freq B3LYP/6-31G(d) empiricaldispersion=gd3bj scf=xqc
 -----------------------------------------------------------

 -------------------------------
 CID_148131665_JID_4589_neutraal
 -------------------------------
 Symbolic Z-matrix:
 Charge =  0 Multiplicity = 1

 SCF Done:  E(RB3LYP) =  -648.247870403     A.U. after   15 cycles
 SCF Done:  E(RB3LYP) =  -648.251516901     A.U. after   13 cycles
 SCF Done:  E(RB3LYP) =  -648.252277159     A.U. after   12 cycles
 SCF Done:  E(RB3LYP) =  -648.253019785     A.U. after   13 cycles
 SCF Done:  E(RB3LYP) =  -648.253782757     A.U. after   13 cycles
 SCF Done:  E(RB3LYP) =  -648.254083694     A.U. after   13 cycles
 SCF Done:  E(RB3LYP) =  -648.254435090     A.U. after   12 cycles
 SCF Done:  E(RB3LYP) =  -648.254631671     A.U. after   12 cycles
 SCF Done:  E(RB3LYP) =  -648.254792095     A.U. after   12 cycles
 SCF Done:  E(RB3LYP) =  -648.254994526     A.U. after   12 cycles
 SCF Done:  E(RB3LYP) =  -648.255368288     A.U. after    9 cycles
 SCF Done:  E(RB3LYP) =  -648.255368711     A.U. after   10 cycles
 SCF Done:  E(RB3LYP) =  -648.255368779     A.U. after    8 cycles
 SCF Done:  E(RB3LYP) =  -648.255368797     A.U. after    8 cycles
 SCF Done:  E(RB3LYP) =  -648.255368796     A.U. after    8 cycles
 Optimization completed.
    -- Stationary point found.
 Normal termination of Gaussian 16 at Thu Dec 10 10:16:44 2020.

 --------------------------------------------------------------------
 #N Geom=AllCheck Guess=TCheck SCRF=Check GenChk RB3LYP/6-31G(d) Freq
 --------------------------------------------------------------------

 Structure from the checkpoint file:  "JID_4589.chk"
 -------------------------------
 CID_148131665_JID_4589_neutraal
 -------------------------------
 Charge =  0 Multiplicity = 1

 SCF Done:  E(RB3LYP) =  -648.255368796     A.U. after    1 cycles

  Exact polarizability: 163.806  -2.989 126.888   5.598   5.605  72.905
 Approx polarizability: 219.232   0.743 224.219   8.754   6.157 112.497

                      1                      2                      3
                      A                      A                      A
 Frequencies --     15.2179                21.5398                44.6485
 Red. masses --      4.4160                 4.8785                 6.8776
 Frc consts  --      0.0006                 0.0013                 0.0081
 IR Inten    --      3.1176                 0.8015                 0.2522

                      4                      5                      6
                      A                      A                      A
 Frequencies --     86.3604               133.7181               143.2667
 Red. masses --      3.4240                 3.1528                 4.7263
 Frc consts  --      0.0150                 0.0332                 0.0572
 IR Inten    --      4.7955                 1.4341                 0.8764

                      7                      8                      9
                      A                      A                      A
 Frequencies --    171.8420               207.1752               250.0427
 Red. masses --      4.2447                 3.0302                 1.3714
 Frc consts  --      0.0739                 0.0766                 0.0505
 IR Inten    --      0.3293                 0.8854                 1.4885

                     10                     11                     12
                      A                      A                      A
 Frequencies --    277.1952               303.3971               354.5769
 Red. masses --      2.5485                 3.8419                 2.5454
 Frc consts  --      0.1154                 0.2084                 0.1885
 IR Inten    --      1.9640                 4.1456                 2.9963

                     13                     14                     15
                      A                      A                      A
 Frequencies --    360.9948               425.3186               427.7324
 Red. masses --      5.1712                 3.1411                 3.2092
 Frc consts  --      0.3971                 0.3348                 0.3459
 IR Inten    --      5.7541                 0.6795                23.9506

                     16                     17                     18
                      A                      A                      A
 Frequencies --    480.7742               518.4584               557.4770
 Red. masses --      3.9331                 3.3104                 4.0792
 Frc consts  --      0.5356                 0.5243                 0.7469
 IR Inten    --      4.6781                 6.4386                 9.1076

                     19                     20                     21
                      A                      A                      A
 Frequencies --    571.9316               642.8944               655.2535
 Red. masses --      2.9863                 2.0039                 4.7026
 Frc consts  --      0.5755                 0.4880                 1.1896
 IR Inten    --     13.6191                64.7980                 9.2867

                     22                     23                     24
                      A                      A                      A
 Frequencies --    715.4875               737.0274               766.3854
 Red. masses --      3.2868                 2.8805                 4.3209
 Frc consts  --      0.9913                 0.9219                 1.4953
 IR Inten    --     31.5651                81.0399                10.7447

                     25                     26                     27
                      A                      A                      A
 Frequencies --    828.0272               833.7892               843.0911
 Red. masses --      1.3117                 2.9997                 1.8003
 Frc consts  --      0.5299                 1.2287                 0.7539
 IR Inten    --      7.7108                14.1001                30.9409

                     28                     29                     30
                      A                      A                      A
 Frequencies --    858.8683               881.1074               946.7120
 Red. masses --      3.9978                 3.0589                 1.2966
 Frc consts  --      1.7375                 1.3992                 0.6847
 IR Inten    --     12.4424                10.1302                 0.9571

                     31                     32                     33
                      A                      A                      A
 Frequencies --    957.6791              1002.2166              1033.9661
 Red. masses --      1.3055                 1.8692                 2.7413
 Frc consts  --      0.7054                 1.1062                 1.7267
 IR Inten    --      0.4642                12.6477                 1.0213

                     34                     35                     36
                      A                      A                      A
 Frequencies --   1080.9550              1126.9860              1149.4900
 Red. masses --      6.3055                 3.3732                 1.3079
 Frc consts  --      4.3409                 2.5242                 1.0182
 IR Inten    --     53.3330                16.4076                10.7212

                     37                     38                     39
                      A                      A                      A
 Frequencies --   1159.7276              1186.3563              1212.3140
 Red. masses --      1.0904                 1.2709                 1.1757
 Frc consts  --      0.8641                 1.0539                 1.0181
 IR Inten    --     74.1679                 0.7640                33.4235

                     40                     41                     42
                      A                      A                      A
 Frequencies --   1219.4494              1232.6140              1243.1236
 Red. masses --      1.3994                 1.7203                 1.6592
 Frc consts  --      1.2260                 1.5400                 1.5107
 IR Inten    --     11.9451                56.0599                60.2395

                     43                     44                     45
                      A                      A                      A
 Frequencies --   1279.3563              1308.5172              1347.2673
 Red. masses --      1.2810                 4.4431                 1.3153
 Frc consts  --      1.2353                 4.4823                 1.4066
 IR Inten    --     21.9624               274.4251                 7.6555

                     46                     47                     48
                      A                      A                      A
 Frequencies --   1356.3402              1379.7819              1419.0524
 Red. masses --      2.9469                 2.3718                 1.3847
 Frc consts  --      3.1941                 2.6604                 1.6428
 IR Inten    --     72.6617               103.2252                30.2829

                     49                     50                     51
                      A                      A                      A
 Frequencies --   1424.3258              1475.6833              1490.2283
 Red. masses --      1.8106                 2.6518                 1.6598
 Frc consts  --      2.1642                 3.4023                 2.1717
 IR Inten    --     27.7416                 1.0890                80.6735

                     52                     53                     54
                      A                      A                      A
 Frequencies --   1501.1981              1521.9012              1529.3224
 Red. masses --      1.2049                 1.0475                 1.0904
 Frc consts  --      1.5998                 1.4294                 1.5026
 IR Inten    --      9.8171                 5.9446                 1.8062

                     55                     56                     57
                      A                      A                      A
 Frequencies --   1535.1801              1571.4154              1639.1638
 Red. masses --      1.0624                 2.4334                 6.5076
 Frc consts  --      1.4753                 3.5403                10.3018
 IR Inten    --     39.2278               103.1352                11.4702

                     58                     59                     60
                      A                      A                      A
 Frequencies --   1678.5766              1711.3787              1775.4858
 Red. masses --      5.6935                 9.3160                 8.2672
 Frc consts  --      9.4518                16.0757                15.3547
 IR Inten    --     68.3636                55.3410               341.5764

                     61                     62                     63
                      A                      A                      A
 Frequencies --   3028.5232              3051.5602              3088.3498
 Red. masses --      1.0347                 1.0690                 1.1068
 Frc consts  --      5.5917                 5.8650                 6.2197
 IR Inten    --     50.8951                32.6487                41.2711

                     64                     65                     66
                      A                      A                      A
 Frequencies --   3118.2823              3141.9643              3163.0518
 Red. masses --      1.0948                 1.0896                 1.0999
 Frc consts  --      6.2721                 6.3376                 6.4836
 IR Inten    --      5.2478                18.5865                25.9307

                     67                     68                     69
                      A                      A                      A
 Frequencies --   3181.9816              3190.3001              3219.1882
 Red. masses --      1.0890                 1.0891                 1.0930
 Frc consts  --      6.4964                 6.5310                 6.6735
 IR Inten    --     14.7476                 9.9319                 7.1470

                     70                     71                     72
                      A                      A                      A
 Frequencies --   3231.5976              3397.3931              3564.6102
 Red. masses --      1.0913                 1.0741                 1.0752
 Frc consts  --      6.7150                 7.3043                 8.0492
 IR Inten    --      8.9690                 4.3456                21.4267

 - Thermochemistry -
 -------------------
 Temperature   298.150 Kelvin.  Pressure   1.00000 Atm.
 Atom     1 has atomic number  6 and mass  12.00000

 Molecular mass:   192.08988 amu.
 Principal axes and moments of inertia in atomic units:
                           1         2         3
     Eigenvalues --  1061.577716346.482326868.57888
           X            0.99987  -0.01596  -0.00010
           Y            0.01595   0.99877   0.04703
           Z           -0.00066  -0.04703   0.99889
 This molecule is an asymmetric top.
 Rotational symmetry number  1.
 Warning -- assumption of classical behavior for rotation
           may cause significant error
 Rotational temperatures (Kelvin)      0.08159     0.01365     0.01261
 Rotational constants (GHZ):           1.70006     0.28437     0.26275
 Zero-point vibrational energy     556180.8 (Joules/Mol)
                                  132.93040 (Kcal/Mol)
 Warning -- explicit consideration of  19 degrees of freedom as
           vibrations may cause significant error
 Vibrational temperatures:     21.90    30.99    64.24   124.25   192.39
          (Kelvin)            206.13   247.24   298.08   359.76   398.82
                              436.52   510.16   519.39   611.94   615.41
                              691.73   745.95   802.09   822.88   924.98
                              942.76  1029.43  1060.42  1102.66  1191.35
                             1199.64  1213.02  1235.72  1267.72  1362.11
                             1377.89  1441.97  1487.65  1555.25  1621.48
                             1653.86  1668.59  1706.90  1744.25  1754.52
                             1773.46  1788.58  1840.71  1882.66  1938.42
                             1951.47  1985.20  2041.70  2049.29  2123.18
                             2144.11  2159.89  2189.68  2200.35  2208.78
                             2260.92  2358.39  2415.10  2462.29  2554.53
                             4357.37  4390.51  4443.45  4486.51  4520.59
                             4550.93  4578.16  4590.13  4631.69  4649.55
                             4888.09  5128.68

 Zero-point correction=                           0.211838 (Hartree/Particle)
 Thermal correction to Energy=                    0.225323
 Thermal correction to Enthalpy=                  0.226267
 Thermal correction to Gibbs Free Energy=         0.168805
 Sum of electronic and zero-point Energies=           -648.043531
 Sum of electronic and thermal Energies=              -648.030045
 Sum of electronic and thermal Enthalpies=            -648.029101
 Sum of electronic and thermal Free Energies=         -648.086564

                     E (Thermal)             CV                S
                      KCal/Mol        Cal/Mol-Kelvin    Cal/Mol-Kelvin
 Total                  141.393             49.292            120.941
 Electronic               0.000              0.000              0.000
 Translational            0.889              2.981             41.664
 Rotational               0.889              2.981             32.204
 Vibrational            139.615             43.330             47.073
 Vibration     1          0.593              1.986              7.177
 Vibration     2          0.593              1.985              6.487
 Vibration     3          0.595              1.980              5.041
 Vibration     4          0.601              1.959              3.741
 Vibration     5          0.613              1.920              2.892
 Vibration     6          0.616              1.910              2.760
 Vibration     7          0.626              1.877              2.415
 Vibration     8          0.641              1.830              2.068
 Vibration     9          0.663              1.763              1.730
 Vibration    10          0.678              1.716              1.551
 Vibration    11          0.695              1.667              1.398
 Vibration    12          0.730              1.566              1.146
 Vibration    13          0.735              1.553              1.118
 Vibration    14          0.787              1.415              0.874
 Vibration    15          0.789              1.410              0.866
 Vibration    16          0.837              1.293              0.708
 Vibration    17          0.873              1.209              0.614
 Vibration    18          0.913              1.123              0.529
 Vibration    19          0.928              1.092              0.501

 Optimization completed.
    -- Stationary point found.
 Normal termination of Gaussian 16 at Thu Dec 10 10:22:36 2020.

 ----------------------------------------------------------------------
 # B3LYP/6-311++G(d,p) empiricaldispersion=gd3bj scf=xqc pop=npa geom=c
 heck
 ----------------------------------------------------------------------

 ---------------------------------------
 CID_148131665_JID_4589_Energie_neutraal
 ---------------------------------------
 Structure from the checkpoint file:  "JID_4589.chk"
 Charge =  0 Multiplicity = 1

 SCF Done:  E(RB3LYP) =  -648.444078445     A.U. after   17 cycles
 Normal termination of Gaussian 16 at Thu Dec 10 10:25:13 2020.

 ----------------------------------------------------------------------
 # B3LYP/6-311++G(d,p) empiricaldispersion=gd3bj scf=xqc pop=npa geom=c
 heck
 ----------------------------------------------------------------------

 -------------------------------------
 CID_148131665_JID_4589_Energie_kation
 -------------------------------------
 Structure from the checkpoint file:  "JID_4589.chk"
 Charge =  1 Multiplicity = 2

 SCF Done:  E(UB3LYP) =  -648.140891490     A.U. after   28 cycles
 Normal termination of Gaussian 16 at Thu Dec 10 10:31:28 2020.
 Gaussian 16:  ES64L-G16RevA.03 25-Dec-2016

 ----------------------------------------------------------------------
 # B3LYP/6-311++G(d,p) empiricaldispersion=gd3bj scf=xqc pop=npa geom=c
 heck
 ----------------------------------------------------------------------

 ------------------------------------
 CID_148131665_JID_4589_Energie_anion
 ------------------------------------
 Structure from the checkpoint file:  "JID_4589.chk"
 Charge = -1 Multiplicity = 2

                         Standard orientation:
 ---------------------------------------------------------------------
 Center     Atomic      Atomic             Coordinates (Angstroms)
 Number     Number       Type             X           Y           Z
 ---------------------------------------------------------------------
      1          6           0        4.649642   -1.356229   -0.341817
      2          8           0        4.179420   -0.050439   -0.047060
      3          6           0        2.832788    0.154967   -0.027137
      4          6           0        2.418904    1.459662    0.273012
      5          6           0        1.065063    1.764912    0.322767
      6          6           0        0.092829    0.789267    0.069096
      7          6           0        0.518142   -0.508018   -0.225436
      8          6           0        1.873403   -0.834638   -0.275330
      9          6           0       -1.379956    1.139813    0.096246
     10          7           0       -2.165843    0.185283    0.882058
     11          6           0       -3.055032   -0.744348    0.410552
     12          8           0       -3.344152   -1.762678    1.026748
     13          6           0       -3.786415   -0.447009   -0.880911
     14          7           0       -4.293786    0.663225   -1.244088
     15          1           0        5.738463   -1.297371   -0.305645
     16          1           0        4.335707   -1.680047   -1.342638
     17          1           0        4.299716   -2.086246    0.399614
     18          1           0        3.175875    2.211373    0.470905
     19          1           0        0.756871    2.779755    0.562925
     20          1           0       -0.216867   -1.286798   -0.411222
     21          1           0        2.166672   -1.852085   -0.504247
     22          1           0       -1.510487    2.149439    0.504918
     23          1           0       -1.790147    1.152966   -0.916951
     24          1           0       -1.749333   -0.099408    1.763048
     25          1           0       -3.975828   -1.334069   -1.490130
     26          1           0       -4.071598    1.397592   -0.560128
 ---------------------------------------------------------------------

 SCF Done:  E(UB3LYP) =  -648.448184982     A.U. after   33 cycles
 SCF Done:  E(UB3LYP) =  -648.448184982     a.u. after    1 cycles

 The electronic state is 2-A.
 Alpha  occ. eigenvalues --  -19.06357 -18.95737 -14.21687 -14.15707 -10.14140
 Alpha  occ. eigenvalues --  -10.13400 -10.13222 -10.10963 -10.08205 -10.08153
 Alpha  occ. eigenvalues --  -10.07900 -10.07811 -10.07704 -10.06672  -0.98015
 Alpha  occ. eigenvalues --   -0.91059  -0.81013  -0.76607  -0.75909  -0.67603
 Alpha  occ. eigenvalues --   -0.65894  -0.62218  -0.57493  -0.52810  -0.52175
 Alpha  occ. eigenvalues --   -0.49136  -0.45693  -0.44600  -0.40287  -0.39407
 Alpha  occ. eigenvalues --   -0.38080  -0.37450  -0.35775  -0.35553  -0.33362
 Alpha  occ. eigenvalues --   -0.32786  -0.31346  -0.30095  -0.29346  -0.28605
 Alpha  occ. eigenvalues --   -0.27499  -0.27058  -0.25904  -0.23810  -0.22963
 Alpha  occ. eigenvalues --   -0.19617  -0.16818  -0.16644  -0.15103  -0.12613
 Alpha  occ. eigenvalues --   -0.11333   0.04038
 Alpha virt. eigenvalues --    0.05282   0.07263   0.07524   0.08132   0.08925
 Alpha virt. eigenvalues --    0.09244   0.09587   0.10518   0.10929   0.11422
 Alpha virt. eigenvalues --    0.12164   0.12419   0.13311   0.14737   0.15268

  Beta  occ. eigenvalues --  -19.06350 -18.95510 -14.21660 -14.15291 -10.14151
  Beta  occ. eigenvalues --  -10.13258 -10.13180 -10.10960 -10.08201 -10.08126
  Beta  occ. eigenvalues --  -10.07881 -10.07765 -10.07665 -10.06482  -0.97999
  Beta  occ. eigenvalues --   -0.90671  -0.80852  -0.76202  -0.75519  -0.67553
  Beta  occ. eigenvalues --   -0.65801  -0.62149  -0.57408  -0.52208  -0.51918
  Beta  occ. eigenvalues --   -0.49100  -0.45392  -0.44562  -0.40240  -0.39341
  Beta  occ. eigenvalues --   -0.38047  -0.37191  -0.35686  -0.35471  -0.33300
  Beta  occ. eigenvalues --   -0.32705  -0.31099  -0.29814  -0.29023  -0.28465
  Beta  occ. eigenvalues --   -0.27353  -0.26991  -0.25306  -0.23763  -0.22855
  Beta  occ. eigenvalues --   -0.17882  -0.16379  -0.16165  -0.14581  -0.12407
  Beta  occ. eigenvalues --   -0.10860
  Beta virt. eigenvalues --    0.06304   0.07325   0.07586   0.08555   0.08759
  Beta virt. eigenvalues --    0.09294   0.09799   0.09966   0.10605   0.11033
  Beta virt. eigenvalues --    0.11462   0.12087   0.12558   0.13273   0.14668

 Mulliken charges and spin densities:
               1          2
     1  C    0.692164  -1.015615
     2  O   -0.200457   0.045568
     3  C   -1.280951   0.558895
     4  C   -0.371601  -0.074045
     5  C   -0.520875   0.292623
     6  C    1.907458  -0.682132
     7  C    0.056490  -0.527799
     8  C   -0.097134   0.192670
     9  C   -0.579093   0.042965
    10  N   -0.067358  -0.021168
    11  C   -0.159910   0.155883
    12  O   -0.379854   0.073508
    13  C   -0.062692   0.099311
    14  N   -0.345365   0.220112
    15  H   -0.645262   0.820983
    16  H   -0.126425   0.276693
    17  H   -0.156166   0.310315
    18  H    0.142082   0.021101
    19  H    0.092837   0.030357
    20  H    0.050261   0.127745
    21  H    0.143921   0.057732
    22  H    0.160724   0.034805
    23  H    0.171611  -0.036334
    24  H    0.249943   0.010993
    25  H    0.154230  -0.011592
    26  H    0.171423  -0.003575
 Sum of Mulliken charges =  -1.00000   1.00000

 Dipole moment (field-independent basis, Debye):
    X=              2.9196    Y=              4.3140    Z=              1.3989  Tot=              5.3936
 Quadrupole moment (field-independent basis, Debye-Ang):
   XX=           -196.2803   YY=           -103.9970   ZZ=           -103.3222
   XY=              3.3018   XZ=             -2.6452   YZ=              6.8906

 Summary of Natural Population Analysis:

                                       Natural Population
                Natural  -----------------------------------------------
    Atom  No    Charge         Core      Valence    Rydberg      Total
 -----------------------------------------------------------------------
      C    1   -0.10120      0.99960     2.09232    0.00928     3.10120
      O    2   -0.27478      0.99985     3.26494    0.00999     4.27478
      C    3    0.15571      0.99939     1.83106    0.01384     2.84429
      C    4   -0.11461      0.99953     2.10629    0.00879     3.11461
      C    5   -0.08981      0.99953     2.08130    0.00898     3.08981
      C    6   -0.04100      0.99950     2.03294    0.00856     3.04100
      C    7   -0.08587      0.99953     2.07774    0.00860     3.08587
      C    8   -0.13604      0.99952     2.12776    0.00876     3.13604
      C    9   -0.09592      0.99958     2.08507    0.01127     3.09592
      N   10   -0.32247      0.99968     2.81224    0.01055     3.82247
      C   11    0.32709      0.99965     1.65041    0.02285     2.67291
      O   12   -0.30245      0.99988     3.29608    0.00649     4.30245
      C   13    0.04665      0.99967     1.93646    0.01721     2.95335
      N   14   -0.25750      0.99975     2.74684    0.01091     3.75750
      H   15    0.09525      0.00000     0.40314    0.00162     0.40475
      H   16    0.08437      0.00000     0.41407    0.00156     0.41563
      H   17    0.08505      0.00000     0.41339    0.00155     0.41495
      H   18    0.10224      0.00000     0.39643    0.00133     0.39776
      H   19    0.09690      0.00000     0.40190    0.00120     0.40310
      H   20    0.10825      0.00000     0.39052    0.00123     0.39175
      H   21    0.10503      0.00000     0.39388    0.00108     0.39497
      H   22    0.08937      0.00000     0.40930    0.00133     0.41063
      H   23    0.11392      0.00000     0.38451    0.00157     0.38608
      H   24    0.18717      0.00000     0.30958    0.00325     0.31283
      H   25    0.07643      0.00000     0.42185    0.00173     0.42357
      H   26    0.14823      0.00000     0.34958    0.00219     0.35177
 =======================================================================
   * Total *    0.00000     13.99466    36.82961    0.17574    51.00000

 Normal termination of Gaussian 16 at Thu Dec 10 10:43:30 2020.
