 Gaussian 16, Revision A.03,

 -----------------------------------------------------------
 # opt freq B3LYP/6-31G(d) empiricaldispersion=gd3bj scf=xqc
 -----------------------------------------------------------

 -------------------------------
 CID_114796629_JID_2712_neutraal
 -------------------------------
 Symbolic Z-matrix:
 Charge =  0 Multiplicity = 1

 SCF Done:  E(RB3LYP) =  -574.481515035     A.U. after   14 cycles
 SCF Done:  E(RB3LYP) =  -574.484926568     A.U. after   12 cycles
 SCF Done:  E(RB3LYP) =  -574.485155029     A.U. after   11 cycles
 SCF Done:  E(RB3LYP) =  -574.485268661     A.U. after   10 cycles
 SCF Done:  E(RB3LYP) =  -574.485311283     A.U. after    9 cycles
 SCF Done:  E(RB3LYP) =  -574.485311927     A.U. after    9 cycles
 SCF Done:  E(RB3LYP) =  -574.485323666     A.U. after    9 cycles
 SCF Done:  E(RB3LYP) =  -574.485332353     A.U. after   10 cycles
 SCF Done:  E(RB3LYP) =  -574.485338697     A.U. after   10 cycles
 SCF Done:  E(RB3LYP) =  -574.485341045     A.U. after    9 cycles
 SCF Done:  E(RB3LYP) =  -574.485409696     A.U. after    9 cycles
 SCF Done:  E(RB3LYP) =  -574.485411321     A.U. after    9 cycles
 SCF Done:  E(RB3LYP) =  -574.485410600     A.U. after    9 cycles
 SCF Done:  E(RB3LYP) =  -574.485411664     A.U. after    9 cycles
 SCF Done:  E(RB3LYP) =  -574.485411769     A.U. after    8 cycles
 SCF Done:  E(RB3LYP) =  -574.485411856     A.U. after    7 cycles
 Optimization completed.
    -- Stationary point found.
 Normal termination of Gaussian 16 at Wed Dec  9 18:26:35 2020.

 --------------------------------------------------------------------
 #N Geom=AllCheck Guess=TCheck SCRF=Check GenChk RB3LYP/6-31G(d) Freq
 --------------------------------------------------------------------

 Structure from the checkpoint file:  "JID_2712.chk"
 -------------------------------
 CID_114796629_JID_2712_neutraal
 -------------------------------
 Charge =  0 Multiplicity = 1

 SCF Done:  E(RB3LYP) =  -574.485411856     A.U. after    1 cycles

  Exact polarizability: 113.624  -3.494 107.356  -2.621  -0.451  79.418
 Approx polarizability: 140.024  -0.436 150.336  -6.109  -4.220 118.351

                      1                      2                      3
                      A                      A                      A
 Frequencies --     23.3553                36.2875                50.4571
 Red. masses --      4.6830                 3.4489                 3.4361
 Frc consts  --      0.0015                 0.0027                 0.0052
 IR Inten    --      1.5737                 0.7197                 1.4963

                      4                      5                      6
                      A                      A                      A
 Frequencies --     84.0341                86.8761               132.0704
 Red. masses --      1.3049                 1.9546                 4.1624
 Frc consts  --      0.0054                 0.0087                 0.0428
 IR Inten    --      0.7170                 5.1439                 5.3347

                      7                      8                      9
                      A                      A                      A
 Frequencies --    140.1600               184.6073               215.4917
 Red. masses --      2.8198                 3.1658                 3.2645
 Frc consts  --      0.0326                 0.0636                 0.0893
 IR Inten    --      4.1152                 2.1371                 5.8829

                     10                     11                     12
                      A                      A                      A
 Frequencies --    249.7069               274.3273               319.0165
 Red. masses --      2.1035                 3.8979                 2.6608
 Frc consts  --      0.0773                 0.1728                 0.1595
 IR Inten    --      0.9907                 4.4599                 1.7299

                     13                     14                     15
                      A                      A                      A
 Frequencies --    391.7849               473.9850               484.2629
 Red. masses --      1.9170                 1.2878                 2.2785
 Frc consts  --      0.1734                 0.1705                 0.3148
 IR Inten    --      0.0937               100.1323                 8.1646

                     16                     17                     18
                      A                      A                      A
 Frequencies --    568.8910               590.3573               646.2865
 Red. masses --      2.2665                 3.6969                 3.4735
 Frc consts  --      0.4322                 0.7591                 0.8548
 IR Inten    --     64.8628                 5.7090                12.4382

                     19                     20                     21
                      A                      A                      A
 Frequencies --    685.4697               766.0437               784.4268
 Red. masses --      2.3318                 9.7714                 2.4195
 Frc consts  --      0.6455                 3.3784                 0.8772
 IR Inten    --      7.6766                29.1003                 1.3918

                     22                     23                     24
                      A                      A                      A
 Frequencies --    814.5170               858.7108               871.8345
 Red. masses --      2.1679                 1.6995                 2.8530
 Frc consts  --      0.8474                 0.7384                 1.2777
 IR Inten    --     35.6320                 3.1814                 2.8884

                     25                     26                     27
                      A                      A                      A
 Frequencies --    921.1499               939.2310               953.0724
 Red. masses --      2.2291                 2.6089                 2.2294
 Frc consts  --      1.1144                 1.3560                 1.1932
 IR Inten    --      4.5647                 0.7753                 5.8055

                     28                     29                     30
                      A                      A                      A
 Frequencies --    968.9446              1009.0111              1033.7562
 Red. masses --      2.9026                 1.5283                 2.2031
 Frc consts  --      1.6056                 0.9167                 1.3871
 IR Inten    --      1.8035                 2.5575                12.7080

                     31                     32                     33
                      A                      A                      A
 Frequencies --   1053.3012              1087.3393              1108.8849
 Red. masses --      1.6551                 2.1152                 1.9268
 Frc consts  --      1.0819                 1.4735                 1.3959
 IR Inten    --      5.1549                 9.8437                 1.1640

                     34                     35                     36
                      A                      A                      A
 Frequencies --   1125.2461              1137.6644              1163.3508
 Red. masses --      2.0614                 2.7085                 1.3481
 Frc consts  --      1.5378                 2.0655                 1.0750
 IR Inten    --     29.9740               197.1967                12.3762

                     37                     38                     39
                      A                      A                      A
 Frequencies --   1170.9564              1205.9575              1208.5453
 Red. masses --      2.0774                 1.2909                 2.1195
 Frc consts  --      1.6782                 1.1061                 1.8239
 IR Inten    --     19.8562                 0.2316                11.6283

                     40                     41                     42
                      A                      A                      A
 Frequencies --   1217.9515              1249.0601              1274.4127
 Red. masses --      1.3122                 1.3297                 1.3420
 Frc consts  --      1.1469                 1.2223                 1.2842
 IR Inten    --      1.1961                 5.0791                 4.0528

                     43                     44                     45
                      A                      A                      A
 Frequencies --   1284.4009              1307.1242              1334.2878
 Red. masses --      1.2200                 1.1830                 1.2322
 Frc consts  --      1.1858                 1.1909                 1.2925
 IR Inten    --      7.8467                 3.0949                 4.4546

                     46                     47                     48
                      A                      A                      A
 Frequencies --   1349.1951              1360.0550              1378.4154
 Red. masses --      1.3435                 1.8743                 1.5223
 Frc consts  --      1.4409                 2.0427                 1.7042
 IR Inten    --      2.4669               320.4062                86.6296

                     49                     50                     51
                      A                      A                      A
 Frequencies --   1413.3557              1422.0102              1436.1663
 Red. masses --      1.4617                 1.5121                 1.5202
 Frc consts  --      1.7203                 1.8016                 1.8474
 IR Inten    --      0.4768                 3.6914                21.1721

                     52                     53                     54
                      A                      A                      A
 Frequencies --   1455.1927              1478.2249              1499.5931
 Red. masses --      1.3698                 1.5743                 1.2399
 Frc consts  --      1.7090                 2.0268                 1.6428
 IR Inten    --      6.1129                25.4233                59.3207

                     55                     56                     57
                      A                      A                      A
 Frequencies --   1510.9251              1519.1319              1522.9853
 Red. masses --      1.0855                 1.0951                 1.1034
 Frc consts  --      1.4600                 1.4891                 1.5080
 IR Inten    --      4.3468                15.2598                 9.1520

                     58                     59                     60
                      A                      A                      A
 Frequencies --   1540.5298              1548.0569              1550.8405
 Red. masses --      1.0890                 1.0946                 1.0905
 Frc consts  --      1.5227                 1.5455                 1.5453
 IR Inten    --      4.2569                35.4314                 7.9406

                     61                     62                     63
                      A                      A                      A
 Frequencies --   1565.1800              1831.6040              2955.1360
 Red. masses --      1.0973                 9.1746                 1.0737
 Frc consts  --      1.5838                18.1343                 5.5243
 IR Inten    --      6.2973               425.6492               102.8232

                     64                     65                     66
                      A                      A                      A
 Frequencies --   3018.6507              3038.6095              3041.4173
 Red. masses --      1.0585                 1.1019                 1.0465
 Frc consts  --      5.6828                 5.9941                 5.7033
 IR Inten    --     78.9905                30.3578                48.7312

                     67                     68                     69
                      A                      A                      A
 Frequencies --   3044.8739              3055.2923              3063.6948
 Red. masses --      1.0679                 1.0844                 1.0878
 Frc consts  --      5.8331                 5.9639                 6.0160
 IR Inten    --      9.9658                16.7021                63.4781

                     70                     71                     72
                      A                      A                      A
 Frequencies --   3069.1092              3071.1085              3102.0277
 Red. masses --      1.0661                 1.0707                 1.0987
 Frc consts  --      5.9166                 5.9501                 6.2288
 IR Inten    --     48.3043                46.5215                25.9467

                     73                     74                     75
                      A                      A                      A
 Frequencies --   3115.1190              3118.1959              3155.6177
 Red. masses --      1.1067                 1.0897                 1.1032
 Frc consts  --      6.3272                 6.2425                 6.4724
 IR Inten    --     32.3821                28.9484                32.3455

                     76                     77                     78
                      A                      A                      A
 Frequencies --   3156.0533              3546.3989              3649.5959
 Red. masses --      1.0951                 1.0758                 1.0770
 Frc consts  --      6.4266                 7.9715                 8.4520
 IR Inten    --      4.9618                 0.7522                40.2305

 - Thermochemistry -
 -------------------
 Temperature   298.150 Kelvin.  Pressure   1.00000 Atm.
 Atom     1 has atomic number  6 and mass  12.00000

 Molecular mass:   172.12118 amu.
 Principal axes and moments of inertia in atomic units:
                           1         2         3
     Eigenvalues --  1098.614963455.786474157.25344
           X            0.99974  -0.02170   0.00679
           Y            0.02166   0.99974   0.00643
           Z           -0.00693  -0.00628   0.99996
 This molecule is an asymmetric top.
 Rotational symmetry number  1.
 Warning -- assumption of classical behavior for rotation
           may cause significant error
 Rotational temperatures (Kelvin)      0.07884     0.02506     0.02083
 Rotational constants (GHZ):           1.64274     0.52224     0.43412
 Zero-point vibrational energy     652377.3 (Joules/Mol)
                                  155.92192 (Kcal/Mol)
 Warning -- explicit consideration of  17 degrees of freedom as
           vibrations may cause significant error
 Vibrational temperatures:     33.60    52.21    72.60   120.91   125.00
          (Kelvin)            190.02   201.66   265.61   310.04   359.27
                              394.70   458.99   563.69   681.96   696.75
                              818.51   849.39   929.86   986.24  1102.17
                             1128.62  1171.91  1235.49  1254.38  1325.33
                             1351.34  1371.26  1394.10  1451.74  1487.34
                             1515.47  1564.44  1595.44  1618.98  1636.85
                             1673.80  1684.75  1735.10  1738.83  1752.36
                             1797.12  1833.60  1847.97  1880.66  1919.74
                             1941.19  1956.82  1983.23  2033.50  2045.96
                             2066.32  2093.70  2126.84  2157.58  2173.88
                             2185.69  2191.24  2216.48  2227.31  2231.31
                             2251.94  2635.27  4251.78  4343.17  4371.88
                             4375.92  4380.89  4395.88  4407.97  4415.76
                             4418.64  4463.13  4481.96  4486.39  4540.23
                             4540.86  5102.48  5250.95

 Zero-point correction=                           0.248477 (Hartree/Particle)
 Thermal correction to Energy=                    0.261598
 Thermal correction to Enthalpy=                  0.262542
 Thermal correction to Gibbs Free Energy=         0.206580
 Sum of electronic and zero-point Energies=           -574.236934
 Sum of electronic and thermal Energies=              -574.223814
 Sum of electronic and thermal Enthalpies=            -574.222870
 Sum of electronic and thermal Free Energies=         -574.278831

                     E (Thermal)             CV                S
                      KCal/Mol        Cal/Mol-Kelvin    Cal/Mol-Kelvin
 Total                  164.155             46.661            117.781
 Electronic               0.000              0.000              0.000
 Translational            0.889              2.981             41.337
 Rotational               0.889              2.981             31.135
 Vibrational            162.378             40.700             45.309
 Vibration     1          0.593              1.985              6.326
 Vibration     2          0.594              1.982              5.452
 Vibration     3          0.595              1.977              4.799
 Vibration     4          0.601              1.960              3.794
 Vibration     5          0.601              1.958              3.729
 Vibration     6          0.612              1.921              2.916
 Vibration     7          0.615              1.913              2.802
 Vibration     8          0.631              1.861              2.281
 Vibration     9          0.645              1.817              1.997
 Vibration    10          0.663              1.763              1.733
 Vibration    11          0.677              1.721              1.569
 Vibration    12          0.705              1.637              1.315
 Vibration    13          0.759              1.488              0.993
 Vibration    14          0.831              1.308              0.726
 Vibration    15          0.840              1.285              0.699
 Vibration    16          0.925              1.099              0.506
 Vibration    17          0.948              1.052              0.467

                           ! Non-Optimized Parameters !
 Normal termination of Gaussian 16 at Wed Dec  9 18:33:14 2020.

 ----------------------------------------------------------------------
 # B3LYP/6-311++G(d,p) empiricaldispersion=gd3bj scf=xqc pop=npa geom=c
 heck
 ----------------------------------------------------------------------

 ---------------------------------------
 CID_114796629_JID_2712_Energie_neutraal
 ---------------------------------------
 Structure from the checkpoint file:  "JID_2712.chk"
 Charge =  0 Multiplicity = 1

 SCF Done:  E(RB3LYP) =  -574.660279577     A.U. after   14 cycles
 Normal termination of Gaussian 16 at Wed Dec  9 18:35:41 2020.

 ----------------------------------------------------------------------
 # B3LYP/6-311++G(d,p) empiricaldispersion=gd3bj scf=xqc pop=npa geom=c
 heck
 ----------------------------------------------------------------------

 -------------------------------------
 CID_114796629_JID_2712_Energie_kation
 -------------------------------------
 Structure from the checkpoint file:  "JID_2712.chk"
 Charge =  1 Multiplicity = 2

 SCF Done:  E(UB3LYP) =  -574.359900069     A.U. after   23 cycles
 Normal termination of Gaussian 16 at Wed Dec  9 18:40:51 2020.
 Gaussian 16:  ES64L-G16RevA.03 25-Dec-2016

 ----------------------------------------------------------------------
 # B3LYP/6-311++G(d,p) empiricaldispersion=gd3bj scf=xqc pop=npa geom=c
 heck
 ----------------------------------------------------------------------

 ------------------------------------
 CID_114796629_JID_2712_Energie_anion
 ------------------------------------
 Structure from the checkpoint file:  "JID_2712.chk"
 Charge = -1 Multiplicity = 2

                         Standard orientation:
 ---------------------------------------------------------------------
 Center     Atomic      Atomic             Coordinates (Angstroms)
 Number     Number       Type             X           Y           Z
 ---------------------------------------------------------------------
      1          6           0       -2.391346    2.060158   -0.429646
      2          7           0       -3.009597    0.874631    0.140984
      3          6           0       -2.466096   -0.378610    0.109652
      4          8           0       -3.052998   -1.397811    0.427028
      5          8           0       -1.172383   -0.330083   -0.300692
      6          6           0       -0.482870   -1.597867   -0.320886
      7          6           0        0.972308   -1.337823   -0.679260
      8          6           0        1.866817   -0.849576    0.474364
      9          6           0        1.416361    0.468302    1.138722
     10          6           0        1.947197    1.561031    0.187661
     11          7           0        2.990594    0.894750   -0.623529
     12          6           0        3.248826   -0.433607   -0.052397
     13          1           0       -2.328659    2.019804   -1.525229
     14          1           0       -1.380379    2.183957   -0.034986
     15          1           0       -2.984756    2.931898   -0.142866
     16          1           0       -4.005832    0.872728    0.301469
     17          1           0       -0.591205   -2.079002    0.656793
     18          1           0       -0.969028   -2.241251   -1.061066
     19          1           0        1.392082   -2.279224   -1.057912
     20          1           0        1.012292   -0.623745   -1.509316
     21          1           0        1.952056   -1.651023    1.218332
     22          1           0        1.906167    0.552409    2.115981
     23          1           0        0.339132    0.532076    1.296038
     24          1           0        1.150301    1.932578   -0.470678
     25          1           0        2.332888    2.423965    0.748337
     26          1           0        3.835791    1.451011   -0.694989
     27          1           0        3.975106   -0.426429    0.780361
     28          1           0        3.632932   -1.114316   -0.822413
 ---------------------------------------------------------------------

 SCF Done:  E(UB3LYP) =  -574.647555595     A.U. after   30 cycles

 The electronic state is 2-A.
 Alpha  occ. eigenvalues --  -19.06429 -18.99671 -14.23920 -14.18902 -10.21864
 Alpha  occ. eigenvalues --  -10.13074 -10.10209 -10.08745 -10.08380 -10.07622
 Alpha  occ. eigenvalues --  -10.07329 -10.06047  -1.01025  -0.91756  -0.82939
 Alpha  occ. eigenvalues --   -0.81107  -0.70135  -0.64490  -0.62247  -0.60610
 Alpha  occ. eigenvalues --   -0.55068  -0.48981  -0.48613  -0.45979  -0.43396
 Alpha  occ. eigenvalues --   -0.41679  -0.40109  -0.39614  -0.36723  -0.35557
 Alpha  occ. eigenvalues --   -0.34495  -0.33100  -0.31610  -0.31235  -0.30105
 Alpha  occ. eigenvalues --   -0.29250  -0.28577  -0.27617  -0.26562  -0.25613
 Alpha  occ. eigenvalues --   -0.23356  -0.22739  -0.22598  -0.20085  -0.18519
 Alpha  occ. eigenvalues --   -0.16157  -0.11775   0.04272
 Alpha virt. eigenvalues --    0.05874   0.07267   0.08082   0.08504   0.09131
 Alpha virt. eigenvalues --    0.09655   0.10296   0.10831   0.11224   0.12052
 Alpha virt. eigenvalues --    0.12885   0.13456   0.13663   0.13952   0.14429

  Beta  occ. eigenvalues --  -19.06419 -18.99669 -14.23898 -14.18887 -10.21863
  Beta  occ. eigenvalues --  -10.13068 -10.10160 -10.08720 -10.08358 -10.07615
  Beta  occ. eigenvalues --  -10.07320 -10.06031  -1.01012  -0.91748  -0.82902
  Beta  occ. eigenvalues --   -0.81074  -0.70112  -0.64458  -0.62201  -0.60532
  Beta  occ. eigenvalues --   -0.55027  -0.48947  -0.48552  -0.45946  -0.43365
  Beta  occ. eigenvalues --   -0.41606  -0.40086  -0.39544  -0.36699  -0.35523
  Beta  occ. eigenvalues --   -0.34465  -0.33069  -0.31583  -0.31200  -0.30051
  Beta  occ. eigenvalues --   -0.29219  -0.28550  -0.27585  -0.26535  -0.25584
  Beta  occ. eigenvalues --   -0.23325  -0.22712  -0.22568  -0.20073  -0.18511
  Beta  occ. eigenvalues --   -0.16132  -0.11744
  Beta virt. eigenvalues --    0.06556   0.07300   0.07813   0.08518   0.09150
  Beta virt. eigenvalues --    0.09675   0.10276   0.10636   0.11137   0.11788
  Beta virt. eigenvalues --    0.12332   0.13009   0.13507   0.13890   0.14116

 Mulliken charges and spin densities:
               1          2
     1  C    1.099449  -1.500134
     2  N   -0.536119   0.252429
     3  C    0.367906  -0.141996
     4  O   -0.350737   0.009732
     5  O   -0.104041  -0.006649
     6  C   -0.245668  -0.134172
     7  C    0.530756  -1.065979
     8  C   -0.380054   0.771220
     9  C   -0.286398  -0.012329
    10  C    0.460506  -0.974019
    11  N   -0.315581   0.200278
    12  C    0.576445  -1.164804
    13  H   -0.180232   0.343085
    14  H   -0.145384   0.334787
    15  H   -0.709409   0.868937
    16  H   -0.127685   0.440059
    17  H    0.187319   0.003255
    18  H    0.117021   0.072052
    19  H    0.064164   0.069707
    20  H    0.145907   0.062526
    21  H   -0.097320   0.302321
    22  H   -0.039163   0.207830
    23  H   -0.138468   0.294754
    24  H    0.268754  -0.089884
    25  H   -0.506502   0.646993
    26  H   -0.015847   0.257709
    27  H   -0.549851   0.695667
    28  H   -0.089767   0.256624
 Sum of Mulliken charges =  -1.00000   1.00000

 Dipole moment (field-independent basis, Debye):
    X=              0.2780    Y=             -4.3981    Z=             -1.7946  Tot=              4.7583
 Quadrupole moment (field-independent basis, Debye-Ang):
   XX=           -158.5788   YY=           -120.5937   ZZ=           -103.1378
   XY=              4.4494   XZ=             -2.3850   YZ=              0.1713

 Summary of Natural Population Analysis:

                                       Natural Population
                Natural  -----------------------------------------------
    Atom  No    Charge         Core      Valence    Rydberg      Total
 -----------------------------------------------------------------------
      C    1   -0.17846      0.99964     2.16992    0.00890     3.17846
      N    2   -0.32370      0.99969     2.81371    0.01030     3.82370
      C    3    0.46094      0.99969     1.51429    0.02508     2.53906
      O    4   -0.33652      0.99987     3.33144    0.00521     4.33652
      O    5   -0.29137      0.99986     3.28395    0.00757     4.29137
      C    6   -0.01057      0.99956     2.00065    0.01036     3.01057
      C    7   -0.20237      0.99960     2.19419    0.00859     3.20237
      C    8   -0.11396      0.99959     2.10243    0.01194     3.11396
      C    9   -0.19874      0.99962     2.19042    0.00870     3.19874
      C   10   -0.08824      0.99964     2.07801    0.01059     3.08824
      N   11   -0.35134      0.99976     2.83968    0.01189     3.85134
      C   12   -0.08413      0.99961     2.07279    0.01173     3.08413
      H   13    0.09062      0.00000     0.40794    0.00144     0.40938
      H   14    0.10179      0.00000     0.39632    0.00188     0.39821
      H   15    0.10148      0.00000     0.39511    0.00342     0.39852
      H   16    0.19797      0.00000     0.29922    0.00281     0.30203
      H   17    0.09136      0.00000     0.40746    0.00119     0.40864
      H   18    0.09022      0.00000     0.40875    0.00103     0.40978
      H   19    0.09987      0.00000     0.39908    0.00106     0.40013
      H   20    0.10946      0.00000     0.38871    0.00183     0.39054
      H   21    0.09928      0.00000     0.39962    0.00110     0.40072
      H   22    0.09837      0.00000     0.40019    0.00144     0.40163
      H   23    0.10762      0.00000     0.39088    0.00150     0.39238
      H   24    0.08684      0.00000     0.41110    0.00205     0.41316
      H   25    0.08947      0.00000     0.40870    0.00182     0.41053
      H   26    0.17877      0.00000     0.31874    0.00249     0.32123
      H   27    0.08434      0.00000     0.41336    0.00230     0.41566
      H   28    0.09102      0.00000     0.40764    0.00134     0.40898
 =======================================================================
   * Total *   -0.00000     11.99613    34.84430    0.15957    47.00000

 Normal termination of Gaussian 16 at Wed Dec  9 18:47:28 2020.
