 Gaussian 16, Revision A.03,

 -----------------------------------------------------------
 # opt freq B3LYP/6-31G(d) empiricaldispersion=gd3bj scf=xqc
 -----------------------------------------------------------

 -------------------------------
 CID_103908978_JID_7073_neutraal
 -------------------------------
 Symbolic Z-matrix:
 Charge =  0 Multiplicity = 1

 SCF Done:  E(RB3LYP) =  -712.847138153     A.U. after   13 cycles
 SCF Done:  E(RB3LYP) =  -712.853129168     A.U. after   12 cycles
 SCF Done:  E(RB3LYP) =  -712.854457195     A.U. after   12 cycles
 SCF Done:  E(RB3LYP) =  -712.855166883     A.U. after   12 cycles
 SCF Done:  E(RB3LYP) =  -712.855451418     A.U. after   12 cycles
 SCF Done:  E(RB3LYP) =  -712.855690815     A.U. after   11 cycles
 SCF Done:  E(RB3LYP) =  -712.856193121     A.U. after   11 cycles
 SCF Done:  E(RB3LYP) =  -712.856355735     A.U. after   11 cycles
 SCF Done:  E(RB3LYP) =  -712.856375592     A.U. after    9 cycles
 SCF Done:  E(RB3LYP) =  -712.856468815     A.U. after   11 cycles
 SCF Done:  E(RB3LYP) =  -712.856818263     A.U. after   10 cycles
 SCF Done:  E(RB3LYP) =  -712.856825564     A.U. after   10 cycles
 SCF Done:  E(RB3LYP) =  -712.856830349     A.U. after   10 cycles
 SCF Done:  E(RB3LYP) =  -712.856831560     A.U. after    8 cycles
 SCF Done:  E(RB3LYP) =  -712.856831694     A.U. after    8 cycles
 SCF Done:  E(RB3LYP) =  -712.856831743     A.U. after    7 cycles
 Optimization completed.
    -- Stationary point found.
 Normal termination of Gaussian 16 at Sun Dec 13 12:45:13 2020.

 --------------------------------------------------------------------
 #N Geom=AllCheck Guess=TCheck SCRF=Check GenChk RB3LYP/6-31G(d) Freq
 --------------------------------------------------------------------

 Structure from the checkpoint file:  "JID_7073.chk"
 -------------------------------
 CID_103908978_JID_7073_neutraal
 -------------------------------
 Charge =  0 Multiplicity = 1

 SCF Done:  E(RB3LYP) =  -712.856831743     A.U. after    1 cycles

  Exact polarizability: 201.737  -7.670 170.554   6.005  -2.974 121.379
 Approx polarizability: 248.238  -5.321 245.838  17.668  -7.615 192.612

                      1                      2                      3
                      A                      A                      A
 Frequencies --     12.3623                23.6742                47.3403
 Red. masses --      3.1844                 3.8071                 3.4677
 Frc consts  --      0.0003                 0.0013                 0.0046
 IR Inten    --      0.3284                 0.2273                 0.1456

                      4                      5                      6
                      A                      A                      A
 Frequencies --     63.6821                83.4619                87.0809
 Red. masses --      3.0827                 1.9806                 1.1787
 Frc consts  --      0.0074                 0.0081                 0.0053
 IR Inten    --      0.5095                 0.2134                 0.0886

                      7                      8                      9
                      A                      A                      A
 Frequencies --    123.5152               136.9216               169.5477
 Red. masses --      2.9623                 3.4386                 2.1890
 Frc consts  --      0.0266                 0.0380                 0.0371
 IR Inten    --      3.5627                 2.4602                 0.9927

                     10                     11                     12
                      A                      A                      A
 Frequencies --    181.7507               186.4718               209.9741
 Red. masses --      3.0205                 1.9528                 1.7414
 Frc consts  --      0.0588                 0.0400                 0.0452
 IR Inten    --      0.5302                 0.6671                 0.7634

                     13                     14                     15
                      A                      A                      A
 Frequencies --    242.3359               257.9614               281.7576
 Red. masses --      2.8179                 1.9615                 2.0591
 Frc consts  --      0.0975                 0.0769                 0.0963
 IR Inten    --      1.9510                 0.1483                 2.0978

                     16                     17                     18
                      A                      A                      A
 Frequencies --    300.4053               316.9552               339.4640
 Red. masses --      2.3817                 2.3135                 3.1905
 Frc consts  --      0.1266                 0.1369                 0.2166
 IR Inten    --      0.7694                 0.4346                 0.7947

                     19                     20                     21
                      A                      A                      A
 Frequencies --    377.3711               409.6119               436.8512
 Red. masses --      2.9162                 2.6847                 2.6845
 Frc consts  --      0.2447                 0.2654                 0.3018
 IR Inten    --      2.8412                 0.6210                 2.0212

                     22                     23                     24
                      A                      A                      A
 Frequencies --    482.5313               504.2405               515.8949
 Red. masses --      2.3072                 1.9636                 2.3326
 Frc consts  --      0.3165                 0.2942                 0.3658
 IR Inten    --      0.8790                 0.8362                 3.1589

                     25                     26                     27
                      A                      A                      A
 Frequencies --    543.1818               617.1124               640.0607
 Red. masses --      2.0311                 4.6283                 3.7357
 Frc consts  --      0.3531                 1.0385                 0.9017
 IR Inten    --      0.4667                 3.9854                 2.9850

                     28                     29                     30
                      A                      A                      A
 Frequencies --    664.6095               725.1260               734.5424
 Red. masses --      4.3149                 1.6952                 2.0151
 Frc consts  --      1.1229                 0.5252                 0.6406
 IR Inten    --     16.0950                11.3798                 6.5258

                     31                     32                     33
                      A                      A                      A
 Frequencies --    767.2421               778.7636               789.9640
 Red. masses --      1.9358                 2.2776                 1.6091
 Frc consts  --      0.6714                 0.8138                 0.5916
 IR Inten    --     44.5720                 5.7797                 7.4028

                     34                     35                     36
                      A                      A                      A
 Frequencies --    811.9674               827.0989               835.4677
 Red. masses --      1.6245                 2.1729                 1.8500
 Frc consts  --      0.6310                 0.8758                 0.7608
 IR Inten    --      1.4916                 3.2345                 4.0863

                     37                     38                     39
                      A                      A                      A
 Frequencies --    855.3969               874.2526               938.5107
 Red. masses --      1.9939                 1.6838                 1.9151
 Frc consts  --      0.8596                 0.7582                 0.9938
 IR Inten    --      1.6017                 0.7078                 4.2267

                     40                     41                     42
                      A                      A                      A
 Frequencies --    949.6336               974.5421               986.4211
 Red. masses --      1.9554                 2.1823                 2.3520
 Frc consts  --      1.0390                 1.2211                 1.3484
 IR Inten    --      2.2435                 1.5764                 2.9590

                     43                     44                     45
                      A                      A                      A
 Frequencies --   1003.0012              1029.5587              1036.7168
 Red. masses --      2.0512                 5.1148                 2.2106
 Frc consts  --      1.2158                 3.1944                 1.3998
 IR Inten    --      7.7236                23.8523                 3.7834

                     46                     47                     48
                      A                      A                      A
 Frequencies --   1046.0797              1068.8735              1075.8655
 Red. masses --      1.7521                 1.5553                 1.8774
 Frc consts  --      1.1296                 1.0470                 1.2804
 IR Inten    --      2.1427                 1.0140                 0.6014

                     49                     50                     51
                      A                      A                      A
 Frequencies --   1087.0963              1095.8522              1113.2562
 Red. masses --      1.8617                 1.8289                 1.6451
 Frc consts  --      1.2963                 1.2941                 1.2012
 IR Inten    --      6.4494                 6.1215                11.6409

                     52                     53                     54
                      A                      A                      A
 Frequencies --   1114.4045              1135.9488              1154.4272
 Red. masses --      2.2231                 1.9047                 1.3919
 Frc consts  --      1.6267                 1.4481                 1.0929
 IR Inten    --      6.7984                 0.2591                37.1478

                     55                     56                     57
                      A                      A                      A
 Frequencies --   1166.8437              1197.4762              1206.6624
 Red. masses --      1.8973                 1.7212                 1.8039
 Frc consts  --      1.5220                 1.4542                 1.5475
 IR Inten    --     22.4245                 2.8865                 0.5394

                     58                     59                     60
                      A                      A                      A
 Frequencies --   1235.3890              1238.6050              1251.5551
 Red. masses --      2.4275                 1.3673                 1.2703
 Frc consts  --      2.1829                 1.2359                 1.1723
 IR Inten    --     38.9981                 5.1247                 1.6234

                     61                     62                     63
                      A                      A                      A
 Frequencies --   1266.6399              1274.1638              1298.2991
 Red. masses --      1.3297                 1.2025                 1.3919
 Frc consts  --      1.2569                 1.1502                 1.3824
 IR Inten    --      5.2319                18.9304                 0.7019

                     64                     65                     66
                      A                      A                      A
 Frequencies --   1314.1148              1331.1479              1335.9871
 Red. masses --      1.1848                 1.1459                 1.1982
 Frc consts  --      1.2055                 1.1963                 1.2600
 IR Inten    --      0.4381                 0.9766                 3.5124

                     67                     68                     69
                      A                      A                      A
 Frequencies --   1356.2847              1372.1911              1376.5883
 Red. masses --      2.7886                 1.7801                 1.3241
 Frc consts  --      3.0223                 1.9749                 1.4783
 IR Inten    --     25.2632                28.5545                 2.1487

                     70                     71                     72
                      A                      A                      A
 Frequencies --   1394.2452              1396.9453              1399.3387
 Red. masses --      1.4127                 1.5998                 1.3910
 Frc consts  --      1.6180                 1.8394                 1.6048
 IR Inten    --      1.3167                 6.5790                 2.0359

                     73                     74                     75
                      A                      A                      A
 Frequencies --   1411.1400              1415.9064              1417.0509
 Red. masses --      1.5027                 1.4253                 1.5728
 Frc consts  --      1.7631                 1.6836                 1.8608
 IR Inten    --      4.7219                 3.5857                 0.9673

                     76                     77                     78
                      A                      A                      A
 Frequencies --   1424.3490              1428.2628              1433.7272
 Red. masses --      1.7058                 1.4501                 1.2770
 Frc consts  --      2.0389                 1.7429                 1.5465
 IR Inten    --     16.1739                 0.0466                 4.4446

                     79                     80                     81
                      A                      A                      A
 Frequencies --   1455.8866              1482.3308              1500.8808
 Red. masses --      2.0540                 1.3973                 2.3893
 Frc consts  --      2.5651                 1.8089                 3.1711
 IR Inten    --     24.5730                 9.1473               102.3292

                     82                     83                     84
                      A                      A                      A
 Frequencies --   1512.2014              1512.6434              1513.7482
 Red. masses --      1.0881                 1.0736                 1.0813
 Frc consts  --      1.4660                 1.4473                 1.4598
 IR Inten    --      6.0068                 3.7218                 1.8108

                     85                     86                     87
                      A                      A                      A
 Frequencies --   1516.9881              1519.2779              1520.6744
 Red. masses --      1.0989                 1.0918                 1.1440
 Frc consts  --      1.4899                 1.4849                 1.5587
 IR Inten    --      1.2152                 4.0846                 5.5385

                     88                     89                     90
                      A                      A                      A
 Frequencies --   1524.7962              1529.9212              1534.2469
 Red. masses --      1.0500                 1.1774                 1.1056
 Frc consts  --      1.4384                 1.6238                 1.5334
 IR Inten    --      3.1990                 9.1406                 2.8981

                     91                     92                     93
                      A                      A                      A
 Frequencies --   1538.2437              1540.6796              1542.2809
 Red. masses --      1.0850                 1.1204                 1.1494
 Frc consts  --      1.5127                 1.5669                 1.6108
 IR Inten    --     11.2159                14.6509                 6.8785

                     94                     95                     96
                      A                      A                      A
 Frequencies --   1559.8617              1618.9023              2949.4878
 Red. masses --      1.9625                 5.8691                 1.0736
 Frc consts  --      2.8133                 9.0628                 5.5027
 IR Inten    --      7.1596                19.9529                59.5767

                     97                     98                     99
                      A                      A                      A
 Frequencies --   3016.0981              3018.9025              3019.5443
 Red. masses --      1.0683                 1.0632                 1.0666
 Frc consts  --      5.7255                 5.7091                 5.7299
 IR Inten    --      9.8666                16.0174                25.1564

                    100                    101                    102
                      A                      A                      A
 Frequencies --   3027.0229              3029.8218              3033.6188
 Red. masses --      1.0649                 1.0644                 1.0693
 Frc consts  --      5.7488                 5.7569                 5.7982
 IR Inten    --      4.1513                31.6212                 1.4069

                    103                    104                    105
                      A                      A                      A
 Frequencies --   3041.0685              3048.2696              3052.4870
 Red. masses --      1.0768                 1.0356                 1.0426
 Frc consts  --      5.8674                 5.6696                 5.7235
 IR Inten    --     32.7684                39.1326                74.2347

                    106                    107                    108
                      A                      A                      A
 Frequencies --   3053.9666              3057.5996              3062.0477
 Red. masses --      1.0586                 1.0952                 1.1004
 Frc consts  --      5.8174                 6.0325                 6.0792
 IR Inten    --     26.7218               115.1996                 1.1205

                    109                    110                    111
                      A                      A                      A
 Frequencies --   3063.0196              3066.8762              3071.8627
 Red. masses --      1.1010                 1.0965                 1.0959
 Frc consts  --      6.0860                 6.0767                 6.0931
 IR Inten    --     16.0768               106.0223                12.6839

                    112                    113                    114
                      A                      A                      A
 Frequencies --   3075.4586              3091.0193              3098.5808
 Red. masses --      1.1008                 1.1025                 1.0873
 Frc consts  --      6.1345                 6.2064                 6.1504
 IR Inten    --    144.2177                 5.9489                36.7342

                    115                    116                    117
                      A                      A                      A
 Frequencies --   3114.3724              3124.9454              3129.5135
 Red. masses --      1.1022                 1.0964                 1.1027
 Frc consts  --      6.2989                 6.3080                 6.3630
 IR Inten    --     51.6898                20.7023                35.2013

                    118                    119                    120
                      A                      A                      A
 Frequencies --   3168.6582              3262.8564              3525.0665
 Red. masses --      1.1038                 1.0972                 1.0733
 Frc consts  --      6.5296                 6.8823                 7.8577
 IR Inten    --      7.3070                 2.8041                 0.5506

 - Thermochemistry -
 -------------------
 Temperature   298.150 Kelvin.  Pressure   1.00000 Atm.
 Atom     1 has atomic number  6 and mass  12.00000

 Molecular mass:   235.20485 amu.
 Principal axes and moments of inertia in atomic units:
                           1         2         3
     Eigenvalues --  1975.300439212.41150**********
           X            1.00000   0.00153   0.00128
           Y           -0.00153   0.99999   0.00278
           Z           -0.00128  -0.00278   1.00000
 This molecule is an asymmetric top.
 Rotational symmetry number  1.
 Warning -- assumption of classical behavior for rotation
           may cause significant error
 Rotational temperatures (Kelvin)      0.04385     0.00940     0.00822
 Rotational constants (GHZ):           0.91365     0.19590     0.17125
 Zero-point vibrational energy    1005669.3 (Joules/Mol)
                                  240.36073 (Kcal/Mol)
 Warning -- explicit consideration of  26 degrees of freedom as
           vibrations may cause significant error
 Vibrational temperatures:     17.79    34.06    68.11    91.62   120.08
          (Kelvin)            125.29   177.71   197.00   243.94   261.50
                              268.29   302.11   348.67   371.15   405.39
                              432.22   456.03   488.41   542.95   589.34
                              628.53   694.25   725.49   742.26   781.52
                              887.89   920.90   956.22  1043.29  1056.84
                             1103.89  1120.47  1136.58  1168.24  1190.01
                             1202.05  1230.73  1257.85  1350.31  1366.31
                             1402.15  1419.24  1443.10  1481.31  1491.60
                             1505.08  1537.87  1547.93  1564.09  1576.69
                             1601.73  1603.38  1634.38  1660.96  1678.83
                             1722.90  1736.12  1777.45  1782.08  1800.71
                             1822.41  1833.24  1867.96  1890.72  1915.22
                             1922.19  1951.39  1974.28  1980.60  2006.01
                             2009.89  2013.34  2030.32  2037.17  2038.82
                             2049.32  2054.95  2062.81  2094.70  2132.74
                             2159.43  2175.72  2176.36  2177.95  2182.61
                             2185.90  2187.91  2193.84  2201.22  2207.44
                             2213.19  2216.69  2219.00  2244.29  2329.24
                             4243.66  4339.49  4343.53  4344.45  4355.21
                             4359.24  4364.70  4375.42  4385.78  4391.85
                             4393.98  4399.20  4405.60  4407.00  4412.55
                             4419.73  4424.90  4447.29  4458.17  4480.89
                             4496.10  4502.67  4558.99  4694.52  5071.78

 Zero-point correction=                           0.383039 (Hartree/Particle)
 Thermal correction to Energy=                    0.400956
 Thermal correction to Enthalpy=                  0.401900
 Thermal correction to Gibbs Free Energy=         0.334849
 Sum of electronic and zero-point Energies=           -712.473793
 Sum of electronic and thermal Energies=              -712.455876
 Sum of electronic and thermal Enthalpies=            -712.454932
 Sum of electronic and thermal Free Energies=         -712.521982

                     E (Thermal)             CV                S
                      KCal/Mol        Cal/Mol-Kelvin    Cal/Mol-Kelvin
 Total                  251.604             67.632            141.120
 Electronic               0.000              0.000              0.000
 Translational            0.889              2.981             42.267
 Rotational               0.889              2.981             33.616
 Vibrational            249.826             61.670             65.236
 Vibration     1          0.593              1.987              7.590
 Vibration     2          0.593              1.985              6.299
 Vibration     3          0.595              1.979              4.926
 Vibration     4          0.597              1.972              4.340
 Vibration     5          0.600              1.961              3.808
 Vibration     6          0.601              1.958              3.725
 Vibration     7          0.610              1.929              3.045
 Vibration     8          0.614              1.916              2.846
 Vibration     9          0.625              1.880              2.440
 Vibration    10          0.630              1.865              2.310
 Vibration    11          0.632              1.858              2.263
 Vibration    12          0.642              1.826              2.044
 Vibration    13          0.659              1.775              1.786
 Vibration    14          0.667              1.749              1.676
 Vibration    15          0.681              1.707              1.523
 Vibration    16          0.693              1.673              1.415
 Vibration    17          0.704              1.641              1.326
 Vibration    18          0.719              1.597              1.215
 Vibration    19          0.748              1.518              1.050
 Vibration    20          0.774              1.449              0.928
 Vibration    21          0.797              1.390              0.837
 Vibration    22          0.839              1.289              0.703
 Vibration    23          0.860              1.241              0.648
 Vibration    24          0.871              1.215              0.620
 Vibration    25          0.898              1.155              0.558
 Vibration    26          0.977              0.996              0.421

                           ! Non-Optimized Parameters !
 Normal termination of Gaussian 16 at Sun Dec 13 13:02:29 2020.

 ----------------------------------------------------------------------
 # B3LYP/6-311++G(d,p) empiricaldispersion=gd3bj scf=xqc pop=npa geom=c
 heck
 ----------------------------------------------------------------------

 ---------------------------------------
 CID_103908978_JID_7073_Energie_neutraal
 ---------------------------------------
 Structure from the checkpoint file:  "JID_7073.chk"
 Charge =  0 Multiplicity = 1

 SCF Done:  E(RB3LYP) =  -713.050175112     A.U. after   14 cycles
 Normal termination of Gaussian 16 at Sun Dec 13 13:11:05 2020.

 ----------------------------------------------------------------------
 # B3LYP/6-311++G(d,p) empiricaldispersion=gd3bj scf=xqc pop=npa geom=c
 heck
 ----------------------------------------------------------------------

 -------------------------------------
 CID_103908978_JID_7073_Energie_kation
 -------------------------------------
 Structure from the checkpoint file:  "JID_7073.chk"
 Charge =  1 Multiplicity = 2

 SCF Done:  E(UB3LYP) =  -712.775882655     A.U. after   23 cycles
 Normal termination of Gaussian 16 at Sun Dec 13 13:30:56 2020.
 Gaussian 16:  ES64L-G16RevA.03 25-Dec-2016

 ----------------------------------------------------------------------
 # B3LYP/6-311++G(d,p) empiricaldispersion=gd3bj scf=xqc pop=npa geom=c
 heck
 ----------------------------------------------------------------------

 ------------------------------------
 CID_103908978_JID_7073_Energie_anion
 ------------------------------------
 Structure from the checkpoint file:  "JID_7073.chk"
 Charge = -1 Multiplicity = 2

                         Standard orientation:
 ---------------------------------------------------------------------
 Center     Atomic      Atomic             Coordinates (Angstroms)
 Number     Number       Type             X           Y           Z
 ---------------------------------------------------------------------
      1          6           0        2.318350    2.940419    0.658942
      2          6           0        2.540878    2.098594   -0.608057
      3          6           0        2.802473    0.651561   -0.316120
      4          7           0        3.982524    0.239132    0.156685
      5          7           0        3.857249   -1.096184    0.325058
      6          6           0        2.621210   -1.547103   -0.028938
      7          6           0        1.901240   -0.440588   -0.454187
      8          7           0        0.578912   -0.371422   -0.949600
      9          6           0       -0.414056    0.166380   -0.010250
     10          6           0       -1.797585    0.331613   -0.652703
     11          6           0       -2.468781   -1.025407   -0.956384
     12          6           0       -3.186565   -1.710131    0.221255
     13          6           0       -4.653476   -1.277803    0.369950
     14          6           0       -4.880091    0.165274    0.836321
     15          6           0       -4.159781    1.256446    0.028030
     16          6           0       -2.636211    1.273321    0.237331
     17          6           0        5.016907   -1.880262    0.688037
     18          1           0        1.461058    2.573396    1.234863
     19          1           0        2.134056    3.991180    0.407248
     20          1           0        3.199082    2.889042    1.307070
     21          1           0        1.666252    2.162403   -1.265817
     22          1           0        3.392222    2.508901   -1.164061
     23          1           0        2.355295   -2.593062    0.036208
     24          1           0        0.284540   -1.285475   -1.280762
     25          1           0       -0.497808   -0.449237    0.904925
     26          1           0       -0.053402    1.148039    0.312691
     27          1           0       -1.631532    0.829002   -1.617493
     28          1           0       -3.194426   -0.891170   -1.768724
     29          1           0       -1.712706   -1.707365   -1.367674
     30          1           0       -2.642574   -1.533580    1.159715
     31          1           0       -3.168154   -2.795769    0.062951
     32          1           0       -5.158451   -1.951515    1.074985
     33          1           0       -5.150728   -1.424123   -0.600195
     34          1           0       -4.564099    0.256686    1.885943
     35          1           0       -5.960035    0.364120    0.826198
     36          1           0       -4.562199    2.227600    0.342560
     37          1           0       -4.400111    1.162152   -1.040250
     38          1           0       -2.437317    1.041749    1.294155
     39          1           0       -2.256100    2.291266    0.084255
     40          1           0        5.611565   -2.148876   -0.193480
     41          1           0        5.633632   -1.286689    1.364982
     42          1           0        4.694094   -2.793239    1.195349
 ---------------------------------------------------------------------

 SCF Done:  E(UB3LYP) =  -713.038535052     A.U. after   32 cycles

 The electronic state is 2-A.
 Alpha  occ. eigenvalues --  -14.29089 -14.22768 -14.21642 -10.11694 -10.10239
 Alpha  occ. eigenvalues --  -10.10092 -10.09813 -10.09333 -10.08359 -10.08069
 Alpha  occ. eigenvalues --  -10.07663 -10.07632 -10.07579 -10.07464 -10.07270
 Alpha  occ. eigenvalues --  -10.07269 -10.07118  -0.95176  -0.82550  -0.75254
 Alpha  occ. eigenvalues --   -0.73865  -0.69129  -0.67971  -0.67095  -0.66824
 Alpha  occ. eigenvalues --   -0.60551  -0.58641  -0.56122  -0.54037  -0.52727
 Alpha  occ. eigenvalues --   -0.49818  -0.47487  -0.45805  -0.44941  -0.42759
 Alpha  occ. eigenvalues --   -0.39890  -0.39379  -0.38384  -0.37302  -0.36660
 Alpha  occ. eigenvalues --   -0.35774  -0.34832  -0.34221  -0.33936  -0.32545
 Alpha  occ. eigenvalues --   -0.31917  -0.31479  -0.31400  -0.30130  -0.29632
 Alpha  occ. eigenvalues --   -0.28698  -0.28125  -0.27346  -0.26438  -0.25838
 Alpha  occ. eigenvalues --   -0.24509  -0.23652  -0.23324  -0.22495  -0.21943
 Alpha  occ. eigenvalues --   -0.21519  -0.20002  -0.17581  -0.15084  -0.11665
 Alpha  occ. eigenvalues --    0.03932
 Alpha virt. eigenvalues --    0.05369   0.06307   0.06845   0.07088   0.07593
 Alpha virt. eigenvalues --    0.08178   0.08727   0.09154   0.09461   0.09687
 Alpha virt. eigenvalues --    0.10190   0.10499   0.10780   0.11124   0.11315

  Beta  occ. eigenvalues --  -14.29085 -14.22758 -14.21630 -10.11652 -10.10212
  Beta  occ. eigenvalues --  -10.10086 -10.09814 -10.09332 -10.08356 -10.08067
  Beta  occ. eigenvalues --  -10.07649 -10.07626 -10.07571 -10.07450 -10.07255
  Beta  occ. eigenvalues --  -10.07253 -10.07100  -0.95165  -0.82532  -0.75237
  Beta  occ. eigenvalues --   -0.73841  -0.69106  -0.67957  -0.67067  -0.66795
  Beta  occ. eigenvalues --   -0.60516  -0.58609  -0.56085  -0.54011  -0.52692
  Beta  occ. eigenvalues --   -0.49779  -0.47439  -0.45782  -0.44903  -0.42715
  Beta  occ. eigenvalues --   -0.39859  -0.39335  -0.38358  -0.37273  -0.36639
  Beta  occ. eigenvalues --   -0.35749  -0.34815  -0.34203  -0.33910  -0.32521
  Beta  occ. eigenvalues --   -0.31886  -0.31444  -0.31366  -0.30106  -0.29611
  Beta  occ. eigenvalues --   -0.28671  -0.28105  -0.27320  -0.26428  -0.25830
  Beta  occ. eigenvalues --   -0.24487  -0.23624  -0.23298  -0.22471  -0.21912
  Beta  occ. eigenvalues --   -0.21489  -0.19984  -0.17569  -0.15063  -0.11649
  Beta virt. eigenvalues --    0.05778   0.06425   0.06712   0.07133   0.07543
  Beta virt. eigenvalues --    0.08015   0.08376   0.09180   0.09282   0.09605
  Beta virt. eigenvalues --    0.10000   0.10285   0.10626   0.10831   0.11372

 Mulliken charges and spin densities:
               1          2
     1  C   -0.391306  -0.138606
     2  C    0.030550  -0.223637
     3  C    0.345363  -0.577606
     4  N   -0.480116   0.302309
     5  N    0.178555  -0.020970
     6  C   -0.069892   0.108142
     7  C    0.219398  -0.554242
     8  N    0.138489   0.061409
     9  C   -1.091354  -0.265847
    10  C    0.747923   0.133774
    11  C    0.207248  -0.478420
    12  C   -0.362050   0.182523
    13  C    0.391660  -0.834271
    14  C    0.171843  -0.550881
    15  C   -0.641676   0.489176
    16  C   -0.163888  -0.478686
    17  C    0.827101  -1.123118
    18  H   -0.002474   0.133688
    19  H    0.058234   0.060145
    20  H    0.132831   0.018812
    21  H    0.119307   0.052762
    22  H    0.141651   0.036892
    23  H   -1.131779   1.329980
    24  H    0.275361  -0.033060
    25  H    0.126986   0.026835
    26  H    0.428311  -0.286861
    27  H    0.099793   0.099620
    28  H   -0.024592   0.156787
    29  H   -0.059095   0.204239
    30  H    0.047947   0.088494
    31  H   -0.275743   0.441976
    32  H   -0.099908   0.252037
    33  H   -0.032291   0.172833
    34  H    0.017104   0.116606
    35  H   -0.173510   0.329455
    36  H   -0.172174   0.338123
    37  H    0.029602   0.105038
    38  H   -0.005772   0.134379
    39  H    0.143286  -0.001741
    40  H   -0.184115   0.358627
    41  H   -0.077016   0.237656
    42  H   -0.439792   0.595628
 Sum of Mulliken charges =  -1.00000   1.00000

 Dipole moment (field-independent basis, Debye):
    X=             -0.9150    Y=              6.0691    Z=             -0.8986  Tot=              6.2031
 Quadrupole moment (field-independent basis, Debye-Ang):
   XX=           -219.3539   YY=           -167.1320   ZZ=           -136.0429
   XY=             12.5976   XZ=              0.4936   YZ=              1.3381

 Summary of Natural Population Analysis:

                                       Natural Population
                Natural  -----------------------------------------------
    Atom  No    Charge         Core      Valence    Rydberg      Total
 -----------------------------------------------------------------------
      C    1   -0.28009      0.99966     2.27642    0.00400     3.28009
      C    2   -0.20597      0.99960     2.19859    0.00778     3.20597
      C    3    0.06649      0.99953     1.91907    0.01490     2.93351
      N    4   -0.16158      0.99969     2.65049    0.01140     3.66158
      N    5   -0.10436      0.99968     2.59254    0.01214     3.60436
      C    6   -0.02001      0.99949     2.00849    0.01203     3.02001
      C    7    0.03005      0.99942     1.95819    0.01235     2.96995
      N    8   -0.33159      0.99970     2.82122    0.01067     3.83159
      C    9   -0.07963      0.99957     2.06974    0.01031     3.07963
      C   10   -0.11175      0.99958     2.10217    0.01000     3.11175
      C   11   -0.19107      0.99961     2.18215    0.00931     3.19107
      C   12   -0.19614      0.99962     2.18736    0.00915     3.19614
      C   13   -0.18593      0.99962     2.17829    0.00802     3.18593
      C   14   -0.18724      0.99962     2.17926    0.00835     3.18724
      C   15   -0.19249      0.99963     2.18471    0.00816     3.19249
      C   16   -0.19013      0.99961     2.18179    0.00873     3.19013
      C   17   -0.17159      0.99964     2.16361    0.00835     3.17159
      H   18    0.09598      0.00000     0.40291    0.00111     0.40402
      H   19    0.09319      0.00000     0.40580    0.00101     0.40681
      H   20    0.10004      0.00000     0.39875    0.00121     0.39996
      H   21    0.10469      0.00000     0.39403    0.00128     0.39531
      H   22    0.10216      0.00000     0.39668    0.00115     0.39784
      H   23    0.10789      0.00000     0.38957    0.00254     0.39211
      H   24    0.17937      0.00000     0.31746    0.00317     0.32063
      H   25    0.08165      0.00000     0.41678    0.00156     0.41835
      H   26    0.09325      0.00000     0.40511    0.00164     0.40675
      H   27    0.09777      0.00000     0.40045    0.00178     0.40223
      H   28    0.09635      0.00000     0.40229    0.00136     0.40365
      H   29    0.09762      0.00000     0.40100    0.00138     0.40238
      H   30    0.09451      0.00000     0.40400    0.00149     0.40549
      H   31    0.10211      0.00000     0.39660    0.00130     0.39789
      H   32    0.09787      0.00000     0.40110    0.00103     0.40213
      H   33    0.09079      0.00000     0.40793    0.00128     0.40921
      H   34    0.09095      0.00000     0.40780    0.00125     0.40905
      H   35    0.09760      0.00000     0.40131    0.00109     0.40240
      H   36    0.09890      0.00000     0.40008    0.00102     0.40110
      H   37    0.09405      0.00000     0.40485    0.00109     0.40595
      H   38    0.09327      0.00000     0.40534    0.00140     0.40673
      H   39    0.09965      0.00000     0.39943    0.00093     0.40035
      H   40    0.09660      0.00000     0.40194    0.00147     0.40340
      H   41    0.10404      0.00000     0.39453    0.00143     0.39596
      H   42    0.10273      0.00000     0.39536    0.00192     0.39727
 =======================================================================
   * Total *    0.00000     16.99328    47.80521    0.20151    65.00000

 Normal termination of Gaussian 16 at Sun Dec 13 13:56:28 2020.
