 Gaussian 16, Revision A.03,

 -----------------------------------------------------------
 # opt freq B3LYP/6-31G(d) empiricaldispersion=gd3bj scf=xqc
 -----------------------------------------------------------

 -------------------------------
 CID_113600716_JID_7479_neutraal
 -------------------------------
 Symbolic Z-matrix:
 Charge =  0 Multiplicity = 1

 SCF Done:  E(RB3LYP) =  -758.546363197     A.U. after   14 cycles
 SCF Done:  E(RB3LYP) =  -758.544362235     A.U. after   15 cycles
 SCF Done:  E(RB3LYP) =  -758.550277380     A.U. after   13 cycles
 SCF Done:  E(RB3LYP) =  -758.550017991     A.U. after   14 cycles
 SCF Done:  E(RB3LYP) =  -758.552313808     A.U. after   11 cycles
 SCF Done:  E(RB3LYP) =  -758.552530496     A.U. after   12 cycles
 SCF Done:  E(RB3LYP) =  -758.552748314     A.U. after   11 cycles
 SCF Done:  E(RB3LYP) =  -758.552843388     A.U. after   11 cycles
 SCF Done:  E(RB3LYP) =  -758.552896157     A.U. after   11 cycles
 SCF Done:  E(RB3LYP) =  -758.552935910     A.U. after   10 cycles
 SCF Done:  E(RB3LYP) =  -758.557054009     A.U. after    9 cycles
 SCF Done:  E(RB3LYP) =  -758.557054770     A.U. after    8 cycles
 SCF Done:  E(RB3LYP) =  -758.557055151     A.U. after    8 cycles
 SCF Done:  E(RB3LYP) =  -758.557055210     A.U. after    7 cycles
 SCF Done:  E(RB3LYP) =  -758.557055238     A.U. after    7 cycles
 Optimization completed.
    -- Stationary point found.
 Normal termination of Gaussian 16 at Sun Dec 13 16:26:34 2020.

 --------------------------------------------------------------------
 #N Geom=AllCheck Guess=TCheck SCRF=Check GenChk RB3LYP/6-31G(d) Freq
 --------------------------------------------------------------------

 Structure from the checkpoint file:  "JID_7479.chk"
 -------------------------------
 CID_113600716_JID_7479_neutraal
 -------------------------------
 Charge =  0 Multiplicity = 1

 SCF Done:  E(RB3LYP) =  -758.557055238     A.U. after    1 cycles

  Exact polarizability: 178.669   8.720 154.915   9.599   6.289 103.812
 Approx polarizability: 245.554   7.724 235.832  18.326  15.504 166.299

                      1                      2                      3
                      A                      A                      A
 Frequencies --     22.3763                40.3849                53.1274
 Red. masses --      3.9441                 5.3729                 4.8583
 Frc consts  --      0.0012                 0.0052                 0.0081
 IR Inten    --      0.9886                 1.0404                 1.3223

                      4                      5                      6
                      A                      A                      A
 Frequencies --     65.5522               101.9665               116.2468
 Red. masses --      4.9199                 3.9229                 3.5908
 Frc consts  --      0.0125                 0.0240                 0.0286
 IR Inten    --      1.0731                 0.2556                 0.6232

                      7                      8                      9
                      A                      A                      A
 Frequencies --    128.3494               153.8368               161.3553
 Red. masses --      3.5867                 3.5252                 3.4327
 Frc consts  --      0.0348                 0.0492                 0.0527
 IR Inten    --      0.1204                 1.3363                 3.0366

                     10                     11                     12
                      A                      A                      A
 Frequencies --    205.4683               249.6075               250.2712
 Red. masses --      3.3593                 1.1853                 2.1167
 Frc consts  --      0.0836                 0.0435                 0.0781
 IR Inten    --      1.1090                 0.7771                 3.5255

                     13                     14                     15
                      A                      A                      A
 Frequencies --    273.5304               306.2560               329.9382
 Red. masses --      3.1778                 2.1778                 3.2051
 Frc consts  --      0.1401                 0.1203                 0.2056
 IR Inten    --      0.4157                 0.6231                 1.8404

                     16                     17                     18
                      A                      A                      A
 Frequencies --    339.8812               390.8261               417.2278
 Red. masses --      2.8800                 3.4011                 2.7305
 Frc consts  --      0.1960                 0.3061                 0.2801
 IR Inten    --      0.8784                 4.0165                 4.1267

                     19                     20                     21
                      A                      A                      A
 Frequencies --    458.3370               540.2020               645.8426
 Red. masses --      3.2075                 2.9076                 4.3746
 Frc consts  --      0.3970                 0.4999                 1.0751
 IR Inten    --      1.7906                 1.5515                 1.9891

                     22                     23                     24
                      A                      A                      A
 Frequencies --    649.2563               672.1457               682.2813
 Red. masses --      4.0129                 4.9958                 3.2489
 Frc consts  --      0.9966                 1.3298                 0.8911
 IR Inten    --      4.2357                 3.4237                 4.0947

                     25                     26                     27
                      A                      A                      A
 Frequencies --    702.3722               750.7900               763.6846
 Red. masses --      3.8597                 2.4207                 2.9918
 Frc consts  --      1.1219                 0.8039                 1.0281
 IR Inten    --      3.4455                 6.8359                 1.2567

                     28                     29                     30
                      A                      A                      A
 Frequencies --    788.4359               797.6446               806.7789
 Red. masses --      1.4585                 1.5904                 1.2216
 Frc consts  --      0.5342                 0.5962                 0.4685
 IR Inten    --     25.0932                 9.9816                20.1031

                     31                     32                     33
                      A                      A                      A
 Frequencies --    825.1221               873.0732               877.7400
 Red. masses --      1.3261                 1.4257                 1.3816
 Frc consts  --      0.5319                 0.6403                 0.6271
 IR Inten    --      7.1456                34.3304                22.9933

                     34                     35                     36
                      A                      A                      A
 Frequencies --    891.0586               897.3016               945.9604
 Red. masses --      1.6190                 1.6043                 3.5578
 Frc consts  --      0.7574                 0.7611                 1.8757
 IR Inten    --     14.1404                59.3984                32.3454

                     37                     38                     39
                      A                      A                      A
 Frequencies --    961.7694               986.8585               990.9521
 Red. masses --      2.0817                 2.4141                 6.4241
 Frc consts  --      1.1345                 1.3852                 3.7168
 IR Inten    --      1.3956                 3.1291                11.0548

                     40                     41                     42
                      A                      A                      A
 Frequencies --   1001.7172              1038.3012              1062.6577
 Red. masses --      1.6445                 2.2234                 2.3290
 Frc consts  --      0.9722                 1.4123                 1.5495
 IR Inten    --      8.1943                20.6958                15.8199

                     43                     44                     45
                      A                      A                      A
 Frequencies --   1069.8460              1077.9567              1083.2814
 Red. masses --      2.3708                 3.0875                 1.7194
 Frc consts  --      1.5987                 2.1138                 1.1888
 IR Inten    --     13.7731                 3.4978                 8.3501

                     46                     47                     48
                      A                      A                      A
 Frequencies --   1109.8457              1118.2735              1128.7668
 Red. masses --      2.1668                 1.9246                 2.1061
 Frc consts  --      1.5725                 1.4181                 1.5811
 IR Inten    --     29.9178                13.4122                 8.6843

                     49                     50                     51
                      A                      A                      A
 Frequencies --   1134.2953              1190.7615              1207.2122
 Red. masses --      3.0577                 1.7076                 1.6871
 Frc consts  --      2.3179                 1.4265                 1.4486
 IR Inten    --     22.8562                15.6465                13.4423

                     52                     53                     54
                      A                      A                      A
 Frequencies --   1218.2445              1232.3347              1244.6187
 Red. masses --      2.1050                 1.4176                 1.6630
 Frc consts  --      1.8407                 1.2684                 1.5178
 IR Inten    --     13.7169                 4.5738                 3.2642

                     55                     56                     57
                      A                      A                      A
 Frequencies --   1282.8354              1302.7185              1305.5700
 Red. masses --      2.1812                 2.3439                 1.4412
 Frc consts  --      2.1149                 2.3436                 1.4473
 IR Inten    --      7.6203                26.6617                 0.7092

                     58                     59                     60
                      A                      A                      A
 Frequencies --   1320.9809              1337.0015              1347.4208
 Red. masses --      1.3728                 1.7059                 1.6906
 Frc consts  --      1.4114                 1.7967                 1.8084
 IR Inten    --      1.0906                 0.9784                20.6794

                     61                     62                     63
                      A                      A                      A
 Frequencies --   1361.2322              1381.3521              1392.7473
 Red. masses --      1.5430                 2.0349                 1.4933
 Frc consts  --      1.6845                 2.2877                 1.7067
 IR Inten    --     30.8134                 6.5860                21.0721

                     64                     65                     66
                      A                      A                      A
 Frequencies --   1399.0301              1409.0182              1436.5387
 Red. masses --      1.5889                 1.4174                 1.2639
 Frc consts  --      1.8323                 1.6580                 1.5368
 IR Inten    --     23.1436                 6.2816                 6.5764

                     67                     68                     69
                      A                      A                      A
 Frequencies --   1439.1049              1444.9408              1464.0522
 Red. masses --      1.5025                 2.4652                 3.2142
 Frc consts  --      1.8334                 3.0325                 4.0591
 IR Inten    --     17.8041                 1.1383                22.2372

                     70                     71                     72
                      A                      A                      A
 Frequencies --   1491.4738              1504.1401              1510.0986
 Red. masses --      1.2589                 2.1565                 1.2708
 Frc consts  --      1.6499                 2.8745                 1.7075
 IR Inten    --     30.4599                44.6745                21.2539

                     73                     74                     75
                      A                      A                      A
 Frequencies --   1513.5781              1516.6487              1522.3490
 Red. masses --      2.3032                 1.1158                 1.1799
 Frc consts  --      3.1088                 1.5122                 1.6111
 IR Inten    --     16.5574                 3.5643                 2.2240

                     76                     77                     78
                      A                      A                      A
 Frequencies --   1523.0070              1536.6553              1542.3047
 Red. masses --      1.3331                 1.0945                 1.0708
 Frc consts  --      1.8219                 1.5227                 1.5008
 IR Inten    --      8.4163                 2.7285                 6.6908

                     79                     80                     81
                      A                      A                      A
 Frequencies --   1552.6448              1596.3242              1604.9045
 Red. masses --      1.1050                 5.6561                 3.7118
 Frc consts  --      1.5695                 8.4920                 5.6329
 IR Inten    --      6.0455                 1.5642                61.1579

                     82                     83                     84
                      A                      A                      A
 Frequencies --   2975.1902              2994.3685              3045.1971
 Red. masses --      1.0734                 1.0695                 1.0660
 Frc consts  --      5.5980                 5.6499                 5.8244
 IR Inten    --     59.8519                61.0082                33.6140

                     85                     86                     87
                      A                      A                      A
 Frequencies --   3055.7601              3058.1209              3067.2364
 Red. masses --      1.0922                 1.0688                 1.0351
 Frc consts  --      6.0088                 5.8893                 5.7376
 IR Inten    --     15.1933                17.4188                12.5113

                     88                     89                     90
                      A                      A                      A
 Frequencies --   3071.3289              3093.6437              3095.8828
 Red. masses --      1.0874                 1.0603                 1.0985
 Frc consts  --      6.0437                 5.9790                 6.2031
 IR Inten    --     18.5019                20.1415                37.7729

                     91                     92                     93
                      A                      A                      A
 Frequencies --   3128.2963              3129.4947              3144.3558
 Red. masses --      1.0966                 1.1027                 1.1043
 Frc consts  --      6.3231                 6.3627                 6.4328
 IR Inten    --     14.5231                 2.6949                26.7114

                     94                     95                     96
                      A                      A                      A
 Frequencies --   3156.8906              3255.5468              3273.6345
 Red. masses --      1.1046                 1.0920                 1.1019
 Frc consts  --      6.4863                 6.8188                 6.9576
 IR Inten    --     27.6548                 8.3838                 5.7165

                     97                     98                     99
                      A                      A                      A
 Frequencies --   3275.4734              3476.0736              3498.9692
 Red. masses --      1.0968                 1.0743                 1.0855
 Frc consts  --      6.9331                 7.6480                 7.8302
 IR Inten    --      9.6864                 4.7564               388.2586

 - Thermochemistry -
 -------------------
 Temperature   298.150 Kelvin.  Pressure   1.00000 Atm.
 Atom     1 has atomic number  6 and mass  12.00000

 Molecular mass:   234.15929 amu.
 Principal axes and moments of inertia in atomic units:
                           1         2         3
     Eigenvalues --  2158.374096306.086007755.47028
           X            0.99994  -0.01044  -0.00128
           Y            0.01043   0.99992  -0.00721
           Z            0.00136   0.00720   0.99997
 This molecule is an asymmetric top.
 Rotational symmetry number  1.
 Warning -- assumption of classical behavior for rotation
           may cause significant error
 Rotational temperatures (Kelvin)      0.04013     0.01373     0.01117
 Rotational constants (GHZ):           0.83616     0.28619     0.23271
 Zero-point vibrational energy     794715.5 (Joules/Mol)
                                  189.94157 (Kcal/Mol)
 Warning -- explicit consideration of  20 degrees of freedom as
           vibrations may cause significant error
 Vibrational temperatures:     32.19    58.10    76.44    94.31   146.71
          (Kelvin)            167.25   184.67   221.34   232.15   295.62
                              359.13   360.08   393.55   440.63   474.71
                              489.01   562.31   600.30   659.44   777.23
                              929.22   934.14   967.07   981.65  1010.56
                             1080.22  1098.77  1134.38  1147.63  1160.77
                             1187.17  1256.16  1262.87  1282.03  1291.02
                             1361.03  1383.77  1419.87  1425.76  1441.25
                             1493.88  1528.93  1539.27  1550.94  1558.60
                             1596.82  1608.95  1624.04  1632.00  1713.24
                             1736.91  1752.78  1773.05  1790.73  1845.71
                             1874.32  1878.42  1900.60  1923.65  1938.64
                             1958.51  1987.46  2003.85  2012.89  2027.26
                             2066.86  2070.55  2078.95  2106.44  2145.90
                             2164.12  2172.70  2177.70  2182.12  2190.32
                             2191.27  2210.90  2219.03  2233.91  2296.75
                             2309.10  4280.64  4308.23  4381.36  4396.56
                             4399.95  4413.07  4418.96  4451.06  4454.28
                             4500.92  4502.64  4524.03  4542.06  4684.01
                             4710.03  4712.68  5001.29  5034.24

 Zero-point correction=                           0.302691 (Hartree/Particle)
 Thermal correction to Energy=                    0.318534
 Thermal correction to Enthalpy=                  0.319478
 Thermal correction to Gibbs Free Energy=         0.257631
 Sum of electronic and zero-point Energies=           -758.254364
 Sum of electronic and thermal Energies=              -758.238521
 Sum of electronic and thermal Enthalpies=            -758.237577
 Sum of electronic and thermal Free Energies=         -758.299424

                     E (Thermal)             CV                S
                      KCal/Mol        Cal/Mol-Kelvin    Cal/Mol-Kelvin
 Total                  199.883             59.534            130.168
 Electronic               0.000              0.000              0.000
 Translational            0.889              2.981             42.254
 Rotational               0.889              2.981             33.023
 Vibrational            198.106             53.572             54.891
 Vibration     1          0.593              1.985              6.411
 Vibration     2          0.594              1.981              5.240
 Vibration     3          0.596              1.976              4.697
 Vibration     4          0.597              1.971              4.283
 Vibration     5          0.604              1.948              3.416
 Vibration     6          0.608              1.936              3.162
 Vibration     7          0.611              1.925              2.971
 Vibration     8          0.619              1.898              2.624
 Vibration     9          0.622              1.890              2.534
 Vibration    10          0.640              1.832              2.084
 Vibration    11          0.662              1.763              1.733
 Vibration    12          0.663              1.762              1.729
 Vibration    13          0.676              1.722              1.574
 Vibration    14          0.697              1.662              1.382
 Vibration    15          0.713              1.616              1.260
 Vibration    16          0.720              1.596              1.213
 Vibration    17          0.759              1.490              0.997
 Vibration    18          0.780              1.433              0.901
 Vibration    19          0.816              1.342              0.771
 Vibration    20          0.895              1.161              0.565

 Optimization completed.
    -- Stationary point found.
 Normal termination of Gaussian 16 at Sun Dec 13 16:40:33 2020.

 ----------------------------------------------------------------------
 # B3LYP/6-311++G(d,p) empiricaldispersion=gd3bj scf=xqc pop=npa geom=c
 heck
 ----------------------------------------------------------------------

 ---------------------------------------
 CID_113600716_JID_7479_Energie_neutraal
 ---------------------------------------
 Structure from the checkpoint file:  "JID_7479.chk"
 Charge =  0 Multiplicity = 1

 SCF Done:  E(RB3LYP) =  -758.765003151     A.U. after   15 cycles
 Normal termination of Gaussian 16 at Sun Dec 13 16:47:18 2020.

 ----------------------------------------------------------------------
 # B3LYP/6-311++G(d,p) empiricaldispersion=gd3bj scf=xqc pop=npa geom=c
 heck
 ----------------------------------------------------------------------

 -------------------------------------
 CID_113600716_JID_7479_Energie_kation
 -------------------------------------
 Structure from the checkpoint file:  "JID_7479.chk"
 Charge =  1 Multiplicity = 2

 SCF Done:  E(UB3LYP) =  -758.449685458     A.U. after   33 cycles
 SCF Done:  E(UB3LYP) =  -758.449685458     a.u. after    2 cycles
 Normal termination of Gaussian 16 at Sun Dec 13 17:26:49 2020.
 Gaussian 16:  ES64L-G16RevA.03 25-Dec-2016

 ----------------------------------------------------------------------
 # B3LYP/6-311++G(d,p) empiricaldispersion=gd3bj scf=xqc pop=npa geom=c
 heck
 ----------------------------------------------------------------------

 ------------------------------------
 CID_113600716_JID_7479_Energie_anion
 ------------------------------------
 Structure from the checkpoint file:  "JID_7479.chk"
 Charge = -1 Multiplicity = 2

                         Standard orientation:
 ---------------------------------------------------------------------
 Center     Atomic      Atomic             Coordinates (Angstroms)
 Number     Number       Type             X           Y           Z
 ---------------------------------------------------------------------
      1          6           0       -0.946423    2.238719   -0.911890
      2          6           0       -1.573476    1.771313    0.400306
      3          7           0       -2.560406    0.719593    0.190455
      4          6           0       -2.447565   -0.624014    0.417253
      5          6           0       -3.632016   -1.189615   -0.031096
      6          6           0       -4.392755   -0.105851   -0.513512
      7          7           0       -3.739819    1.049031   -0.381707
      8          6           0       -1.248534   -1.280576    1.019548
      9          7           0       -0.116866   -1.348387    0.077336
     10          6           0        1.002089   -2.130887    0.622821
     11          6           0        2.105931   -2.413667   -0.403049
     12          6           0        2.587465   -1.200931   -1.233265
     13          6           0        2.850540    0.036925   -0.437465
     14          7           0        4.011127    0.632274   -0.181518
     15          6           0        3.637528    1.714817    0.562953
     16          7           0        2.333157    1.830739    0.786822
     17          7           0        1.851671    0.746016    0.129915
     18          1           0       -0.495297    1.396636   -1.446221
     19          1           0       -0.166513    2.980164   -0.713595
     20          1           0       -1.713791    2.679837   -1.553362
     21          1           0       -0.818642    1.390032    1.092563
     22          1           0       -2.082912    2.600232    0.899004
     23          1           0       -3.902028   -2.235457    0.008530
     24          1           0       -5.386519   -0.112327   -0.941339
     25          1           0       -0.903018   -0.734921    1.907470
     26          1           0       -1.548741   -2.281614    1.369830
     27          1           0       -0.449373   -1.775334   -0.787439
     28          1           0        1.416538   -1.556710    1.460256
     29          1           0        0.658927   -3.092539    1.042676
     30          1           0        2.955155   -2.840273    0.142924
     31          1           0        1.766521   -3.187603   -1.104024
     32          1           0        3.507620   -1.466141   -1.760181
     33          1           0        1.836389   -0.967491   -1.997625
     34          1           0        4.344530    2.437220    0.947323
     35          1           0        0.872415    0.464035    0.128457
 ---------------------------------------------------------------------

 SCF Done:  E(UB3LYP) =  -758.757541608     A.U. after   32 cycles

 The electronic state is 2-A.
 Alpha  occ. eigenvalues --  -14.29833 -14.28874 -14.24783 -14.23748 -14.22129
 Alpha  occ. eigenvalues --  -14.21157 -10.14758 -10.13423 -10.12770 -10.12155
 Alpha  occ. eigenvalues --  -10.12071 -10.10234 -10.09911 -10.09064 -10.08234
 Alpha  occ. eigenvalues --  -10.07994 -10.07248  -0.98233  -0.96125  -0.82875
 Alpha  occ. eigenvalues --   -0.80047  -0.76072  -0.75046  -0.71349  -0.68303
 Alpha  occ. eigenvalues --   -0.65604  -0.61876  -0.57764  -0.56269  -0.53739
 Alpha  occ. eigenvalues --   -0.52739  -0.51398  -0.50315  -0.46576  -0.43778
 Alpha  occ. eigenvalues --   -0.43122  -0.39533  -0.39078  -0.38671  -0.37077
 Alpha  occ. eigenvalues --   -0.36756  -0.36122  -0.35694  -0.34545  -0.33924
 Alpha  occ. eigenvalues --   -0.32883  -0.32487  -0.30898  -0.30090  -0.29445
 Alpha  occ. eigenvalues --   -0.28934  -0.27706  -0.27206  -0.25963  -0.24872
 Alpha  occ. eigenvalues --   -0.23533  -0.20586  -0.20557  -0.19235  -0.17183
 Alpha  occ. eigenvalues --   -0.16629  -0.16026  -0.15605   0.04200
 Alpha virt. eigenvalues --    0.06931   0.07148   0.07276   0.08193   0.08618
 Alpha virt. eigenvalues --    0.08770   0.09155   0.09368   0.09680   0.10146
 Alpha virt. eigenvalues --    0.10875   0.11543   0.11852   0.12223   0.12587

  Beta  occ. eigenvalues --  -14.29822 -14.28854 -14.24772 -14.23738 -14.22091
  Beta  occ. eigenvalues --  -14.21147 -10.14750 -10.13420 -10.12773 -10.12156
  Beta  occ. eigenvalues --  -10.12043 -10.10203 -10.09910 -10.09045 -10.08227
  Beta  occ. eigenvalues --  -10.07952 -10.07225  -0.98211  -0.96108  -0.82821
  Beta  occ. eigenvalues --   -0.80023  -0.76057  -0.75015  -0.71322  -0.68248
  Beta  occ. eigenvalues --   -0.65586  -0.61821  -0.57676  -0.56248  -0.53722
  Beta  occ. eigenvalues --   -0.52689  -0.51370  -0.50245  -0.46552  -0.43745
  Beta  occ. eigenvalues --   -0.43083  -0.39480  -0.39024  -0.38635  -0.37015
  Beta  occ. eigenvalues --   -0.36720  -0.36076  -0.35653  -0.34504  -0.33883
  Beta  occ. eigenvalues --   -0.32850  -0.32436  -0.30873  -0.30067  -0.29424
  Beta  occ. eigenvalues --   -0.28892  -0.27697  -0.27143  -0.25897  -0.24824
  Beta  occ. eigenvalues --   -0.23500  -0.20553  -0.20509  -0.19219  -0.17124
  Beta  occ. eigenvalues --   -0.16591  -0.15975  -0.15561
  Beta virt. eigenvalues --    0.06712   0.07424   0.07500   0.07628   0.08231
  Beta virt. eigenvalues --    0.08948   0.09284   0.09341   0.09686   0.10028
  Beta virt. eigenvalues --    0.10727   0.11270   0.11693   0.12129   0.12347

 Mulliken charges and spin densities:
               1          2
     1  C   -0.508070  -0.071690
     2  C   -0.287926   0.148117
     3  N    0.359696   0.067759
     4  C   -0.725345   0.918448
     5  C    0.658741  -0.397670
     6  C    0.112243  -0.379501
     7  N   -0.267709   0.000097
     8  C    0.718607  -1.829561
     9  N   -0.218612  -0.014055
    10  C    0.179023  -0.383423
    11  C    1.182509  -1.678064
    12  C   -0.624625   0.210861
    13  C    0.226763  -0.377187
    14  N   -0.144085   0.049864
    15  C   -0.119957   0.146840
    16  N   -0.110488   0.015887
    17  N   -0.136344   0.053837
    18  H    0.087508   0.115312
    19  H    0.127130   0.011289
    20  H    0.112956   0.045281
    21  H    0.004084   0.136148
    22  H    0.155442   0.040639
    23  H   -0.902194   1.096962
    24  H   -0.009552   0.156785
    25  H    0.096137   0.074328
    26  H   -0.356445   0.548992
    27  H    0.216854   0.038310
    28  H    0.008046   0.172834
    29  H   -0.798299   0.981539
    30  H    0.021295   0.116291
    31  H   -0.834743   1.053972
    32  H   -0.068362   0.278029
    33  H   -0.199415   0.383169
    34  H    0.106295   0.060145
    35  H    0.938843  -0.790584
 Sum of Mulliken charges =  -1.00000   1.00000

 Dipole moment (field-independent basis, Debye):
    X=              0.2958    Y=              8.9104    Z=              1.8775  Tot=              9.1108
 Quadrupole moment (field-independent basis, Debye-Ang):
   XX=           -173.3842   YY=           -171.9018   ZZ=           -133.4016
   XY=             -3.6049   XZ=              3.9092   YZ=             -2.9997

 Summary of Natural Population Analysis:

                                       Natural Population
                Natural  -----------------------------------------------
    Atom  No    Charge         Core      Valence    Rydberg      Total
 -----------------------------------------------------------------------
      C    1   -0.29375      0.99966     2.28971    0.00438     3.29375
      C    2   -0.08187      0.99963     2.07285    0.00940     3.08187
      N    3   -0.10844      0.99961     2.59536    0.01347     3.60844
      C    4    0.07959      0.99952     1.90764    0.01324     2.92041
      C    5   -0.15433      0.99950     2.14546    0.00937     3.15433
      C    6   -0.01586      0.99964     2.00128    0.01494     3.01586
      N    7   -0.15714      0.99973     2.64668    0.01073     3.65714
      C    8   -0.10313      0.99959     2.09160    0.01195     3.10313
      N    9   -0.35775      0.99974     2.84517    0.01284     3.85775
      C   10   -0.08946      0.99962     2.07776    0.01207     3.08946
      C   11   -0.18738      0.99962     2.17850    0.00927     3.18738
      C   12   -0.21511      0.99959     2.20563    0.00989     3.21511
      C   13    0.19910      0.99962     1.78342    0.01787     2.80090
      N   14   -0.26926      0.99970     2.76076    0.00880     3.76926
      C   15    0.08095      0.99971     1.90020    0.01915     2.91905
      N   16   -0.16708      0.99974     2.65623    0.01110     3.66708
      N   17   -0.19266      0.99962     2.68163    0.01141     3.69266
      H   18    0.10292      0.00000     0.39566    0.00142     0.39708
      H   19    0.10449      0.00000     0.39452    0.00098     0.39551
      H   20    0.10479      0.00000     0.39416    0.00105     0.39521
      H   21    0.09944      0.00000     0.39918    0.00138     0.40056
      H   22    0.10099      0.00000     0.39792    0.00108     0.39901
      H   23    0.11416      0.00000     0.38428    0.00155     0.38584
      H   24    0.09616      0.00000     0.40301    0.00083     0.40384
      H   25    0.09598      0.00000     0.40255    0.00148     0.40402
      H   26    0.10243      0.00000     0.39535    0.00223     0.39757
      H   27    0.18509      0.00000     0.30834    0.00657     0.31491
      H   28    0.08877      0.00000     0.40956    0.00167     0.41123
      H   29    0.09657      0.00000     0.40033    0.00310     0.40343
      H   30    0.10169      0.00000     0.39710    0.00121     0.39831
      H   31    0.10748      0.00000     0.38752    0.00500     0.39252
      H   32    0.11435      0.00000     0.38441    0.00124     0.38565
      H   33    0.10999      0.00000     0.38832    0.00169     0.39001
      H   34    0.08936      0.00000     0.40989    0.00075     0.41064
      H   35    0.21892      0.00000     0.27705    0.00403     0.28108
 =======================================================================
   * Total *   -0.00000     16.99384    45.76902    0.23714    63.00000

 Normal termination of Gaussian 16 at Sun Dec 13 17:45:31 2020.
