 Gaussian 16, Revision A.03,

 -----------------------------------------------------------
 # opt freq B3LYP/6-31G(d) empiricaldispersion=gd3bj scf=xqc
 -----------------------------------------------------------

 ------------------------------
 CID_64087262_JID_6497_neutraal
 ------------------------------
 Symbolic Z-matrix:
 Charge =  0 Multiplicity = 1

 SCF Done:  E(RB3LYP) =  -709.552476439     A.U. after   15 cycles
 SCF Done:  E(RB3LYP) =  -709.571083883     A.U. after   13 cycles
 SCF Done:  E(RB3LYP) =  -709.570514829     A.U. after   14 cycles
 SCF Done:  E(RB3LYP) =  -709.569576127     A.U. after   13 cycles
 SCF Done:  E(RB3LYP) =  -709.567747317     A.U. after   12 cycles
 SCF Done:  E(RB3LYP) =  -709.571526748     A.U. after    9 cycles
 SCF Done:  E(RB3LYP) =  -709.572748524     A.U. after   12 cycles
 SCF Done:  E(RB3LYP) =  -709.572612980     A.U. after   12 cycles
 SCF Done:  E(RB3LYP) =  -709.571106671     A.U. after   13 cycles
 SCF Done:  E(RB3LYP) =  -709.573175827     A.U. after   11 cycles
 SCF Done:  E(RB3LYP) =  -709.573337230     A.U. after   11 cycles
 SCF Done:  E(RB3LYP) =  -709.573341626     A.U. after    9 cycles
 SCF Done:  E(RB3LYP) =  -709.573341805     A.U. after    8 cycles
 SCF Done:  E(RB3LYP) =  -709.573341821     A.U. after    7 cycles
 SCF Done:  E(RB3LYP) =  -709.573341871     A.U. after    7 cycles
 Optimization completed.
    -- Stationary point found.
 Normal termination of Gaussian 16 at Thu Dec 10 23:20:59 2020.

 --------------------------------------------------------------------
 #N Geom=AllCheck Guess=TCheck SCRF=Check GenChk RB3LYP/6-31G(d) Freq
 --------------------------------------------------------------------

 Structure from the checkpoint file:  "JID_6497.chk"
 ------------------------------
 CID_64087262_JID_6497_neutraal
 ------------------------------
 Charge =  0 Multiplicity = 1

 SCF Done:  E(RB3LYP) =  -709.573341871     A.U. after    1 cycles

  Exact polarizability: 176.887  13.147 153.435  -7.639  -5.384  90.761
 Approx polarizability: 234.876  17.155 256.252 -16.694 -12.241 141.330

                      1                      2                      3
                      A                      A                      A
 Frequencies --     27.1324                35.3321                63.0639
 Red. masses --      4.4939                 5.0476                 3.7779
 Frc consts  --      0.0019                 0.0037                 0.0089
 IR Inten    --      0.2330                 0.2379                 0.2880

                      4                      5                      6
                      A                      A                      A
 Frequencies --    104.3235               111.6246               132.7996
 Red. masses --      4.0050                 3.9849                 4.1480
 Frc consts  --      0.0257                 0.0293                 0.0431
 IR Inten    --      4.1193                 3.9288                 0.2332

                      7                      8                      9
                      A                      A                      A
 Frequencies --    191.5373               204.4610               243.7099
 Red. masses --      4.3135                 2.6988                 3.3154
 Frc consts  --      0.0932                 0.0665                 0.1160
 IR Inten    --      0.0889                 0.3108                 2.3251

                     10                     11                     12
                      A                      A                      A
 Frequencies --    277.6009               304.1271               320.1842
 Red. masses --      2.2341                 3.2281                 4.9972
 Frc consts  --      0.1014                 0.1759                 0.3018
 IR Inten    --      4.9501                 1.7745                 0.3589

                     13                     14                     15
                      A                      A                      A
 Frequencies --    336.5186               359.5112               414.5657
 Red. masses --      2.1932                 2.8852                 3.9623
 Frc consts  --      0.1463                 0.2197                 0.4012
 IR Inten    --      4.9365                 4.0674                 3.0614

                     16                     17                     18
                      A                      A                      A
 Frequencies --    461.5936               476.0520               520.0380
 Red. masses --      5.6985                 6.9918                 3.8815
 Frc consts  --      0.7154                 0.9336                 0.6185
 IR Inten    --      3.4594                 1.2214                 1.9353

                     19                     20                     21
                      A                      A                      A
 Frequencies --    532.7280               546.1290               571.4611
 Red. masses --      4.3442                 4.3256                 4.2127
 Frc consts  --      0.7264                 0.7601                 0.8106
 IR Inten    --      1.7804                 3.0387                 4.8265

                     22                     23                     24
                      A                      A                      A
 Frequencies --    595.5820               604.2800               621.7708
 Red. masses --      2.3598                 1.3780                 1.2273
 Frc consts  --      0.4932                 0.2965                 0.2796
 IR Inten    --     17.4853                33.2760                55.7393

                     25                     26                     27
                      A                      A                      A
 Frequencies --    665.8128               705.2222               718.1967
 Red. masses --      2.6744                 3.6741                 3.9826
 Frc consts  --      0.6985                 1.0766                 1.2103
 IR Inten    --      2.6961                 8.5131                 5.1634

                     28                     29                     30
                      A                      A                      A
 Frequencies --    784.5874               791.8694               820.9684
 Red. masses --      1.3514                 1.9784                 4.4362
 Frc consts  --      0.4902                 0.7309                 1.7616
 IR Inten    --     75.3552                71.8904                25.7809

                     31                     32                     33
                      A                      A                      A
 Frequencies --    849.6076               871.1222               902.1160
 Red. masses --      1.9419                 1.9367                 1.4347
 Frc consts  --      0.8259                 0.8659                 0.6879
 IR Inten    --      0.2558                27.0303                16.0060

                     34                     35                     36
                      A                      A                      A
 Frequencies --    904.5579               940.8424               956.7549
 Red. masses --      2.5330                 2.4978                 1.2804
 Frc consts  --      1.2211                 1.3027                 0.6905
 IR Inten    --     13.8723                 9.3125                 1.0435

                     37                     38                     39
                      A                      A                      A
 Frequencies --    972.9594               980.8651              1037.7046
 Red. masses --      1.9422                 3.4186                 2.3811
 Frc consts  --      1.0833                 1.9378                 1.5107
 IR Inten    --      8.7184                26.9313                 2.5301

                     40                     41                     42
                      A                      A                      A
 Frequencies --   1085.2409              1092.0144              1111.2717
 Red. masses --      3.3651                 1.9300                 2.8212
 Frc consts  --      2.3351                 1.3560                 2.0527
 IR Inten    --     16.5538                 0.7685                58.2783

                     43                     44                     45
                      A                      A                      A
 Frequencies --   1116.3865              1135.8850              1141.4831
 Red. masses --      2.5999                 2.0523                 2.0797
 Frc consts  --      1.9091                 1.5601                 1.5966
 IR Inten    --      4.8752                17.2436                37.3561

                     46                     47                     48
                      A                      A                      A
 Frequencies --   1180.6993              1199.3914              1226.6150
 Red. masses --      3.3297                 1.3114                 3.3929
 Frc consts  --      2.7349                 1.1115                 3.0077
 IR Inten    --     29.8965                 5.2931                25.0218

                     49                     50                     51
                      A                      A                      A
 Frequencies --   1238.1165              1252.9563              1270.0574
 Red. masses --      1.2379                 1.1462                 1.3626
 Frc consts  --      1.1180                 1.0602                 1.2949
 IR Inten    --      6.5438                 1.1673                 0.1889

                     52                     53                     54
                      A                      A                      A
 Frequencies --   1292.7447              1299.1286              1326.1357
 Red. masses --      1.5836                 1.5580                 2.0701
 Frc consts  --      1.5593                 1.5492                 2.1450
 IR Inten    --     27.8994                61.5150               202.6519

                     55                     56                     57
                      A                      A                      A
 Frequencies --   1341.3183              1352.3782              1368.7793
 Red. masses --      1.2607                 2.5907                 1.4163
 Frc consts  --      1.3364                 2.7917                 1.5634
 IR Inten    --      4.5284                18.2473                 2.7828

                     58                     59                     60
                      A                      A                      A
 Frequencies --   1393.8704              1411.6170              1419.2110
 Red. masses --      1.6016                 1.3510                 1.3712
 Frc consts  --      1.8334                 1.5862                 1.6272
 IR Inten    --     29.4396                14.2086                37.4382

                     61                     62                     63
                      A                      A                      A
 Frequencies --   1429.6567              1494.7913              1497.4079
 Red. masses --      1.4508                 1.0974                 1.1258
 Frc consts  --      1.7471                 1.4447                 1.4872
 IR Inten    --     12.8781                 6.1238                 5.6464

                     64                     65                     66
                      A                      A                      A
 Frequencies --   1510.3245              1519.1503              1528.5826
 Red. masses --      2.2599                 1.3406                 1.2352
 Frc consts  --      3.0372                 1.8229                 1.7005
 IR Inten    --    141.4900                10.2383                61.4583

                     67                     68                     69
                      A                      A                      A
 Frequencies --   1529.8198              1534.1501              1550.9887
 Red. masses --      1.3162                 1.7759                 1.0855
 Frc consts  --      1.8149                 2.4627                 1.5385
 IR Inten    --     23.8007                 9.1681                 1.0303

                     70                     71                     72
                      A                      A                      A
 Frequencies --   1656.0465              1658.9210              2235.5544
 Red. masses --      6.8120                 6.7099                 5.9859
 Frc consts  --     11.0070                10.8797                17.6258
 IR Inten    --     21.1880                14.9107                 1.5894

                     73                     74                     75
                      A                      A                      A
 Frequencies --   2991.7515              3034.5182              3039.9219
 Red. masses --      1.0696                 1.0705                 1.0661
 Frc consts  --      5.6404                 5.8077                 5.8044
 IR Inten    --     46.5739                39.8093                29.8954

                     76                     77                     78
                      A                      A                      A
 Frequencies --   3045.6437              3046.3607              3064.0706
 Red. masses --      1.0648                 1.0617                 1.0890
 Frc consts  --      5.8195                 5.8049                 6.0239
 IR Inten    --     58.2913                 7.9197                52.7821

                     79                     80                     81
                      A                      A                      A
 Frequencies --   3083.4599              3086.8478              3129.2764
 Red. masses --      1.0974                 1.1036                 1.1005
 Frc consts  --      6.1475                 6.1956                 6.3494
 IR Inten    --     16.2259                15.3484                29.0295

                     82                     83                     84
                      A                      A                      A
 Frequencies --   3129.9322              3192.3421              3206.5997
 Red. masses --      1.0975                 1.0860                 1.0911
 Frc consts  --      6.3349                 6.5205                 6.6103
 IR Inten    --     42.3454                 5.1103                 6.4879

                     85                     86                     87
                      A                      A                      A
 Frequencies --   3218.1088              3493.9678              3495.2565
 Red. masses --      1.0954                 1.0802                 1.1514
 Frc consts  --      6.6840                 7.7695                 8.2879
 IR Inten    --     12.9024                 3.9567                52.9946

 - Thermochemistry -
 -------------------
 Temperature   298.150 Kelvin.  Pressure   1.00000 Atm.
 Atom     1 has atomic number  6 and mass  12.00000

 Molecular mass:   217.11028 amu.
 Principal axes and moments of inertia in atomic units:
                           1         2         3
     Eigenvalues --  1524.724776511.993447620.43381
           X            0.99999   0.00416   0.00177
           Y           -0.00414   0.99994  -0.00990
           Z           -0.00181   0.00990   0.99995
 This molecule is an asymmetric top.
 Rotational symmetry number  1.
 Warning -- assumption of classical behavior for rotation
           may cause significant error
 Rotational temperatures (Kelvin)      0.05681     0.01330     0.01137
 Rotational constants (GHZ):           1.18365     0.27714     0.23683
 Zero-point vibrational energy     679587.0 (Joules/Mol)
                                  162.42518 (Kcal/Mol)
 Warning -- explicit consideration of  23 degrees of freedom as
           vibrations may cause significant error
 Vibrational temperatures:     39.04    50.83    90.73   150.10   160.60
          (Kelvin)            191.07   275.58   294.17   350.64   399.41
                              437.57   460.67   484.18   517.26   596.47
                              664.13   684.93   748.22   766.48   785.76
                              822.21   856.91   869.42   894.59   957.96
                             1014.66  1033.32  1128.85  1139.32  1181.19
                             1222.40  1253.35  1297.94  1301.46  1353.66
                             1376.56  1399.87  1411.25  1493.03  1561.42
                             1571.17  1598.87  1606.23  1634.29  1642.34
                             1698.76  1725.66  1764.83  1781.37  1802.72
                             1827.33  1859.97  1869.16  1908.01  1929.86
                             1945.77  1969.37  2005.47  2031.00  2041.93
                             2056.96  2150.67  2154.44  2173.02  2185.72
                             2199.29  2201.07  2207.30  2231.53  2382.68
                             2386.82  3216.46  4304.46  4365.99  4373.77
                             4382.00  4383.03  4408.51  4436.41  4441.29
                             4502.33  4503.27  4593.07  4613.58  4630.14
                             5027.04  5028.89

 Zero-point correction=                           0.258841 (Hartree/Particle)
 Thermal correction to Energy=                    0.273369
 Thermal correction to Enthalpy=                  0.274314
 Thermal correction to Gibbs Free Energy=         0.216188
 Sum of electronic and zero-point Energies=           -709.314501
 Sum of electronic and thermal Energies=              -709.299972
 Sum of electronic and thermal Enthalpies=            -709.299028
 Sum of electronic and thermal Free Energies=         -709.357154

                     E (Thermal)             CV                S
                      KCal/Mol        Cal/Mol-Kelvin    Cal/Mol-Kelvin
 Total                  171.542             56.283            122.336
 Electronic               0.000              0.000              0.000
 Translational            0.889              2.981             42.029
 Rotational               0.889              2.981             32.692
 Vibrational            169.764             50.322             47.615
 Vibration     1          0.593              1.984              6.029
 Vibration     2          0.594              1.982              5.505
 Vibration     3          0.597              1.972              4.359
 Vibration     4          0.605              1.946              3.372
 Vibration     5          0.607              1.940              3.240
 Vibration     6          0.613              1.921              2.905
 Vibration     7          0.634              1.852              2.213
 Vibration     8          0.640              1.834              2.093
 Vibration     9          0.659              1.773              1.776
 Vibration    10          0.679              1.715              1.548
 Vibration    11          0.695              1.666              1.394
 Vibration    12          0.706              1.635              1.309
 Vibration    13          0.717              1.603              1.229
 Vibration    14          0.734              1.556              1.124
 Vibration    15          0.778              1.439              0.911
 Vibration    16          0.819              1.335              0.761
 Vibration    17          0.833              1.303              0.721
 Vibration    18          0.875              1.206              0.610
 Vibration    19          0.888              1.178              0.581
 Vibration    20          0.901              1.148              0.552
 Vibration    21          0.928              1.093              0.501
 Vibration    22          0.953              1.041              0.457
 Vibration    23          0.963              1.023              0.442

 Optimization completed.
    -- Stationary point found.
 Normal termination of Gaussian 16 at Thu Dec 10 23:30:41 2020.

 ----------------------------------------------------------------------
 # B3LYP/6-311++G(d,p) empiricaldispersion=gd3bj scf=xqc pop=npa geom=c
 heck
 ----------------------------------------------------------------------

 --------------------------------------
 CID_64087262_JID_6497_Energie_neutraal
 --------------------------------------
 Structure from the checkpoint file:  "JID_6497.chk"
 Charge =  0 Multiplicity = 1

 SCF Done:  E(RB3LYP) =  -709.771804060     A.U. after   15 cycles
 Normal termination of Gaussian 16 at Thu Dec 10 23:34:39 2020.

 ----------------------------------------------------------------------
 # B3LYP/6-311++G(d,p) empiricaldispersion=gd3bj scf=xqc pop=npa geom=c
 heck
 ----------------------------------------------------------------------

 ------------------------------------
 CID_64087262_JID_6497_Energie_kation
 ------------------------------------
 Structure from the checkpoint file:  "JID_6497.chk"
 Charge =  1 Multiplicity = 2

 SCF Done:  E(UB3LYP) =  -709.488415869     A.U. after   29 cycles
 Normal termination of Gaussian 16 at Thu Dec 10 23:44:29 2020.
 Gaussian 16:  ES64L-G16RevA.03 25-Dec-2016

 ----------------------------------------------------------------------
 # B3LYP/6-311++G(d,p) empiricaldispersion=gd3bj scf=xqc pop=npa geom=c
 heck
 ----------------------------------------------------------------------

 -----------------------------------
 CID_64087262_JID_6497_Energie_anion
 -----------------------------------
 Structure from the checkpoint file:  "JID_6497.chk"
 Charge = -1 Multiplicity = 2

                         Standard orientation:
 ---------------------------------------------------------------------
 Center     Atomic      Atomic             Coordinates (Angstroms)
 Number     Number       Type             X           Y           Z
 ---------------------------------------------------------------------
      1          6           0        4.718822    1.419574   -0.495597
      2          6           0        4.491935    0.400126    0.112121
      3          6           0        4.156305   -0.835449    0.822326
      4          6           0        2.641209   -1.097671    0.828127
      5          7           0        2.161360   -1.296583   -0.534304
      6          6           0        0.712755   -1.371434   -0.652131
      7          6           0       -0.074856   -0.098915   -0.351574
      8          6           0       -1.459212   -0.196555   -0.157479
      9          6           0       -2.231424    0.944495    0.104787
     10          6           0       -1.625839    2.200190    0.144809
     11          6           0       -0.254367    2.307522   -0.062674
     12          6           0        0.515064    1.165775   -0.300527
     13          8           0       -3.588444    0.870216    0.320477
     14          6           0       -4.049809   -0.446015    0.611963
     15          6           0       -3.444909   -1.436528   -0.368124
     16          8           0       -2.026380   -1.451985   -0.232143
     17          1           0        4.946409    2.319432   -1.020046
     18          1           0        4.662360   -1.683091    0.343169
     19          1           0        4.519853   -0.780171    1.856033
     20          1           0        2.444593   -2.014263    1.398724
     21          1           0        2.139595   -0.270719    1.357286
     22          1           0        2.526503   -0.556347   -1.131165
     23          1           0        0.469596   -1.704040   -1.670187
     24          1           0        0.359832   -2.173142    0.006685
     25          1           0       -2.246906    3.067073    0.346038
     26          1           0        0.220539    3.283436   -0.028268
     27          1           0        1.586595    1.263214   -0.444759
     28          1           0       -5.139347   -0.417514    0.530865
     29          1           0       -3.771224   -0.721669    1.638663
     30          1           0       -3.785794   -2.456054   -0.170734
     31          1           0       -3.717568   -1.156602   -1.395011
 ---------------------------------------------------------------------

 SCF Done:  E(UB3LYP) =  -709.757848807     A.U. after   33 cycles
 SCF Done:  E(UB3LYP) =  -709.757848807     a.u. after    1 cycles

 The electronic state is 2-A.
 Alpha  occ. eigenvalues --  -19.06497 -19.06489 -14.21221 -10.14315 -10.14115
 Alpha  occ. eigenvalues --  -10.13769 -10.13719 -10.11243 -10.11184 -10.10877
 Alpha  occ. eigenvalues --  -10.09561 -10.09125 -10.08379 -10.08321 -10.08202
 Alpha  occ. eigenvalues --  -10.07896  -0.99942  -0.96358  -0.82788  -0.76869
 Alpha  occ. eigenvalues --   -0.71466  -0.68665  -0.67636  -0.64401  -0.62374
 Alpha  occ. eigenvalues --   -0.59013  -0.57708  -0.54309  -0.50769  -0.48216
 Alpha  occ. eigenvalues --   -0.45394  -0.45000  -0.43012  -0.42389  -0.40410
 Alpha  occ. eigenvalues --   -0.39222  -0.38518  -0.37446  -0.36007  -0.35115
 Alpha  occ. eigenvalues --   -0.34580  -0.34304  -0.32069  -0.31240  -0.30814
 Alpha  occ. eigenvalues --   -0.30129  -0.29095  -0.28522  -0.27678  -0.26850
 Alpha  occ. eigenvalues --   -0.24294  -0.23069  -0.21743  -0.19622  -0.19350
 Alpha  occ. eigenvalues --   -0.14743  -0.14357  -0.12819   0.04106
 Alpha virt. eigenvalues --    0.05284   0.06138   0.07400   0.07632   0.08107
 Alpha virt. eigenvalues --    0.08212   0.08530   0.08859   0.09173   0.09737
 Alpha virt. eigenvalues --    0.10009   0.10781   0.11073   0.11214   0.12180

  Beta  occ. eigenvalues --  -19.06498 -19.06490 -14.21217 -10.14307 -10.14107
  Beta  occ. eigenvalues --  -10.13730 -10.13680 -10.11222 -10.11169 -10.10872
  Beta  occ. eigenvalues --  -10.09561 -10.09127 -10.08376 -10.08315 -10.08176
  Beta  occ. eigenvalues --  -10.07889  -0.99932  -0.96351  -0.82779  -0.76854
  Beta  occ. eigenvalues --   -0.71438  -0.68622  -0.67621  -0.64376  -0.62346
  Beta  occ. eigenvalues --   -0.58981  -0.57658  -0.54267  -0.50751  -0.48160
  Beta  occ. eigenvalues --   -0.45373  -0.44944  -0.42985  -0.42361  -0.40386
  Beta  occ. eigenvalues --   -0.39198  -0.38487  -0.37416  -0.35954  -0.35090
  Beta  occ. eigenvalues --   -0.34552  -0.34268  -0.32044  -0.31218  -0.30796
  Beta  occ. eigenvalues --   -0.30109  -0.29066  -0.28504  -0.27658  -0.26832
  Beta  occ. eigenvalues --   -0.24268  -0.23048  -0.21714  -0.19582  -0.19326
  Beta  occ. eigenvalues --   -0.14731  -0.14345  -0.12793
  Beta virt. eigenvalues --    0.06024   0.06760   0.06890   0.07476   0.07892
  Beta virt. eigenvalues --    0.08298   0.08757   0.08847   0.09141   0.09580
  Beta virt. eigenvalues --    0.09955   0.10508   0.10954   0.11244   0.11337

 Mulliken charges and spin densities:
               1          2
     1  C   -3.942846   2.476932
     2  C    3.705811  -2.186951
     3  C    1.355916  -2.119457
     4  C   -0.430665   0.202962
     5  N   -0.041838   0.022203
     6  C   -0.391809  -0.184846
     7  C    0.823943   0.064798
     8  C   -0.044736   0.357541
     9  C    0.073111  -0.626224
    10  C    0.505826  -0.581849
    11  C   -0.559139   0.192158
    12  C   -0.594902   0.033574
    13  O   -0.187479   0.066372
    14  C    0.597748  -0.844082
    15  C    0.371565  -0.591874
    16  O   -0.200990   0.078598
    17  H   -0.908163   1.051560
    18  H    0.098492   0.085589
    19  H   -0.220898   0.414945
    20  H   -0.255428   0.411100
    21  H    0.055180   0.055996
    22  H    0.190846  -0.014705
    23  H    0.124193   0.090057
    24  H    0.049471   0.160362
    25  H    0.054586   0.114488
    26  H   -0.047524   0.216848
    27  H    0.402241  -0.265527
    28  H   -0.903569   1.106011
    29  H    0.067217   0.105311
    30  H   -0.871020   1.072194
    31  H    0.124857   0.035916
 Sum of Mulliken charges =  -1.00000   1.00000

 Dipole moment (field-independent basis, Debye):
    X=              2.3869    Y=              2.1598    Z=             -1.1588  Tot=              3.4212
 Quadrupole moment (field-independent basis, Debye-Ang):
   XX=           -218.3911   YY=           -141.9675   ZZ=           -122.7810
   XY=            -22.1113   XZ=              1.9948   YZ=              4.0923

 Summary of Natural Population Analysis:

                                       Natural Population
                Natural  -----------------------------------------------
    Atom  No    Charge         Core      Valence    Rydberg      Total
 -----------------------------------------------------------------------
      C    1   -0.12538      0.99926     2.12219    0.00392     3.12538
      C    2   -0.00312      0.99938     1.99545    0.00829     3.00312
      C    3   -0.23522      0.99956     2.22564    0.01002     3.23522
      C    4   -0.08151      0.99962     2.06996    0.01193     3.08151
      N    5   -0.34012      0.99975     2.82994    0.01043     3.84012
      C    6   -0.09343      0.99959     2.08298    0.01087     3.09343
      C    7   -0.03376      0.99948     2.02611    0.00817     3.03376
      C    8    0.12731      0.99929     1.86125    0.01214     2.87269
      C    9    0.13050      0.99934     1.85785    0.01232     2.86950
      C   10   -0.12081      0.99953     2.11172    0.00956     3.12081
      C   11   -0.10391      0.99957     2.09486    0.00947     3.10391
      C   12   -0.11616      0.99953     2.10837    0.00826     3.11616
      O   13   -0.27535      0.99987     3.26608    0.00940     4.27535
      C   14   -0.02409      0.99958     2.01182    0.01269     3.02409
      C   15   -0.02274      0.99958     2.01077    0.01239     3.02274
      O   16   -0.27649      0.99987     3.26728    0.00934     4.27649
      H   17    0.11334      0.00000     0.38468    0.00198     0.38666
      H   18    0.11426      0.00000     0.38414    0.00160     0.38574
      H   19    0.11620      0.00000     0.38218    0.00163     0.38380
      H   20    0.09486      0.00000     0.40369    0.00145     0.40514
      H   21    0.08705      0.00000     0.41115    0.00180     0.41295
      H   22    0.17531      0.00000     0.32127    0.00342     0.32469
      H   23    0.10217      0.00000     0.39669    0.00114     0.39783
      H   24    0.10414      0.00000     0.39421    0.00165     0.39586
      H   25    0.10547      0.00000     0.39348    0.00105     0.39453
      H   26    0.10037      0.00000     0.39883    0.00080     0.39963
      H   27    0.10436      0.00000     0.39372    0.00192     0.39564
      H   28    0.10158      0.00000     0.39498    0.00344     0.39842
      H   29    0.08688      0.00000     0.41140    0.00171     0.41312
      H   30    0.10232      0.00000     0.39404    0.00364     0.39768
      H   31    0.08598      0.00000     0.41249    0.00154     0.41402
 =======================================================================
   * Total *    0.00000     15.99280    41.81923    0.18798    58.00000

 Normal termination of Gaussian 16 at Thu Dec 10 23:56:02 2020.
