 Gaussian 16, Revision A.03,

 -----------------------------------------------------------
 # opt freq B3LYP/6-31G(d) empiricaldispersion=gd3bj scf=xqc
 -----------------------------------------------------------

 ------------------------------
 CID_67962217_JID_4755_neutraal
 ------------------------------
 Symbolic Z-matrix:
 Charge =  0 Multiplicity = 1

 SCF Done:  E(RB3LYP) =  -566.448987680     A.U. after   13 cycles
 SCF Done:  E(RB3LYP) =  -566.451487049     A.U. after   10 cycles
 SCF Done:  E(RB3LYP) =  -566.450933317     A.U. after   10 cycles
 SCF Done:  E(RB3LYP) =  -566.450676960     A.U. after   11 cycles
 SCF Done:  E(RB3LYP) =  -566.449119426     A.U. after   10 cycles
 SCF Done:  E(RB3LYP) =  -566.451630591     A.U. after    8 cycles
 SCF Done:  E(RB3LYP) =  -566.452523923     A.U. after   10 cycles
 SCF Done:  E(RB3LYP) =  -566.452575470     A.U. after    9 cycles
 SCF Done:  E(RB3LYP) =  -566.452544603     A.U. after    9 cycles
 SCF Done:  E(RB3LYP) =  -566.452593453     A.U. after    9 cycles
 SCF Done:  E(RB3LYP) =  -566.452611048     A.U. after    8 cycles
 SCF Done:  E(RB3LYP) =  -566.452614913     A.U. after    7 cycles
 SCF Done:  E(RB3LYP) =  -566.452615522     A.U. after    7 cycles
 Optimization completed.
    -- Stationary point found.
 Normal termination of Gaussian 16 at Thu Dec 10 10:39:37 2020.

 --------------------------------------------------------------------
 #N Geom=AllCheck Guess=TCheck SCRF=Check GenChk RB3LYP/6-31G(d) Freq
 --------------------------------------------------------------------

 Structure from the checkpoint file:  "JID_4755.chk"
 ------------------------------
 CID_67962217_JID_4755_neutraal
 ------------------------------
 Charge =  0 Multiplicity = 1

 SCF Done:  E(RB3LYP) =  -566.452615522     A.U. after    1 cycles

  Exact polarizability: 156.385  -1.150 135.356  -0.072   0.143 130.037
 Approx polarizability: 198.354   1.133 198.646  -0.639  -0.215 194.507

                      1                      2                      3
                      A                      A                      A
 Frequencies --     68.9586               102.6610               127.4781
 Red. masses --      2.9532                 2.7225                 2.2098
 Frc consts  --      0.0083                 0.0169                 0.0212
 IR Inten    --      0.2266                 0.1427                 0.0400

                      4                      5                      6
                      A                      A                      A
 Frequencies --    200.8606               204.0500               227.5890
 Red. masses --      1.6497                 1.8795                 2.6913
 Frc consts  --      0.0392                 0.0461                 0.0821
 IR Inten    --      0.0511                 0.1202                 1.1143

                      7                      8                      9
                      A                      A                      A
 Frequencies --    234.6818               257.3291               262.2569
 Red. masses --      2.9140                 1.1622                 2.0339
 Frc consts  --      0.0946                 0.0453                 0.0824
 IR Inten    --      0.4093                 0.0286                 0.4826

                     10                     11                     12
                      A                      A                      A
 Frequencies --    266.9918               298.7231               307.6683
 Red. masses --      1.2631                 2.0408                 1.1176
 Frc consts  --      0.0531                 0.1073                 0.0623
 IR Inten    --      0.4121                 0.1445                 0.2305

                     13                     14                     15
                      A                      A                      A
 Frequencies --    317.3414               320.9671               345.9708
 Red. masses --      1.9926                 2.4630                 1.8405
 Frc consts  --      0.1182                 0.1495                 0.1298
 IR Inten    --      0.0422                 0.0310                 0.3026

                     16                     17                     18
                      A                      A                      A
 Frequencies --    354.4547               358.7916               373.3513
 Red. masses --      1.4442                 2.1968                 1.4301
 Frc consts  --      0.1069                 0.1666                 0.1174
 IR Inten    --      0.1601                 0.4318                 2.1902

                     19                     20                     21
                      A                      A                      A
 Frequencies --    387.0441               396.6167               417.9422
 Red. masses --      1.4709                 2.1104                 2.1191
 Frc consts  --      0.1298                 0.1956                 0.2181
 IR Inten    --      0.8781                 1.5225                 0.4761

                     22                     23                     24
                      A                      A                      A
 Frequencies --    423.7292               434.3919               480.1089
 Red. masses --      2.1650                 2.2426                 2.1179
 Frc consts  --      0.2290                 0.2493                 0.2876
 IR Inten    --      0.5481                 0.1058                 0.5022

                     25                     26                     27
                      A                      A                      A
 Frequencies --    495.8474               514.4314               576.0784
 Red. masses --      2.7201                 3.0500                 3.1677
 Frc consts  --      0.3940                 0.4756                 0.6194
 IR Inten    --      0.0960                 0.3875                 1.5259

                     28                     29                     30
                      A                      A                      A
 Frequencies --    603.3576               641.1678               785.9377
 Red. masses --      2.3578                 2.3207                 3.0818
 Frc consts  --      0.5057                 0.5621                 1.1216
 IR Inten    --      0.1109                 0.7110                 5.2410

                     31                     32                     33
                      A                      A                      A
 Frequencies --    819.9915               831.0009               871.3960
 Red. masses --      1.5651                 2.4398                 3.1490
 Frc consts  --      0.6200                 0.9927                 1.4088
 IR Inten    --      0.2057                 2.1173                 2.3972

                     34                     35                     36
                      A                      A                      A
 Frequencies --    914.3212               938.7018               945.5807
 Red. masses --      2.2072                 2.0104                 1.4197
 Frc consts  --      1.0871                 1.0437                 0.7479
 IR Inten    --      0.0206                 0.5902                 0.1797

                     37                     38                     39
                      A                      A                      A
 Frequencies --    946.2351               951.7476               964.2120
 Red. masses --      1.7845                 1.7711                 1.9879
 Frc consts  --      0.9414                 0.9452                 1.0889
 IR Inten    --      1.0706                 0.7364                 3.4267

                     40                     41                     42
                      A                      A                      A
 Frequencies --    974.7596               983.5499              1025.2528
 Red. masses --      1.2035                 1.3915                 2.2301
 Frc consts  --      0.6737                 0.7931                 1.3811
 IR Inten    --      0.0250                 0.0665                17.3206

                     43                     44                     45
                      A                      A                      A
 Frequencies --   1049.9287              1057.8045              1063.5837
 Red. masses --      1.4810                 1.6536                 1.5753
 Frc consts  --      0.9619                 1.0902                 1.0499
 IR Inten    --      3.7469                 2.0246                 0.8759

                     46                     47                     48
                      A                      A                      A
 Frequencies --   1085.0322              1091.6133              1111.7623
 Red. masses --      1.7818                 1.8130                 1.7044
 Frc consts  --      1.2360                 1.2728                 1.2412
 IR Inten    --      7.7531                10.5601                17.8503

                     49                     50                     51
                      A                      A                      A
 Frequencies --   1133.9676              1156.8608              1166.8304
 Red. masses --      2.5542                 1.4814                 2.3430
 Frc consts  --      1.9351                 1.1681                 1.8795
 IR Inten    --      0.5762                 5.0439                 0.6848

                     52                     53                     54
                      A                      A                      A
 Frequencies --   1185.0693              1202.1746              1221.6124
 Red. masses --      2.5300                 2.0768                 2.0883
 Frc consts  --      2.0934                 1.7684                 1.8362
 IR Inten    --     20.1768                14.4815                 6.3872

                     55                     56                     57
                      A                      A                      A
 Frequencies --   1236.7898              1241.8418              1253.1251
 Red. masses --      1.6171                 1.3505                 2.7003
 Frc consts  --      1.4574                 1.2271                 2.4984
 IR Inten    --      1.3355                10.7305                 6.0650

                     58                     59                     60
                      A                      A                      A
 Frequencies --   1256.2978              1274.4388              1328.7012
 Red. masses --      2.2366                 2.3278                 1.3803
 Frc consts  --      2.0798                 2.2276                 1.4357
 IR Inten    --      6.4603                 0.9451                11.1465

                     61                     62                     63
                      A                      A                      A
 Frequencies --   1338.9595              1344.9298              1375.8866
 Red. masses --      1.9136                 1.3782                 1.3359
 Frc consts  --      2.0213                 1.4688                 1.4900
 IR Inten    --     17.4578                 8.5970                 3.1675

                     64                     65                     66
                      A                      A                      A
 Frequencies --   1393.8697              1403.5647              1415.5324
 Red. masses --      1.2967                 1.3811                 1.2573
 Frc consts  --      1.4844                 1.6030                 1.4843
 IR Inten    --      0.2181                 0.7538                 3.1860

                     67                     68                     69
                      A                      A                      A
 Frequencies --   1429.0847              1431.8027              1434.3481
 Red. masses --      1.2518                 1.2192                 1.2899
 Frc consts  --      1.5063                 1.4727                 1.5635
 IR Inten    --      3.7212                 3.0006                12.6235

                     70                     71                     72
                      A                      A                      A
 Frequencies --   1436.9645              1448.1255              1455.9695
 Red. masses --      1.2572                 1.2565                 1.2216
 Frc consts  --      1.5295                 1.5525                 1.5257
 IR Inten    --     10.4037                 5.7189                23.4337

                     73                     74                     75
                      A                      A                      A
 Frequencies --   1466.5341              1486.3083              1505.0476
 Red. masses --      1.2096                 1.2113                 1.0788
 Frc consts  --      1.5328                 1.5767                 1.4398
 IR Inten    --     12.7599                 0.4834                 2.3962

                     76                     77                     78
                      A                      A                      A
 Frequencies --   1511.1898              1515.2340              1518.2979
 Red. masses --      1.0703                 1.0489                 1.0574
 Frc consts  --      1.4401                 1.4189                 1.4362
 IR Inten    --      1.0372                14.0996                 5.9873

                     79                     80                     81
                      A                      A                      A
 Frequencies --   1520.4643              1522.8309              1526.9114
 Red. masses --      1.0507                 1.0453                 1.0602
 Frc consts  --      1.4312                 1.4282                 1.4563
 IR Inten    --      0.0628                 1.2178                12.4379

                     82                     83                     84
                      A                      A                      A
 Frequencies --   1532.8125              1536.0889              1538.3521
 Red. masses --      1.0595                 1.0560                 1.0583
 Frc consts  --      1.4666                 1.4681                 1.4756
 IR Inten    --      1.4733                 2.0760                 0.6015

                     85                     86                     87
                      A                      A                      A
 Frequencies --   1542.8176              1549.3427              1551.5343
 Red. masses --      1.0524                 1.0571                 1.0592
 Frc consts  --      1.4759                 1.4951                 1.5023
 IR Inten    --      1.9007                 5.9722                 2.9693

                     88                     89                     90
                      A                      A                      A
 Frequencies --   1555.4434              1558.6986              1567.2862
 Red. masses --      1.0556                 1.0713                 1.0632
 Frc consts  --      1.5047                 1.5335                 1.5387
 IR Inten    --      5.1251                 5.5392                 9.3667

                     91                     92                     93
                      A                      A                      A
 Frequencies --   2924.6251              2941.2890              2988.1049
 Red. masses --      1.0630                 1.0716                 1.0696
 Frc consts  --      5.3572                 5.4621                 5.6271
 IR Inten    --     63.7916                87.9330                68.8710

                     94                     95                     96
                      A                      A                      A
 Frequencies --   3016.1634              3043.9384              3051.6895
 Red. masses --      1.0837                 1.0725                 1.0756
 Frc consts  --      5.8086                 5.8550                 5.9018
 IR Inten    --     19.1223                12.5507                22.8969

                     97                     98                     99
                      A                      A                      A
 Frequencies --   3052.2716              3052.9448              3053.9708
 Red. masses --      1.0418                 1.0416                 1.0427
 Frc consts  --      5.7184                 5.7201                 5.7299
 IR Inten    --      3.0298                23.1224                13.5841

                    100                    101                    102
                      A                      A                      A
 Frequencies --   3058.5697              3060.9151              3063.0347
 Red. masses --      1.0728                 1.0475                 1.0545
 Frc consts  --      5.9131                 5.7825                 5.8289
 IR Inten    --     44.3299                78.8098                65.0426

                    103                    104                    105
                      A                      A                      A
 Frequencies --   3067.2679              3072.4942              3091.4335
 Red. masses --      1.0678                 1.0690                 1.1026
 Frc consts  --      5.9187                 5.9459                 6.2085
 IR Inten    --     15.2735                69.8982                36.2718

                    106                    107                    108
                      A                      A                      A
 Frequencies --   3108.3489              3110.0374              3111.4589
 Red. masses --      1.0995                 1.0975                 1.0970
 Frc consts  --      6.2592                 6.2542                 6.2575
 IR Inten    --     26.0413                37.6978                25.0751

                    109                    110                    111
                      A                      A                      A
 Frequencies --   3116.4417              3118.8557              3124.9203
 Red. masses --      1.1040                 1.0964                 1.0912
 Frc consts  --      6.3176                 6.2836                 6.2779
 IR Inten    --     30.1211                81.9999                32.0600

                    112                    113                    114
                      A                      A                      A
 Frequencies --   3128.0424              3136.6940              3148.7263
 Red. masses --      1.0947                 1.0987                 1.1012
 Frc consts  --      6.3108                 6.3691                 6.4328
 IR Inten    --     16.6554                41.6743                 8.4061

                    115                    116                    117
                      A                      A                      A
 Frequencies --   3159.8564              3161.3445              3165.9021
 Red. masses --      1.0987                 1.0986                 1.0958
 Frc consts  --      6.4636                 6.4690                 6.4710
 IR Inten    --     28.7752                28.9445                30.1566

 - Thermochemistry -
 -------------------
 Temperature   298.150 Kelvin.  Pressure   1.00000 Atm.
 Atom     1 has atomic number  6 and mass  12.00000

 Molecular mass:   197.21435 amu.
 Principal axes and moments of inertia in atomic units:
                           1         2         3
     Eigenvalues --  1834.571623587.558973952.37569
           X            0.99993  -0.01195   0.00110
           Y            0.01194   0.99991   0.00624
           Z           -0.00118  -0.00623   0.99998
 This molecule is an asymmetric top.
 Rotational symmetry number  1.
 Warning -- assumption of classical behavior for rotation
           may cause significant error
 Rotational temperatures (Kelvin)      0.04721     0.02414     0.02191
 Rotational constants (GHZ):           0.98374     0.50306     0.45662
 Zero-point vibrational energy    1020501.5 (Joules/Mol)
                                  243.90572 (Kcal/Mol)
 Warning -- explicit consideration of  28 degrees of freedom as
           vibrations may cause significant error
 Vibrational temperatures:     99.22   147.71   183.41   288.99   293.58
          (Kelvin)            327.45   337.65   370.24   377.33   384.14
                              429.80   442.67   456.58   461.80   497.77
                              509.98   516.22   537.17   556.87   570.64
                              601.33   609.65   624.99   690.77   713.41
                              740.15   828.85   868.10   922.50  1130.79
                             1179.78  1195.62  1253.74  1315.50  1350.58
                             1360.48  1361.42  1369.35  1387.29  1402.46
                             1415.11  1475.11  1510.61  1521.94  1530.26
                             1561.12  1570.59  1599.58  1631.53  1664.46
                             1678.81  1705.05  1729.66  1757.63  1779.46
                             1786.73  1802.97  1807.53  1833.63  1911.70
                             1926.46  1935.05  1979.59  2005.47  2019.42
                             2036.64  2056.13  2060.04  2063.71  2067.47
                             2083.53  2094.82  2110.02  2138.47  2165.43
                             2174.27  2180.08  2184.49  2187.61  2191.01
                             2196.88  2205.38  2210.09  2213.35  2219.77
                             2229.16  2232.31  2237.94  2242.62  2254.98
                             4207.88  4231.86  4299.22  4339.59  4379.55
                             4390.70  4391.54  4392.51  4393.98  4400.60
                             4403.97  4407.02  4413.11  4420.63  4447.88
                             4472.22  4474.65  4476.70  4483.86  4487.34
                             4496.06  4500.56  4513.00  4530.31  4546.33
                             4548.47  4555.03

 Zero-point correction=                           0.388689 (Hartree/Particle)
 Thermal correction to Energy=                    0.404150
 Thermal correction to Enthalpy=                  0.405095
 Thermal correction to Gibbs Free Energy=         0.349147
 Sum of electronic and zero-point Energies=           -566.063927
 Sum of electronic and thermal Energies=              -566.048465
 Sum of electronic and thermal Enthalpies=            -566.047521
 Sum of electronic and thermal Free Energies=         -566.103469

                     E (Thermal)             CV                S
                      KCal/Mol        Cal/Mol-Kelvin    Cal/Mol-Kelvin
 Total                  253.608             64.026            117.752
 Electronic               0.000              0.000              0.000
 Translational            0.889              2.981             41.742
 Rotational               0.889              2.981             31.631
 Vibrational            251.831             58.064             44.379
 Vibration     1          0.598              1.969              4.183
 Vibration     2          0.605              1.947              3.403
 Vibration     3          0.611              1.926              2.984
 Vibration     4          0.638              1.839              2.125
 Vibration     5          0.640              1.834              2.096
 Vibration     6          0.651              1.799              1.898
 Vibration     7          0.654              1.788              1.843
 Vibration     8          0.667              1.750              1.680
 Vibration     9          0.670              1.742              1.647
 Vibration    10          0.672              1.734              1.616
 Vibration    11          0.692              1.676              1.424
 Vibration    12          0.698              1.659              1.375
 Vibration    13          0.704              1.640              1.324
 Vibration    14          0.706              1.633              1.305
 Vibration    15          0.724              1.583              1.184
 Vibration    16          0.730              1.566              1.146
 Vibration    17          0.734              1.557              1.127
 Vibration    18          0.745              1.527              1.066
 Vibration    19          0.755              1.498              1.012
 Vibration    20          0.763              1.477              0.975
 Vibration    21          0.781              1.431              0.899
 Vibration    22          0.786              1.419              0.879
 Vibration    23          0.795              1.395              0.844
 Vibration    24          0.836              1.294              0.710
 Vibration    25          0.851              1.259              0.669
 Vibration    26          0.869              1.218              0.623
 Vibration    27          0.932              1.083              0.493
 Vibration    28          0.962              1.025              0.444

 Optimization completed.
    -- Stationary point found.
 Normal termination of Gaussian 16 at Thu Dec 10 10:55:39 2020.

 ----------------------------------------------------------------------
 # B3LYP/6-311++G(d,p) empiricaldispersion=gd3bj scf=xqc pop=npa geom=c
 heck
 ----------------------------------------------------------------------

 --------------------------------------
 CID_67962217_JID_4755_Energie_neutraal
 --------------------------------------
 Structure from the checkpoint file:  "JID_4755.chk"
 Charge =  0 Multiplicity = 1

 SCF Done:  E(RB3LYP) =  -566.607367339     A.U. after   14 cycles
 Normal termination of Gaussian 16 at Thu Dec 10 11:04:32 2020.

 ----------------------------------------------------------------------
 # B3LYP/6-311++G(d,p) empiricaldispersion=gd3bj scf=xqc pop=npa geom=c
 heck
 ----------------------------------------------------------------------

 ------------------------------------
 CID_67962217_JID_4755_Energie_kation
 ------------------------------------
 Structure from the checkpoint file:  "JID_4755.chk"
 Charge =  1 Multiplicity = 2

 SCF Done:  E(UB3LYP) =  -566.315946564     A.U. after   19 cycles
 Normal termination of Gaussian 16 at Thu Dec 10 11:18:54 2020.
 Gaussian 16:  ES64L-G16RevA.03 25-Dec-2016

 ----------------------------------------------------------------------
 # B3LYP/6-311++G(d,p) empiricaldispersion=gd3bj scf=xqc pop=npa geom=c
 heck
 ----------------------------------------------------------------------

 -----------------------------------
 CID_67962217_JID_4755_Energie_anion
 -----------------------------------
 Structure from the checkpoint file:  "JID_4755.chk"
 Charge = -1 Multiplicity = 2

                         Standard orientation:
 ---------------------------------------------------------------------
 Center     Atomic      Atomic             Coordinates (Angstroms)
 Number     Number       Type             X           Y           Z
 ---------------------------------------------------------------------
      1          6           0        2.313533   -1.759704   -1.127664
      2          6           0        1.515422   -1.388551    0.140455
      3          6           0        2.489910   -1.268797    1.322869
      4          6           0        0.399101   -0.260217    0.028221
      5          6           0       -0.489084   -0.456998    1.296331
      6          6           0       -1.933937    0.029045    1.200270
      7          7           0       -2.607413   -0.608424    0.074924
      8          6           0       -1.956165   -0.256255   -1.183025
      9          6           0       -0.476942   -0.667407   -1.196893
     10          6           0       -4.022758   -0.288630    0.042206
     11          6           0        0.960231    1.233982   -0.096083
     12          6           0        1.351908    1.838492    1.271527
     13          6           0        2.200765    1.310320   -1.010588
     14          6           0       -0.054633    2.224572   -0.713177
     15          1           0        3.154996   -1.091403   -1.318100
     16          1           0        1.693106   -1.784185   -2.027183
     17          1           0        2.729613   -2.765620   -0.994706
     18          1           0        0.913351   -2.282793    0.349279
     19          1           0        3.225150   -0.471608    1.176679
     20          1           0        1.976891   -1.088495    2.271974
     21          1           0        3.050844   -2.205355    1.426865
     22          1           0       -0.021248   -0.017109    2.179383
     23          1           0       -0.555536   -1.534157    1.487985
     24          1           0       -1.994321    1.133038    1.145409
     25          1           0       -2.460261   -0.260906    2.118375
     26          1           0       -2.465099   -0.800420   -1.989008
     27          1           0       -2.084550    0.815909   -1.407225
     28          1           0       -0.026485   -0.310406   -2.129834
     29          1           0       -0.469693   -1.762043   -1.252248
     30          1           0       -4.222040    0.793325   -0.097342
     31          1           0       -4.504935   -0.828148   -0.780596
     32          1           0       -4.494811   -0.601195    0.980171
     33          1           0        2.026245    1.200929    1.845238
     34          1           0        1.862048    2.795417    1.109621
     35          1           0        0.473024    2.045362    1.890515
     36          1           0        2.021045    0.847188   -1.985604
     37          1           0        2.454834    2.361476   -1.190004
     38          1           0        3.078348    0.839166   -0.563807
     39          1           0       -0.301036    1.974374   -1.749011
     40          1           0       -0.984664    2.291986   -0.146695
     41          1           0        0.392962    3.225531   -0.721296
 ---------------------------------------------------------------------

 SCF Done:  E(UB3LYP) =  -566.590683551     A.U. after   28 cycles

 The electronic state is 2-A.
 Alpha  occ. eigenvalues --  -14.20141 -10.08734 -10.08696 -10.08651 -10.08637
 Alpha  occ. eigenvalues --  -10.08542 -10.07462 -10.06170 -10.05872 -10.05702
 Alpha  occ. eigenvalues --  -10.05523 -10.05516 -10.05454 -10.05396  -0.82816
 Alpha  occ. eigenvalues --   -0.74077  -0.69045  -0.66120  -0.65291  -0.59214
 Alpha  occ. eigenvalues --   -0.59081  -0.58224  -0.57775  -0.52454  -0.52329
 Alpha  occ. eigenvalues --   -0.47694  -0.45837  -0.41728  -0.39148  -0.36725
 Alpha  occ. eigenvalues --   -0.36462  -0.35690  -0.34946  -0.34389  -0.33351
 Alpha  occ. eigenvalues --   -0.32474  -0.31971  -0.30684  -0.30201  -0.29050
 Alpha  occ. eigenvalues --   -0.28720  -0.28512  -0.27252  -0.27193  -0.26512
 Alpha  occ. eigenvalues --   -0.26077  -0.25575  -0.24901  -0.24373  -0.23857
 Alpha  occ. eigenvalues --   -0.22783  -0.21861  -0.19749  -0.19221  -0.19065
 Alpha  occ. eigenvalues --   -0.11813   0.04508
 Alpha virt. eigenvalues --    0.06532   0.07013   0.07067   0.08489   0.08698
 Alpha virt. eigenvalues --    0.08888   0.09203   0.09452   0.11030   0.11113
 Alpha virt. eigenvalues --    0.11241   0.11726   0.11768   0.12131   0.12635

  Beta  occ. eigenvalues --  -14.20131 -10.08730 -10.08678 -10.08653 -10.08612
  Beta  occ. eigenvalues --  -10.08526 -10.07451 -10.06157 -10.05862 -10.05678
  Beta  occ. eigenvalues --  -10.05503 -10.05496 -10.05436 -10.05375  -0.82793
  Beta  occ. eigenvalues --   -0.74061  -0.69023  -0.66093  -0.65262  -0.59175
  Beta  occ. eigenvalues --   -0.59040  -0.58186  -0.57731  -0.52408  -0.52287
  Beta  occ. eigenvalues --   -0.47659  -0.45783  -0.41694  -0.39102  -0.36699
  Beta  occ. eigenvalues --   -0.36426  -0.35661  -0.34925  -0.34352  -0.33321
  Beta  occ. eigenvalues --   -0.32450  -0.31950  -0.30660  -0.30172  -0.29024
  Beta  occ. eigenvalues --   -0.28690  -0.28482  -0.27227  -0.27169  -0.26489
  Beta  occ. eigenvalues --   -0.26044  -0.25541  -0.24876  -0.24345  -0.23829
  Beta  occ. eigenvalues --   -0.22760  -0.21834  -0.19726  -0.19200  -0.19040
  Beta  occ. eigenvalues --   -0.11756
  Beta virt. eigenvalues --    0.06491   0.07223   0.07486   0.07895   0.08983
  Beta virt. eigenvalues --    0.09249   0.09274   0.09466   0.09847   0.11379
  Beta virt. eigenvalues --    0.11523   0.11632   0.12027   0.12088   0.12444

 Mulliken charges and spin densities:
               1          2
     1  C    0.076039  -0.684390
     2  C   -0.666109   0.799091
     3  C    0.262033  -0.902068
     4  C    1.798288  -0.740167
     5  C   -0.543883   0.362658
     6  C    0.382099  -1.201286
     7  N   -0.019865   0.175918
     8  C    0.088863  -0.736833
     9  C   -0.533395   0.073072
    10  C    0.599200  -0.845463
    11  C   -1.906850   2.023902
    12  C   -0.125340  -0.483344
    13  C    0.371713  -0.963623
    14  C    0.743605  -1.357023
    15  H   -0.048109   0.181153
    16  H   -0.153633   0.313520
    17  H   -0.236312   0.388564
    18  H    0.145126   0.018135
    19  H   -0.110114   0.243248
    20  H   -0.250946   0.416830
    21  H   -0.180630   0.328270
    22  H    0.177324  -0.046553
    23  H    0.051124   0.127641
    24  H    0.164881  -0.075386
    25  H   -0.287276   0.487177
    26  H   -0.352222   0.548213
    27  H    0.259359  -0.159311
    28  H    0.021799   0.131722
    29  H    0.137234   0.041568
    30  H   -0.185187   0.293675
    31  H   -0.133583   0.258238
    32  H   -0.152383   0.274881
    33  H    0.106504   0.034267
    34  H   -0.059167   0.199775
    35  H   -0.284129   0.439410
    36  H   -0.121796   0.280930
    37  H    0.009804   0.134791
    38  H    0.083445   0.049440
    39  H   -0.318778   0.494072
    40  H    0.080583   0.040637
    41  H    0.110683   0.034651
 Sum of Mulliken charges =  -1.00000   1.00000

 Dipole moment (field-independent basis, Debye):
    X=              0.4806    Y=              0.9864    Z=              0.1828  Tot=              1.1124
 Quadrupole moment (field-independent basis, Debye-Ang):
   XX=           -161.2806   YY=           -137.5373   ZZ=           -141.9644
   XY=              2.5581   XZ=             -0.4839   YZ=             -0.4637

 Summary of Natural Population Analysis:

                                       Natural Population
                Natural  -----------------------------------------------
    Atom  No    Charge         Core      Valence    Rydberg      Total
 -----------------------------------------------------------------------
      C    1   -0.28550      0.99963     2.28025    0.00561     3.28550
      C    2   -0.10899      0.99957     2.09769    0.01173     3.10899
      C    3   -0.28600      0.99963     2.28057    0.00580     3.28600
      C    4   -0.01789      0.99951     2.00167    0.01671     3.01789
      C    5   -0.19879      0.99958     2.18762    0.01159     3.19879
      C    6   -0.08108      0.99960     2.07012    0.01136     3.08108
      N    7   -0.27888      0.99971     2.76776    0.01141     3.77888
      C    8   -0.08197      0.99960     2.07082    0.01155     3.08197
      C    9   -0.19966      0.99958     2.18843    0.01165     3.19966
      C   10   -0.17231      0.99965     2.16568    0.00698     3.17231
      C   11   -0.04398      0.99955     2.03008    0.01435     3.04398
      C   12   -0.28759      0.99962     2.28071    0.00727     3.28759
      C   13   -0.28510      0.99962     2.27802    0.00745     3.28510
      C   14   -0.28577      0.99962     2.27870    0.00745     3.28577
      H   15    0.09697      0.00000     0.40196    0.00107     0.40303
      H   16    0.10159      0.00000     0.39736    0.00105     0.39841
      H   17    0.09851      0.00000     0.40059    0.00090     0.40149
      H   18    0.09316      0.00000     0.40464    0.00220     0.40684
      H   19    0.09541      0.00000     0.40358    0.00101     0.40459
      H   20    0.10095      0.00000     0.39802    0.00104     0.39905
      H   21    0.10005      0.00000     0.39905    0.00090     0.39995
      H   22    0.10489      0.00000     0.39396    0.00115     0.39511
      H   23    0.10023      0.00000     0.39775    0.00202     0.39977
      H   24    0.07748      0.00000     0.42081    0.00171     0.42252
      H   25    0.09669      0.00000     0.40204    0.00128     0.40331
      H   26    0.09609      0.00000     0.40259    0.00131     0.40391
      H   27    0.08101      0.00000     0.41726    0.00173     0.41899
      H   28    0.10349      0.00000     0.39536    0.00115     0.39651
      H   29    0.10142      0.00000     0.39681    0.00177     0.39858
      H   30    0.07834      0.00000     0.41989    0.00176     0.42166
      H   31    0.09444      0.00000     0.40423    0.00134     0.40556
      H   32    0.09434      0.00000     0.40435    0.00132     0.40566
      H   33    0.10314      0.00000     0.39576    0.00110     0.39686
      H   34    0.09855      0.00000     0.40062    0.00084     0.40145
      H   35    0.09992      0.00000     0.39906    0.00102     0.40008
      H   36    0.10171      0.00000     0.39715    0.00113     0.39829
      H   37    0.09812      0.00000     0.40102    0.00087     0.40188
      H   38    0.09864      0.00000     0.40024    0.00111     0.40136
      H   39    0.10041      0.00000     0.39849    0.00110     0.39959
      H   40    0.09987      0.00000     0.39870    0.00143     0.40013
      H   41    0.09809      0.00000     0.40103    0.00088     0.40191
 =======================================================================
   * Total *    0.00000     13.99450    41.83044    0.17506    56.00000

 Normal termination of Gaussian 16 at Thu Dec 10 11:38:36 2020.
