 Gaussian 16, Revision A.03,

 -----------------------------------------------------------
 # opt freq B3LYP/6-31G(d) empiricaldispersion=gd3bj scf=xqc
 -----------------------------------------------------------

 -------------------------------
 CID_120977301_JID_8116_neutraal
 -------------------------------
 Symbolic Z-matrix:
 Charge =  0 Multiplicity = 1

 SCF Done:  E(RB3LYP) =  -863.724954878     A.U. after   15 cycles
 SCF Done:  E(RB3LYP) =  -863.728345720     A.U. after   13 cycles
 SCF Done:  E(RB3LYP) =  -863.727172101     A.U. after   14 cycles
 SCF Done:  E(RB3LYP) =  -863.733442883     A.U. after   12 cycles
 SCF Done:  E(RB3LYP) =  -863.734200530     A.U. after   13 cycles
 SCF Done:  E(RB3LYP) =  -863.735506439     A.U. after   13 cycles
 SCF Done:  E(RB3LYP) =  -863.736298924     A.U. after   12 cycles
 SCF Done:  E(RB3LYP) =  -863.736540630     A.U. after   12 cycles
 SCF Done:  E(RB3LYP) =  -863.736860814     A.U. after   11 cycles
 SCF Done:  E(RB3LYP) =  -863.737118004     A.U. after   13 cycles
 SCF Done:  E(RB3LYP) =  -863.738043721     A.U. after   12 cycles
 SCF Done:  E(RB3LYP) =  -863.738043531     A.U. after   10 cycles
 SCF Done:  E(RB3LYP) =  -863.738055719     A.U. after   11 cycles
 SCF Done:  E(RB3LYP) =  -863.738055283     A.U. after   10 cycles
 SCF Done:  E(RB3LYP) =  -863.738056543     A.U. after    9 cycles
 Optimization completed.
    -- Stationary point found.
 Normal termination of Gaussian 16 at Fri Dec 11 19:02:06 2020.

 --------------------------------------------------------------------
 #N Geom=AllCheck Guess=TCheck SCRF=Check GenChk RB3LYP/6-31G(d) Freq
 --------------------------------------------------------------------

 Structure from the checkpoint file:  "JID_8116.chk"
 -------------------------------
 CID_120977301_JID_8116_neutraal
 -------------------------------
 Charge =  0 Multiplicity = 1

 SCF Done:  E(RB3LYP) =  -863.738056543     A.U. after    1 cycles

  Exact polarizability: 159.111  -1.165 155.027   4.497   5.005 125.085
 Approx polarizability: 217.446  -5.113 224.066   1.616  13.414 190.625

                      1                      2                      3
                      A                      A                      A
 Frequencies --     29.9782                52.5026                65.4195
 Red. masses --      4.9553                 3.3376                 4.8758
 Frc consts  --      0.0026                 0.0054                 0.0123
 IR Inten    --      0.4496                 0.8023                 0.2758

                      4                      5                      6
                      A                      A                      A
 Frequencies --     79.7590                91.4962                92.9519
 Red. masses --      5.1783                 7.5501                 3.3948
 Frc consts  --      0.0194                 0.0372                 0.0173
 IR Inten    --      1.4941                 2.1531                 0.3656

                      7                      8                      9
                      A                      A                      A
 Frequencies --    116.6535               136.2120               148.5780
 Red. masses --      3.7246                 4.4218                 2.9533
 Frc consts  --      0.0299                 0.0483                 0.0384
 IR Inten    --      0.4102                 1.0630                 0.1627

                     10                     11                     12
                      A                      A                      A
 Frequencies --    209.2245               227.2161               240.9752
 Red. masses --      4.0994                 1.4250                 2.5812
 Frc consts  --      0.1057                 0.0433                 0.0883
 IR Inten    --      0.1024                 1.2500                 0.9444

                     13                     14                     15
                      A                      A                      A
 Frequencies --    250.2866               260.1501               275.3869
 Red. masses --      1.7262                 1.1013                 2.9402
 Frc consts  --      0.0637                 0.0439                 0.1314
 IR Inten    --      1.1761                 0.4071                 2.6403

                     16                     17                     18
                      A                      A                      A
 Frequencies --    301.4203               321.3912               346.8406
 Red. masses --      4.3102                 2.7813                 2.7023
 Frc consts  --      0.2307                 0.1693                 0.1915
 IR Inten    --      5.5672                 2.6374                 2.3545

                     19                     20                     21
                      A                      A                      A
 Frequencies --    385.1462               399.7536               433.9743
 Red. masses --      7.2680                 2.1308                 3.1050
 Frc consts  --      0.6352                 0.2006                 0.3445
 IR Inten    --      2.1213                 0.5687                 3.3035

                     22                     23                     24
                      A                      A                      A
 Frequencies --    449.6818               467.3882               481.6870
 Red. masses --      4.7428                 4.3629                 2.8879
 Frc consts  --      0.5651                 0.5615                 0.3948
 IR Inten    --      8.6349                24.7450                 2.1976

                     25                     26                     27
                      A                      A                      A
 Frequencies --    541.1909               564.9173               571.6012
 Red. masses --      4.3450                 2.3346                 2.6413
 Frc consts  --      0.7498                 0.4390                 0.5085
 IR Inten    --      3.2111                11.3462                 1.4889

                     28                     29                     30
                      A                      A                      A
 Frequencies --    612.5435               641.1182               698.8890
 Red. masses --      2.0722                 2.0900                 2.6725
 Frc consts  --      0.4581                 0.5061                 0.7691
 IR Inten    --     49.1927                39.1052                76.7809

                     31                     32                     33
                      A                      A                      A
 Frequencies --    721.1866               744.0622               767.2232
 Red. masses --      3.7804                 3.6720                 1.4286
 Frc consts  --      1.1585                 1.1978                 0.4955
 IR Inten    --      7.6162                15.9540                11.3908

                     34                     35                     36
                      A                      A                      A
 Frequencies --    790.1014               832.8930               855.4633
 Red. masses --      2.1802                 2.5449                 3.8502
 Frc consts  --      0.8019                 1.0402                 1.6601
 IR Inten    --      8.4792                 2.6553                 5.4233

                     37                     38                     39
                      A                      A                      A
 Frequencies --    876.4102               908.7021               936.5549
 Red. masses --      2.8570                 2.4405                 1.9404
 Frc consts  --      1.2929                 1.1873                 1.0028
 IR Inten    --      2.7074                 1.4895                 1.2969

                     40                     41                     42
                      A                      A                      A
 Frequencies --    946.5510               959.1231               979.5234
 Red. masses --      1.3768                 2.4729                 1.4077
 Frc consts  --      0.7268                 1.3403                 0.7958
 IR Inten    --      1.1239                 0.8180                 2.7232

                     43                     44                     45
                      A                      A                      A
 Frequencies --    988.0737               994.8023              1002.1251
 Red. masses --      2.2013                 1.9422                 2.1100
 Frc consts  --      1.2662                 1.1324                 1.2485
 IR Inten    --      3.8009                 2.1746                 1.7166

                     46                     47                     48
                      A                      A                      A
 Frequencies --   1024.2832              1039.4509              1057.5909
 Red. masses --      2.4134                 2.2819                 2.3315
 Frc consts  --      1.4918                 1.4526                 1.5365
 IR Inten    --     36.0099                 1.7215                45.7574

                     49                     50                     51
                      A                      A                      A
 Frequencies --   1077.6899              1095.4054              1109.4837
 Red. masses --      2.9603                 1.9055                 2.0171
 Frc consts  --      2.0257                 1.3471                 1.4629
 IR Inten    --     15.7561                17.1353                50.5300

                     52                     53                     54
                      A                      A                      A
 Frequencies --   1132.1553              1142.8911              1163.7572
 Red. masses --      2.3911                 4.4944                 2.3045
 Frc consts  --      1.8058                 3.4589                 1.8388
 IR Inten    --     11.7757               115.7326                48.8365

                     55                     56                     57
                      A                      A                      A
 Frequencies --   1184.6765              1191.4415              1225.7620
 Red. masses --      1.9826                 1.9303                 1.6311
 Frc consts  --      1.6394                 1.6145                 1.4439
 IR Inten    --     37.1813                93.9709                27.8113

                     58                     59                     60
                      A                      A                      A
 Frequencies --   1227.5778              1238.6128              1244.9409
 Red. masses --      1.6471                 1.2257                 2.0642
 Frc consts  --      1.4624                 1.1080                 1.8849
 IR Inten    --     28.3496                 5.8851                 0.3743

                     61                     62                     63
                      A                      A                      A
 Frequencies --   1271.4349              1283.5842              1286.2373
 Red. masses --      1.3273                 1.4258                 1.4853
 Frc consts  --      1.2641                 1.3841                 1.4478
 IR Inten    --      5.1282                19.6479                 3.6388

                     64                     65                     66
                      A                      A                      A
 Frequencies --   1295.3626              1300.4546              1316.4365
 Red. masses --      1.5887                 1.3820                 1.4407
 Frc consts  --      1.5706                 1.3770                 1.4710
 IR Inten    --     45.1583                10.4141                60.6485

                     67                     68                     69
                      A                      A                      A
 Frequencies --   1326.0057              1339.0144              1355.6021
 Red. masses --      1.4048                 1.3704                 1.3821
 Frc consts  --      1.4554                 1.4477                 1.4964
 IR Inten    --     25.4545                 7.2662                18.6159

                     70                     71                     72
                      A                      A                      A
 Frequencies --   1358.3942              1385.7888              1398.5017
 Red. masses --      1.3706                 1.3701                 1.9447
 Frc consts  --      1.4901                 1.5502                 2.2410
 IR Inten    --      1.0533                 0.1976                23.5885

                     73                     74                     75
                      A                      A                      A
 Frequencies --   1400.4243              1415.2305              1424.4633
 Red. masses --      1.4467                 1.3495                 1.2811
 Frc consts  --      1.6716                 1.5925                 1.5315
 IR Inten    --     33.4291                 5.4466                 9.6409

                     76                     77                     78
                      A                      A                      A
 Frequencies --   1433.5571              1446.9458              1451.4050
 Red. masses --      1.3946                 1.3103                 1.2424
 Frc consts  --      1.6886                 1.6163                 1.5420
 IR Inten    --      7.2315                 3.2769                 6.0640

                     79                     80                     81
                      A                      A                      A
 Frequencies --   1477.4808              1505.7472              1513.2353
 Red. masses --      2.6158                 1.1131                 1.1035
 Frc consts  --      3.3643                 1.4870                 1.4887
 IR Inten    --    131.0389                10.7230                 8.1325

                     82                     83                     84
                      A                      A                      A
 Frequencies --   1519.4552              1520.9391              1524.4786
 Red. masses --      1.0531                 1.0945                 1.0907
 Frc consts  --      1.4326                 1.4918                 1.4935
 IR Inten    --      2.7231                 1.9068                 0.1884

                     85                     86                     87
                      A                      A                      A
 Frequencies --   1527.9581              1537.3352              1541.3799
 Red. masses --      1.0614                 1.0719                 1.0892
 Frc consts  --      1.4600                 1.4926                 1.5247
 IR Inten    --      7.4420                 1.7421                10.0619

                     88                     89                     90
                      A                      A                      A
 Frequencies --   1544.1817              1741.7111              1835.5035
 Red. masses --      1.0615                 9.6628                10.0534
 Frc consts  --      1.4913                17.2705                19.9561
 IR Inten    --     12.8489               321.2597               231.9717

                     91                     92                     93
                      A                      A                      A
 Frequencies --   3013.5730              3018.9689              3031.6501
 Red. masses --      1.0790                 1.0712                 1.0710
 Frc consts  --      5.7733                 5.7521                 5.7998
 IR Inten    --     16.4169                19.3398                17.6464

                     94                     95                     96
                      A                      A                      A
 Frequencies --   3035.6248              3038.6691              3046.2855
 Red. masses --      1.0729                 1.0835                 1.0384
 Frc consts  --      5.8254                 5.8942                 5.6773
 IR Inten    --     59.9962                18.0594                27.0217

                     97                     98                     99
                      A                      A                      A
 Frequencies --   3053.6435              3063.6618              3093.6275
 Red. masses --      1.0403                 1.0841                 1.0588
 Frc consts  --      5.7152                 5.9950                 5.9702
 IR Inten    --     41.2907                 8.2783                22.4879

                    100                    101                    102
                      A                      A                      A
 Frequencies --   3097.1953              3105.1019              3111.3893
 Red. masses --      1.0623                 1.1003                 1.0997
 Frc consts  --      6.0039                 6.2503                 6.2724
 IR Inten    --     28.7187                 5.1578                80.5907

                    103                    104                    105
                      A                      A                      A
 Frequencies --   3115.1066              3122.3741              3131.7948
 Red. masses --      1.0983                 1.1021                 1.1027
 Frc consts  --      6.2795                 6.3303                 6.3721
 IR Inten    --     48.7338                38.7585                 1.2113

                    106                    107                    108
                      A                      A                      A
 Frequencies --   3138.7553              3148.0934              3151.5598
 Red. masses --      1.0958                 1.0999                 1.1034
 Frc consts  --      6.3607                 6.4225                 6.4569
 IR Inten    --      6.2305                14.6799                47.4667

                    109                    110                    111
                      A                      A                      A
 Frequencies --   3171.7606              3220.1735              3682.3983
 Red. masses --      1.0919                 1.0860                 1.0641
 Frc consts  --      6.4720                 6.6351                 8.5012
 IR Inten    --      4.5269                10.8971                45.3127

 - Thermochemistry -
 -------------------
 Temperature   298.150 Kelvin.  Pressure   1.00000 Atm.
 Atom     1 has atomic number  6 and mass  12.00000

 Molecular mass:   255.14706 amu.
 Principal axes and moments of inertia in atomic units:
                           1         2         3
     Eigenvalues --  3437.999814660.935076080.58636
           X            0.99993  -0.01059   0.00534
           Y            0.01046   0.99967   0.02368
           Z           -0.00559  -0.02362   0.99971
 This molecule is an asymmetric top.
 Rotational symmetry number  1.
 Warning -- assumption of classical behavior for rotation
           may cause significant error
 Rotational temperatures (Kelvin)      0.02519     0.01858     0.01424
 Rotational constants (GHZ):           0.52494     0.38721     0.29680
 Zero-point vibrational energy     890156.2 (Joules/Mol)
                                  212.75245 (Kcal/Mol)
 Warning -- explicit consideration of  28 degrees of freedom as
           vibrations may cause significant error
 Vibrational temperatures:     43.13    75.54    94.12   114.76   131.64
          (Kelvin)            133.74   167.84   195.98   213.77   301.03
                              326.91   346.71   360.11   374.30   396.22
                              433.68   462.41   499.03   554.14   575.16
                              624.39   646.99   672.47   693.04   778.65
                              812.79   822.41   881.31   922.43  1005.55
                             1037.63  1070.54  1103.86  1136.78  1198.35
                             1230.82  1260.96  1307.42  1347.49  1361.88
                             1379.96  1409.32  1421.62  1431.30  1441.83
                             1473.72  1495.54  1521.64  1550.56  1576.04
                             1596.30  1628.92  1644.37  1674.39  1704.49
                             1714.22  1763.60  1766.21  1782.09  1791.19
                             1829.31  1846.79  1850.61  1863.74  1871.06
                             1894.06  1907.83  1926.54  1950.41  1954.43
                             1993.84  2012.13  2014.90  2036.20  2049.48
                             2062.57  2081.83  2088.25  2125.77  2166.43
                             2177.21  2186.16  2188.29  2193.38  2198.39
                             2211.88  2217.70  2221.73  2505.93  2640.88
                             4335.86  4343.62  4361.87  4367.59  4371.97
                             4382.93  4393.51  4407.93  4451.04  4456.17
                             4467.55  4476.60  4481.94  4492.40  4505.95
                             4515.97  4529.40  4534.39  4563.46  4633.11
                             5298.15

 Zero-point correction=                           0.339043 (Hartree/Particle)
 Thermal correction to Energy=                    0.356888
 Thermal correction to Enthalpy=                  0.357832
 Thermal correction to Gibbs Free Energy=         0.293135
 Sum of electronic and zero-point Energies=           -863.399014
 Sum of electronic and thermal Energies=              -863.381169
 Sum of electronic and thermal Enthalpies=            -863.380225
 Sum of electronic and thermal Free Energies=         -863.444922

                     E (Thermal)             CV                S
                      KCal/Mol        Cal/Mol-Kelvin    Cal/Mol-Kelvin
 Total                  223.950             68.200            136.167
 Electronic               0.000              0.000              0.000
 Translational            0.889              2.981             42.510
 Rotational               0.889              2.981             32.943
 Vibrational            222.173             62.238             60.713
 Vibration     1          0.594              1.984              5.831
 Vibration     2          0.596              1.977              4.721
 Vibration     3          0.597              1.971              4.287
 Vibration     4          0.600              1.963              3.897
 Vibration     5          0.602              1.955              3.628
 Vibration     6          0.602              1.954              3.597
 Vibration     7          0.608              1.936              3.155
 Vibration     8          0.614              1.917              2.856
 Vibration     9          0.618              1.904              2.690
 Vibration    10          0.642              1.827              2.050
 Vibration    11          0.651              1.800              1.901
 Vibration    12          0.658              1.778              1.796
 Vibration    13          0.663              1.762              1.729
 Vibration    14          0.668              1.746              1.661
 Vibration    15          0.677              1.719              1.562
 Vibration    16          0.693              1.671              1.409
 Vibration    17          0.707              1.633              1.303
 Vibration    18          0.725              1.582              1.181
 Vibration    19          0.754              1.502              1.019
 Vibration    20          0.766              1.471              0.964
 Vibration    21          0.795              1.396              0.846
 Vibration    22          0.809              1.362              0.797
 Vibration    23          0.825              1.322              0.745
 Vibration    24          0.838              1.291              0.706
 Vibration    25          0.896              1.159              0.563
 Vibration    26          0.921              1.107              0.514
 Vibration    27          0.928              1.093              0.501
 Vibration    28          0.972              1.005              0.429

                           ! Non-Optimized Parameters !
 Normal termination of Gaussian 16 at Fri Dec 11 19:25:35 2020.

 ----------------------------------------------------------------------
 # B3LYP/6-311++G(d,p) empiricaldispersion=gd3bj scf=xqc pop=npa geom=c
 heck
 ----------------------------------------------------------------------

 ---------------------------------------
 CID_120977301_JID_8116_Energie_neutraal
 ---------------------------------------
 Structure from the checkpoint file:  "JID_8116.chk"
 Charge =  0 Multiplicity = 1

 SCF Done:  E(RB3LYP) =  -863.990226579     A.U. after   15 cycles
 Normal termination of Gaussian 16 at Fri Dec 11 19:36:03 2020.

 ----------------------------------------------------------------------
 # B3LYP/6-311++G(d,p) empiricaldispersion=gd3bj scf=xqc pop=npa geom=c
 heck
 ----------------------------------------------------------------------

 -------------------------------------
 CID_120977301_JID_8116_Energie_kation
 -------------------------------------
 Structure from the checkpoint file:  "JID_8116.chk"
 Charge =  1 Multiplicity = 2

 SCF Done:  E(UB3LYP) =  -863.689774175     A.U. after   25 cycles
 Normal termination of Gaussian 16 at Fri Dec 11 20:00:56 2020.
 Gaussian 16:  ES64L-G16RevA.03 25-Dec-2016

 ----------------------------------------------------------------------
 # B3LYP/6-311++G(d,p) empiricaldispersion=gd3bj scf=xqc pop=npa geom=c
 heck
 ----------------------------------------------------------------------

 ------------------------------------
 CID_120977301_JID_8116_Energie_anion
 ------------------------------------
 Structure from the checkpoint file:  "JID_8116.chk"
 Charge = -1 Multiplicity = 2

                         Standard orientation:
 ---------------------------------------------------------------------
 Center     Atomic      Atomic             Coordinates (Angstroms)
 Number     Number       Type             X           Y           Z
 ---------------------------------------------------------------------
      1          6           0        1.791742   -2.593079   -0.178983
      2          6           0        2.620307   -1.313576   -0.005021
      3          6           0        3.524760   -1.064287   -1.219143
      4          6           0        1.733186   -0.107282    0.339258
      5          6           0        0.674035    0.216500   -0.728900
      6          7           0       -0.022912    1.456981   -0.419080
      7          6           0        0.875868    2.572772   -0.131051
      8          6           0        1.871723    2.165569    0.946297
      9          8           0        2.596288    1.007140    0.547238
     10          6           0       -1.374573    1.647065   -0.264978
     11          8           0       -1.824921    2.724875    0.116297
     12          6           0       -2.378189    0.557027   -0.658728
     13          6           0       -2.216975   -0.265492   -1.977814
     14          6           0       -2.291124   -1.598317   -1.182364
     15          6           0       -2.518302   -0.789524    0.128304
     16          6           0       -1.629710   -1.048853    1.313142
     17          8           0       -1.143788   -0.209748    2.039282
     18          8           0       -1.450734   -2.380246    1.519842
     19          1           0        1.209463   -2.570713   -1.108518
     20          1           0        1.088197   -2.743892    0.647314
     21          1           0        2.445795   -3.470024   -0.230122
     22          1           0        3.271179   -1.443207    0.870092
     23          1           0        2.946866   -1.005256   -2.149331
     24          1           0        4.080510   -0.130733   -1.102204
     25          1           0        4.241978   -1.884758   -1.333874
     26          1           0        1.196674   -0.313693    1.277789
     27          1           0        1.158751    0.309960   -1.710665
     28          1           0       -0.029650   -0.607589   -0.784479
     29          1           0        1.422260    2.837446   -1.047669
     30          1           0        0.264900    3.418564    0.182520
     31          1           0        2.613806    2.952666    1.109084
     32          1           0        1.338056    1.972591    1.889304
     33          1           0       -3.321152    1.101975   -0.636341
     34          1           0       -3.048434   -0.112762   -2.670390
     35          1           0       -1.288879   -0.098007   -2.528221
     36          1           0       -1.372268   -2.190036   -1.184023
     37          1           0       -3.114805   -2.262943   -1.452386
     38          1           0       -3.541546   -0.909306    0.503883
     39          1           0       -0.912563   -2.456467    2.330420
 ---------------------------------------------------------------------

 SCF Done:  E(UB3LYP) =  -863.983052032     A.U. after   33 cycles
 SCF Done:  E(UB3LYP) =  -863.983052032     a.u. after    1 cycles

 The electronic state is 2-A.
 Alpha  occ. eigenvalues --  -19.07233 -19.04052 -19.01848 -18.98913 -14.25156
 Alpha  occ. eigenvalues --  -10.20675 -10.17841 -10.13432 -10.13181 -10.11919
 Alpha  occ. eigenvalues --  -10.11415 -10.10024 -10.09328 -10.08808 -10.08234
 Alpha  occ. eigenvalues --  -10.08007 -10.06865 -10.06833  -1.01313  -0.96049
 Alpha  occ. eigenvalues --   -0.94195  -0.92454  -0.84448  -0.76346  -0.72937
 Alpha  occ. eigenvalues --   -0.67337  -0.63788  -0.62163  -0.59900  -0.59290
 Alpha  occ. eigenvalues --   -0.57792  -0.53318  -0.52258  -0.48082  -0.47255
 Alpha  occ. eigenvalues --   -0.46222  -0.42425  -0.41772  -0.40449  -0.39581
 Alpha  occ. eigenvalues --   -0.39179  -0.38411  -0.37865  -0.36391  -0.35435
 Alpha  occ. eigenvalues --   -0.34824  -0.34020  -0.33232  -0.32672  -0.31641
 Alpha  occ. eigenvalues --   -0.31018  -0.30491  -0.29877  -0.29419  -0.29046
 Alpha  occ. eigenvalues --   -0.28146  -0.26432  -0.25673  -0.25462  -0.24706
 Alpha  occ. eigenvalues --   -0.24082  -0.23383  -0.23258  -0.23095  -0.21854
 Alpha  occ. eigenvalues --   -0.19062  -0.18504  -0.15745  -0.14439   0.03912
 Alpha virt. eigenvalues --    0.05925   0.06219   0.07220   0.07806   0.08218
 Alpha virt. eigenvalues --    0.08776   0.09051   0.09338   0.09977   0.10602
 Alpha virt. eigenvalues --    0.10878   0.11063   0.11704   0.12094   0.12669

  Beta  occ. eigenvalues --  -19.07183 -19.04050 -19.01802 -18.98912 -14.25156
  Beta  occ. eigenvalues --  -10.20607 -10.17841 -10.13431 -10.13180 -10.11901
  Beta  occ. eigenvalues --  -10.11413 -10.10010 -10.09322 -10.08802 -10.08215
  Beta  occ. eigenvalues --  -10.07966 -10.06848 -10.06802  -1.01203  -0.96045
  Beta  occ. eigenvalues --   -0.94191  -0.92358  -0.84444  -0.76308  -0.72921
  Beta  occ. eigenvalues --   -0.67322  -0.63765  -0.62050  -0.59857  -0.59250
  Beta  occ. eigenvalues --   -0.57765  -0.53293  -0.52137  -0.48024  -0.47223
  Beta  occ. eigenvalues --   -0.46175  -0.42373  -0.41665  -0.40437  -0.39531
  Beta  occ. eigenvalues --   -0.39116  -0.38392  -0.37844  -0.36361  -0.35375
  Beta  occ. eigenvalues --   -0.34783  -0.33891  -0.33219  -0.32628  -0.31620
  Beta  occ. eigenvalues --   -0.30992  -0.30471  -0.29815  -0.29397  -0.29020
  Beta  occ. eigenvalues --   -0.28129  -0.26393  -0.25643  -0.25428  -0.24685
  Beta  occ. eigenvalues --   -0.24053  -0.23290  -0.23175  -0.23069  -0.21785
  Beta  occ. eigenvalues --   -0.19049  -0.18424  -0.15735  -0.14433
  Beta virt. eigenvalues --    0.06108   0.06909   0.06962   0.07379   0.08343
  Beta virt. eigenvalues --    0.08737   0.09142   0.09482   0.09526   0.10099
  Beta virt. eigenvalues --    0.10911   0.11180   0.11282   0.11908   0.12220

 Mulliken charges and spin densities:
               1          2
     1  C   -0.343773  -0.387795
     2  C   -0.051149   0.456132
     3  C   -0.005763  -0.612853
     4  C   -0.460949  -0.354120
     5  C   -0.761295   0.387080
     6  N    0.203967  -0.004104
     7  C   -0.032399   0.030585
     8  C   -0.071996  -0.105365
     9  O   -0.056445   0.012830
    10  C   -0.057503  -0.147893
    11  O   -0.319185   0.001104
    12  C   -0.077192  -0.078637
    13  C   -0.332676   0.085641
    14  C    1.121603  -1.425076
    15  C    0.953733  -0.762652
    16  C   -0.981761   0.517407
    17  O   -0.179774   0.030592
    18  O   -0.017146  -0.009487
    19  H   -0.161616   0.321989
    20  H    0.226330  -0.121524
    21  H   -0.600109   0.775943
    22  H   -0.024393   0.235439
    23  H   -0.134066   0.258257
    24  H    0.126311   0.034765
    25  H   -0.015041   0.173164
    26  H    0.181208   0.052911
    27  H    0.247756   0.008770
    28  H    1.875821  -1.857324
    29  H    0.105332   0.033280
    30  H    0.190791   0.010087
    31  H    0.169463   0.014387
    32  H    0.145612   0.009369
    33  H    0.189736   0.083538
    34  H   -0.349090   0.529247
    35  H   -0.265191   0.434957
    36  H    0.082719   0.077053
    37  H   -0.721097   0.924448
    38  H   -0.428794   0.693415
    39  H   -0.371980   0.674440
 Sum of Mulliken charges =  -1.00000   1.00000

 Dipole moment (field-independent basis, Debye):
    X=              5.2514    Y=              5.4861    Z=             -0.4546  Tot=              7.6080
 Quadrupole moment (field-independent basis, Debye-Ang):
   XX=           -180.4302   YY=           -166.6282   ZZ=           -149.1182
   XY=              4.2749   XZ=             -1.5414   YZ=             -1.3095

 Summary of Natural Population Analysis:

                                       Natural Population
                Natural  -----------------------------------------------
    Atom  No    Charge         Core      Valence    Rydberg      Total
 -----------------------------------------------------------------------
      C    1   -0.28616      0.99965     2.28057    0.00594     3.28616
      C    2   -0.11968      0.99959     2.10904    0.01105     3.11968
      C    3   -0.28782      0.99965     2.28215    0.00602     3.28782
      C    4    0.06129      0.99951     1.92490    0.01431     2.93871
      C    5   -0.10225      0.99957     2.09236    0.01032     3.10225
      N    6   -0.25474      0.99963     2.74528    0.00983     3.75474
      C    7   -0.10128      0.99962     2.09314    0.00853     3.10128
      C    8   -0.01512      0.99958     2.00459    0.01095     3.01512
      O    9   -0.30375      0.99988     3.29568    0.00819     4.30375
      C   10    0.35421      0.99960     1.62221    0.02397     2.64579
      O   11   -0.32752      0.99988     3.32285    0.00479     4.32752
      C   12   -0.14017      0.99956     2.12844    0.01218     3.14017
      C   13   -0.18677      0.99963     2.17929    0.00785     3.18677
      C   14   -0.18576      0.99964     2.17758    0.00855     3.18576
      C   15   -0.15221      0.99954     2.13995    0.01272     3.15221
      C   16    0.41323      0.99966     1.56215    0.02497     2.58677
      O   17   -0.30580      0.99987     3.29996    0.00598     4.30580
      O   18   -0.34373      0.99988     3.33707    0.00678     4.34373
      H   19    0.09562      0.00000     0.40310    0.00128     0.40438
      H   20    0.10337      0.00000     0.39496    0.00167     0.39663
      H   21    0.10295      0.00000     0.39595    0.00110     0.39705
      H   22    0.09868      0.00000     0.39949    0.00183     0.40132
      H   23    0.09457      0.00000     0.40458    0.00085     0.40543
      H   24    0.10619      0.00000     0.39279    0.00102     0.39381
      H   25    0.09939      0.00000     0.39986    0.00074     0.40061
      H   26    0.09363      0.00000     0.40407    0.00230     0.40637
      H   27    0.09547      0.00000     0.40323    0.00130     0.40453
      H   28    0.10970      0.00000     0.38735    0.00296     0.39030
      H   29    0.09053      0.00000     0.40818    0.00128     0.40947
      H   30    0.12041      0.00000     0.37835    0.00124     0.37959
      H   31    0.08904      0.00000     0.41001    0.00095     0.41096
      H   32    0.08710      0.00000     0.41164    0.00126     0.41290
      H   33    0.11614      0.00000     0.38269    0.00117     0.38386
      H   34    0.10415      0.00000     0.39453    0.00132     0.39585
      H   35    0.09882      0.00000     0.40000    0.00117     0.40118
      H   36    0.10208      0.00000     0.39596    0.00196     0.39792
      H   37    0.10739      0.00000     0.38979    0.00282     0.39261
      H   38    0.12594      0.00000     0.37132    0.00274     0.37406
      H   39    0.24287      0.00000     0.25018    0.00695     0.25713
 =======================================================================
   * Total *   -0.00000     17.99391    50.77525    0.23084    69.00000

 Normal termination of Gaussian 16 at Fri Dec 11 20:33:55 2020.
