 Gaussian 16, Revision A.03,

 -----------------------------------------------------------
 # opt freq B3LYP/6-31G(d) empiricaldispersion=gd3bj scf=xqc
 -----------------------------------------------------------

 ------------------------------
 CID_84081942_JID_2416_neutraal
 ------------------------------
 Symbolic Z-matrix:
 Charge =  0 Multiplicity = 1

 SCF Done:  E(RB3LYP) =  -523.680399041     A.U. after   13 cycles
 SCF Done:  E(RB3LYP) =  -523.684079366     A.U. after   10 cycles
 SCF Done:  E(RB3LYP) =  -523.682225469     A.U. after   11 cycles
 SCF Done:  E(RB3LYP) =  -523.684472036     A.U. after   10 cycles
 SCF Done:  E(RB3LYP) =  -523.684728429     A.U. after   11 cycles
 SCF Done:  E(RB3LYP) =  -523.685136764     A.U. after   10 cycles
 SCF Done:  E(RB3LYP) =  -523.685191924     A.U. after   10 cycles
 SCF Done:  E(RB3LYP) =  -523.685211330     A.U. after    9 cycles
 SCF Done:  E(RB3LYP) =  -523.685229018     A.U. after    9 cycles
 SCF Done:  E(RB3LYP) =  -523.685236537     A.U. after    9 cycles
 SCF Done:  E(RB3LYP) =  -523.685242934     A.U. after    9 cycles
 SCF Done:  E(RB3LYP) =  -523.685243758     A.U. after    7 cycles
 SCF Done:  E(RB3LYP) =  -523.685243878     A.U. after    6 cycles
 SCF Done:  E(RB3LYP) =  -523.685243922     A.U. after    6 cycles
 Optimization completed.
    -- Stationary point found.
 Normal termination of Gaussian 16 at Wed Dec  9 17:23:15 2020.

 --------------------------------------------------------------------
 #N Geom=AllCheck Guess=TCheck SCRF=Check GenChk RB3LYP/6-31G(d) Freq
 --------------------------------------------------------------------

 Structure from the checkpoint file:  "JID_2416.chk"
 ------------------------------
 CID_84081942_JID_2416_neutraal
 ------------------------------
 Charge =  0 Multiplicity = 1

 SCF Done:  E(RB3LYP) =  -523.685243922     A.U. after    1 cycles

  Exact polarizability: 119.247  -1.991 118.645  -1.770   1.463 102.590
 Approx polarizability: 155.558  -1.343 156.872  -2.564   2.792 151.988

                      1                      2                      3
                      A                      A                      A
 Frequencies --     43.2348                60.7215                74.1315
 Red. masses --      2.5780                 2.5844                 3.0627
 Frc consts  --      0.0028                 0.0056                 0.0099
 IR Inten    --      0.4919                 3.4025                 1.0145

                      4                      5                      6
                      A                      A                      A
 Frequencies --     89.1947               102.7187               148.7172
 Red. masses --      2.5767                 3.7612                 2.5917
 Frc consts  --      0.0121                 0.0234                 0.0338
 IR Inten    --      0.4059                 6.3359                 0.8403

                      7                      8                      9
                      A                      A                      A
 Frequencies --    184.3996               226.0657               245.0754
 Red. masses --      2.6562                 2.3860                 1.1568
 Frc consts  --      0.0532                 0.0718                 0.0409
 IR Inten    --      0.2249                 0.4048                 0.1024

                     10                     11                     12
                      A                      A                      A
 Frequencies --    246.3322               268.0175               287.6376
 Red. masses --      1.6299                 1.5199                 1.8289
 Frc consts  --      0.0583                 0.0643                 0.0891
 IR Inten    --      1.0364                 1.0118                 0.7262

                     13                     14                     15
                      A                      A                      A
 Frequencies --    292.1765               330.2339               343.4464
 Red. masses --      1.7339                 1.8335                 2.8425
 Frc consts  --      0.0872                 0.1178                 0.1975
 IR Inten    --      0.6236                 0.4372                 0.2392

                     16                     17                     18
                      A                      A                      A
 Frequencies --    357.9971               418.4745               451.1635
 Red. masses --      2.0957                 2.1370                 1.7165
 Frc consts  --      0.1582                 0.2205                 0.2059
 IR Inten    --      2.7100                 0.2387                 0.3229

                     19                     20                     21
                      A                      A                      A
 Frequencies --    493.4608               546.3494               704.9806
 Red. masses --      2.1765                 2.7285                 3.1724
 Frc consts  --      0.3123                 0.4799                 0.9290
 IR Inten    --      0.6527                 0.0930                 0.1038

                     22                     23                     24
                      A                      A                      A
 Frequencies --    772.0854               816.1487               832.3029
 Red. masses --      1.5845                 2.8207                 2.5138
 Frc consts  --      0.5565                 1.1070                 1.0260
 IR Inten    --     64.3777                 5.7551                12.3693

                     25                     26                     27
                      A                      A                      A
 Frequencies --    867.9579               880.5765               927.4948
 Red. masses --      1.5554                 1.8846                 1.7098
 Frc consts  --      0.6904                 0.8610                 0.8666
 IR Inten    --      3.6804                26.0190                 3.7668

                     28                     29                     30
                      A                      A                      A
 Frequencies --    944.4100               958.1110               971.1902
 Red. masses --      1.2106                 2.1947                 1.7737
 Frc consts  --      0.6362                 1.1870                 0.9857
 IR Inten    --      1.0232                 2.4965                 4.1776

                     31                     32                     33
                      A                      A                      A
 Frequencies --    984.5999               985.3548               995.4639
 Red. masses --      1.4620                 1.5901                 1.6639
 Frc consts  --      0.8350                 0.9096                 0.9714
 IR Inten    --      2.0325                 8.4826                13.2007

                     34                     35                     36
                      A                      A                      A
 Frequencies --   1015.0691              1040.3099              1051.5381
 Red. masses --      2.5896                 8.2878                 2.9084
 Frc consts  --      1.5721                 5.2846                 1.8948
 IR Inten    --      3.6593                65.6523                13.8885

                     37                     38                     39
                      A                      A                      A
 Frequencies --   1099.7416              1108.4369              1150.6594
 Red. masses --      1.7894                 1.9587                 2.6427
 Frc consts  --      1.2751                 1.4179                 2.0616
 IR Inten    --      1.9702                 1.9313                 9.4132

                     40                     41                     42
                      A                      A                      A
 Frequencies --   1154.6823              1165.0848              1170.0862
 Red. masses --      1.7437                 1.6765                 1.0969
 Frc consts  --      1.3698                 1.3408                 0.8848
 IR Inten    --      4.4213                20.7286                 2.1909

                     43                     44                     45
                      A                      A                      A
 Frequencies --   1180.3955              1190.8603              1205.5226
 Red. masses --      1.2897                 2.1503                 1.8022
 Frc consts  --      1.0588                 1.7967                 1.5431
 IR Inten    --      1.2722                 8.9934                 3.1315

                     46                     47                     48
                      A                      A                      A
 Frequencies --   1222.9036              1255.3849              1283.6424
 Red. masses --      2.0561                 1.6231                 1.4539
 Frc consts  --      1.8117                 1.5071                 1.4115
 IR Inten    --      7.4486                 1.6130                14.2350

                     49                     50                     51
                      A                      A                      A
 Frequencies --   1316.9329              1321.8885              1350.1510
 Red. masses --      1.3635                 1.3778                 1.3445
 Frc consts  --      1.3933                 1.4185                 1.4440
 IR Inten    --      3.0198                 0.6033                 1.8782

                     52                     53                     54
                      A                      A                      A
 Frequencies --   1357.0454              1389.0460              1399.7786
 Red. masses --      1.3449                 1.4060                 1.4513
 Frc consts  --      1.4592                 1.5983                 1.6754
 IR Inten    --      1.8373                 1.0123                 2.3653

                     55                     56                     57
                      A                      A                      A
 Frequencies --   1402.3831              1413.3049              1416.8160
 Red. masses --      1.4213                 1.4677                 1.4170
 Frc consts  --      1.6469                 1.7273                 1.6759
 IR Inten    --      2.1245                 1.9103                 5.1703

                     58                     59                     60
                      A                      A                      A
 Frequencies --   1433.7421              1456.6563              1483.1952
 Red. masses --      1.2561                 1.2379                 1.1772
 Frc consts  --      1.5213                 1.5476                 1.5258
 IR Inten    --      4.3148                 3.9512                 2.6535

                     61                     62                     63
                      A                      A                      A
 Frequencies --   1499.2612              1511.8974              1518.1188
 Red. masses --      1.2006                 1.0697                 1.0525
 Frc consts  --      1.5900                 1.4407                 1.4292
 IR Inten    --     22.5016                 4.8017                 8.9948

                     64                     65                     66
                      A                      A                      A
 Frequencies --   1522.2273              1525.7979              1532.8061
 Red. masses --      1.0698                 1.0482                 1.0763
 Frc consts  --      1.4606                 1.4378                 1.4899
 IR Inten    --      0.8948                 3.8170                 4.0622

                     67                     68                     69
                      A                      A                      A
 Frequencies --   1537.2892              1540.5307              1542.8061
 Red. masses --      1.0585                 1.0757                 1.0830
 Frc consts  --      1.4738                 1.5041                 1.5187
 IR Inten    --      0.7446                 0.8140                 8.0204

                     70                     71                     72
                      A                      A                      A
 Frequencies --   1548.6857              1550.4586              1566.0566
 Red. masses --      1.0576                 1.0588                 1.1104
 Frc consts  --      1.4945                 1.4997                 1.6045
 IR Inten    --      9.4532                16.7169                 1.6635

                     73                     74                     75
                      A                      A                      A
 Frequencies --   2917.0317              2952.9663              3011.8815
 Red. masses --      1.0741                 1.0610                 1.0675
 Frc consts  --      5.3846                 5.4509                 5.7058
 IR Inten    --     61.5992               109.4615                45.9943

                     76                     77                     78
                      A                      A                      A
 Frequencies --   3017.6489              3024.8398              3031.4239
 Red. masses --      1.0702                 1.0640                 1.0581
 Frc consts  --      5.7421                 5.7356                 5.7289
 IR Inten    --     27.7660                50.9100                27.1409

                     79                     80                     81
                      A                      A                      A
 Frequencies --   3037.7160              3046.4618              3051.9846
 Red. masses --      1.0400                 1.0756                 1.0384
 Frc consts  --      5.6545                 5.8813                 5.6989
 IR Inten    --     54.7806                12.1451                13.4080

                     82                     83                     84
                      A                      A                      A
 Frequencies --   3058.2528              3063.4031              3072.8744
 Red. masses --      1.0982                 1.0834                 1.0732
 Frc consts  --      6.0519                 5.9904                 5.9707
 IR Inten    --     50.2375                25.1698                45.7595

                     85                     86                     87
                      A                      A                      A
 Frequencies --   3074.4435              3077.8716              3100.5106
 Red. masses --      1.1055                 1.1052                 1.1003
 Frc consts  --      6.1567                 6.1686                 6.2320
 IR Inten    --     24.8731                93.0411                44.7420

                     88                     89                     90
                      A                      A                      A
 Frequencies --   3110.8960              3115.3696              3120.7043
 Red. masses --      1.1020                 1.1015                 1.1023
 Frc consts  --      6.2832                 6.2987                 6.3247
 IR Inten    --     18.0908                72.6106                31.9134

                     91                     92                     93
                      A                      A                      A
 Frequencies --   3125.0112              3132.9213              3528.7079
 Red. masses --      1.0975                 1.0954                 1.0731
 Frc consts  --      6.3148                 6.3347                 7.8727
 IR Inten    --     21.8960                19.9577                 0.4815

 - Thermochemistry -
 -------------------
 Temperature   298.150 Kelvin.  Pressure   1.00000 Atm.
 Atom     1 has atomic number  6 and mass  12.00000

 Molecular mass:   171.16231 amu.
 Principal axes and moments of inertia in atomic units:
                           1         2         3
     Eigenvalues --  2023.541902489.248243799.62778
           X            0.99437  -0.10567  -0.00811
           Y            0.10567   0.99440   0.00028
           Z            0.00804  -0.00113   0.99997
 This molecule is an asymmetric top.
 Rotational symmetry number  1.
 Warning -- assumption of classical behavior for rotation
           may cause significant error
 Rotational temperatures (Kelvin)      0.04280     0.03480     0.02280
 Rotational constants (GHZ):           0.89187     0.72501     0.47498
 Zero-point vibrational energy     801224.9 (Joules/Mol)
                                  191.49734 (Kcal/Mol)
 Warning -- explicit consideration of  20 degrees of freedom as
           vibrations may cause significant error
 Vibrational temperatures:     62.21    87.36   106.66   128.33   147.79
          (Kelvin)            213.97   265.31   325.26   352.61   354.42
                              385.62   413.85   420.38   475.13   494.14
                              515.08   602.09   649.12   709.98   786.07
                             1014.31  1110.86  1174.26  1197.50  1248.80
                             1266.95  1334.46  1358.80  1378.51  1397.33
                             1416.62  1417.71  1432.25  1460.46  1496.77
                             1512.93  1582.28  1594.79  1655.54  1661.33
                             1676.30  1683.49  1698.33  1713.38  1734.48
                             1759.49  1806.22  1846.88  1894.77  1901.90
                             1942.57  1952.49  1998.53  2013.97  2017.72
                             2033.43  2038.48  2062.84  2095.80  2133.99
                             2157.10  2175.28  2184.23  2190.15  2195.28
                             2205.37  2211.82  2216.48  2219.75  2228.21
                             2230.76  2253.21  4196.96  4248.66  4333.43
                             4341.72  4352.07  4361.54  4370.60  4383.18
                             4391.13  4400.14  4407.55  4421.18  4423.44
                             4428.37  4460.94  4475.89  4482.32  4490.00
                             4496.19  4507.57  5077.02

 Zero-point correction=                           0.305170 (Hartree/Particle)
 Thermal correction to Energy=                    0.319296
 Thermal correction to Enthalpy=                  0.320240
 Thermal correction to Gibbs Free Energy=         0.264233
 Sum of electronic and zero-point Energies=           -523.380073
 Sum of electronic and thermal Energies=              -523.365948
 Sum of electronic and thermal Enthalpies=            -523.365004
 Sum of electronic and thermal Free Energies=         -523.421011

                     E (Thermal)             CV                S
                      KCal/Mol        Cal/Mol-Kelvin    Cal/Mol-Kelvin
 Total                  200.361             52.460            117.876
 Electronic               0.000              0.000              0.000
 Translational            0.889              2.981             41.320
 Rotational               0.889              2.981             31.326
 Vibrational            198.584             46.498             45.230
 Vibration     1          0.595              1.980              5.105
 Vibration     2          0.597              1.973              4.434
 Vibration     3          0.599              1.966              4.041
 Vibration     4          0.602              1.957              3.678
 Vibration     5          0.605              1.947              3.402
 Vibration     6          0.618              1.904              2.689
 Vibration     7          0.631              1.861              2.283
 Vibration     8          0.650              1.801              1.910
 Vibration     9          0.660              1.771              1.766
 Vibration    10          0.661              1.769              1.757
 Vibration    11          0.673              1.732              1.609
 Vibration    12          0.685              1.697              1.488
 Vibration    13          0.688              1.688              1.461
 Vibration    14          0.713              1.615              1.259
 Vibration    15          0.722              1.589              1.196
 Vibration    16          0.733              1.559              1.131
 Vibration    17          0.781              1.430              0.897
 Vibration    18          0.810              1.358              0.792
 Vibration    19          0.849              1.265              0.675
 Vibration    20          0.902              1.148              0.552

 Optimization completed.
    -- Stationary point found.
 Normal termination of Gaussian 16 at Wed Dec  9 17:31:45 2020.

 ----------------------------------------------------------------------
 # B3LYP/6-311++G(d,p) empiricaldispersion=gd3bj scf=xqc pop=npa geom=c
 heck
 ----------------------------------------------------------------------

 --------------------------------------
 CID_84081942_JID_2416_Energie_neutraal
 --------------------------------------
 Structure from the checkpoint file:  "JID_2416.chk"
 Charge =  0 Multiplicity = 1

 SCF Done:  E(RB3LYP) =  -523.837758457     A.U. after   13 cycles
 Normal termination of Gaussian 16 at Wed Dec  9 17:35:11 2020.

 ----------------------------------------------------------------------
 # B3LYP/6-311++G(d,p) empiricaldispersion=gd3bj scf=xqc pop=npa geom=c
 heck
 ----------------------------------------------------------------------

 ------------------------------------
 CID_84081942_JID_2416_Energie_kation
 ------------------------------------
 Structure from the checkpoint file:  "JID_2416.chk"
 Charge =  1 Multiplicity = 2

 SCF Done:  E(UB3LYP) =  -523.529725381     A.U. after   27 cycles
 Normal termination of Gaussian 16 at Wed Dec  9 17:44:46 2020.
 Gaussian 16:  ES64L-G16RevA.03 25-Dec-2016

 ----------------------------------------------------------------------
 # B3LYP/6-311++G(d,p) empiricaldispersion=gd3bj scf=xqc pop=npa geom=c
 heck
 ----------------------------------------------------------------------

 -----------------------------------
 CID_84081942_JID_2416_Energie_anion
 -----------------------------------
 Structure from the checkpoint file:  "JID_2416.chk"
 Charge = -1 Multiplicity = 2

                         Standard orientation:
 ---------------------------------------------------------------------
 Center     Atomic      Atomic             Coordinates (Angstroms)
 Number     Number       Type             X           Y           Z
 ---------------------------------------------------------------------
      1          6           0        0.067090    2.070721    1.366331
      2          6           0       -0.693253    2.042867    0.033200
      3          6           0       -0.259065    3.217876   -0.854150
      4          6           0       -0.569142    0.730671   -0.771520
      5          6           0       -0.903745   -0.587742   -0.060396
      6          6           0       -2.289527   -0.656009    0.631377
      7          8           0       -2.642667   -1.860113   -0.082813
      8          6           0       -1.514963   -1.692271   -0.968046
      9          6           0        0.194844   -1.191156    0.837370
     10          6           0        1.536556   -1.495324    0.154444
     11          7           0        2.478463   -0.377309    0.214489
     12          6           0        3.767496   -0.701723   -0.384207
     13          1           0        1.123040    1.804575    1.244482
     14          1           0       -0.364419    1.377967    2.095005
     15          1           0        0.021300    3.074599    1.804406
     16          1           0       -1.759678    2.180247    0.263781
     17          1           0        0.812664    3.155346   -1.084725
     18          1           0       -0.804140    3.226845   -1.805293
     19          1           0       -0.434770    4.177009   -0.354372
     20          1           0       -1.246983    0.828315   -1.630234
     21          1           0        0.434656    0.665968   -1.213604
     22          1           0       -2.293771   -0.803433    1.718460
     23          1           0       -2.963153    0.174893    0.377807
     24          1           0       -1.827270   -1.338298   -1.961159
     25          1           0       -0.941406   -2.620246   -1.081629
     26          1           0        0.393169   -0.554648    1.703458
     27          1           0       -0.212796   -2.130581    1.231717
     28          1           0        2.016108   -2.330801    0.679720
     29          1           0        1.362460   -1.851403   -0.881267
     30          1           0        2.085252    0.425723   -0.267812
     31          1           0        3.706483   -1.065534   -1.427234
     32          1           0        4.412607    0.182565   -0.365826
     33          1           0        4.255001   -1.484497    0.208987
 ---------------------------------------------------------------------

 SCF Done:  E(UB3LYP) =  -523.823169108     A.U. after   30 cycles

 The electronic state is 2-A.
 Alpha  occ. eigenvalues --  -19.02604 -14.19813 -10.12229 -10.12052 -10.09495
 Alpha  occ. eigenvalues --  -10.09298 -10.08481 -10.07731 -10.07148 -10.06974
 Alpha  occ. eigenvalues --  -10.05733 -10.05503  -0.95153  -0.80620  -0.72532
 Alpha  occ. eigenvalues --   -0.68559  -0.62942  -0.60064  -0.58604  -0.57454
 Alpha  occ. eigenvalues --   -0.55096  -0.51410  -0.47118  -0.44222  -0.40658
 Alpha  occ. eigenvalues --   -0.39246  -0.38467  -0.36636  -0.35838  -0.34858
 Alpha  occ. eigenvalues --   -0.33199  -0.33031  -0.31812  -0.30539  -0.30225
 Alpha  occ. eigenvalues --   -0.28570  -0.28526  -0.27996  -0.26828  -0.25861
 Alpha  occ. eigenvalues --   -0.25495  -0.24203  -0.23145  -0.22123  -0.20558
 Alpha  occ. eigenvalues --   -0.19823  -0.16270  -0.13051   0.04459
 Alpha virt. eigenvalues --    0.06505   0.07223   0.07533   0.08680   0.08986
 Alpha virt. eigenvalues --    0.09259   0.09796   0.09923   0.11063   0.11630
 Alpha virt. eigenvalues --    0.12020   0.12255   0.12781   0.13151   0.13298

  Beta  occ. eigenvalues --  -19.02602 -14.19798 -10.12218 -10.12037 -10.09478
  Beta  occ. eigenvalues --  -10.09298 -10.08443 -10.07720 -10.07141 -10.06952
  Beta  occ. eigenvalues --  -10.05716 -10.05463  -0.95148  -0.80595  -0.72509
  Beta  occ. eigenvalues --   -0.68535  -0.62910  -0.60033  -0.58555  -0.57390
  Beta  occ. eigenvalues --   -0.55034  -0.51355  -0.47055  -0.44177  -0.40637
  Beta  occ. eigenvalues --   -0.39211  -0.38440  -0.36594  -0.35808  -0.34811
  Beta  occ. eigenvalues --   -0.33164  -0.32997  -0.31784  -0.30509  -0.30194
  Beta  occ. eigenvalues --   -0.28536  -0.28490  -0.27966  -0.26791  -0.25830
  Beta  occ. eigenvalues --   -0.25462  -0.24174  -0.23098  -0.22092  -0.20531
  Beta  occ. eigenvalues --   -0.19804  -0.16259  -0.13013
  Beta virt. eigenvalues --    0.06617   0.07293   0.07792   0.08187   0.09086
  Beta virt. eigenvalues --    0.09546   0.09754   0.10130   0.10327   0.11442
  Beta virt. eigenvalues --    0.11971   0.12308   0.12608   0.12954   0.13504

 Mulliken charges and spin densities:
               1          2
     1  C    0.147960  -0.761081
     2  C   -1.724904   2.026979
     3  C    1.382760  -2.062858
     4  C    1.354320  -1.983631
     5  C   -1.548063   2.080815
     6  C    0.419848  -0.694588
     7  O   -0.155889   0.008458
     8  C    0.895762  -1.192487
     9  C    0.313677  -0.551081
    10  C   -0.457340  -0.312748
    11  N   -0.279479   0.226241
    12  C    0.538199  -0.884148
    13  H   -0.119042   0.287096
    14  H    0.003606   0.118968
    15  H   -0.209444   0.365315
    16  H   -0.079525   0.238832
    17  H   -0.373987   0.519724
    18  H   -0.393188   0.527406
    19  H   -0.272512   0.409964
    20  H   -0.007125   0.178754
    21  H   -0.332769   0.495457
    22  H   -0.013991   0.184160
    23  H   -0.018995   0.178291
    24  H   -0.200290   0.353045
    25  H   -0.000871   0.158140
    26  H    0.251180  -0.092303
    27  H   -0.000389   0.178903
    28  H   -0.064132   0.230554
    29  H    0.108326   0.009866
    30  H    0.814580  -0.609151
    31  H   -0.279645   0.408466
    32  H   -0.417009   0.553000
    33  H   -0.281624   0.405642
 Sum of Mulliken charges =  -1.00000   1.00000

 Dipole moment (field-independent basis, Debye):
    X=             -2.7426    Y=             -3.1968    Z=              2.7551  Tot=              5.0331
 Quadrupole moment (field-independent basis, Debye-Ang):
   XX=           -142.7441   YY=           -136.3326   ZZ=           -116.8909
   XY=             -0.3137   XZ=              0.8238   YZ=              3.0352

 Summary of Natural Population Analysis:

                                       Natural Population
                Natural  -----------------------------------------------
    Atom  No    Charge         Core      Valence    Rydberg      Total
 -----------------------------------------------------------------------
      C    1   -0.28830      0.99964     2.28239    0.00627     3.28830
      C    2   -0.11333      0.99961     2.10401    0.00970     3.11333
      C    3   -0.28127      0.99965     2.27542    0.00620     3.28127
      C    4   -0.18978      0.99957     2.17848    0.01173     3.18978
      C    5   -0.05854      0.99955     2.04587    0.01313     3.05854
      C    6    0.00186      0.99957     1.98754    0.01103     2.99814
      O    7   -0.30823      0.99991     3.30001    0.00831     4.30823
      C    8    0.00300      0.99958     1.98434    0.01308     2.99700
      C    9   -0.19366      0.99958     2.18535    0.00873     3.19366
      C   10   -0.08817      0.99962     2.07701    0.01154     3.08817
      N   11   -0.33970      0.99975     2.82894    0.01101     3.83970
      C   12   -0.17725      0.99966     2.16904    0.00854     3.17725
      H   13    0.10210      0.00000     0.39624    0.00166     0.39790
      H   14    0.09576      0.00000     0.40302    0.00122     0.40424
      H   15    0.09961      0.00000     0.39947    0.00093     0.40039
      H   16    0.09053      0.00000     0.40738    0.00209     0.40947
      H   17    0.09701      0.00000     0.40131    0.00169     0.40299
      H   18    0.10055      0.00000     0.39793    0.00152     0.39945
      H   19    0.09928      0.00000     0.39946    0.00126     0.40072
      H   20    0.10299      0.00000     0.39511    0.00190     0.39701
      H   21    0.09512      0.00000     0.40250    0.00238     0.40488
      H   22    0.08388      0.00000     0.41470    0.00141     0.41612
      H   23    0.08307      0.00000     0.41513    0.00180     0.41693
      H   24    0.08252      0.00000     0.41581    0.00167     0.41748
      H   25    0.08397      0.00000     0.41451    0.00153     0.41603
      H   26    0.10690      0.00000     0.39138    0.00172     0.39310
      H   27    0.10015      0.00000     0.39838    0.00147     0.39985
      H   28    0.09291      0.00000     0.40591    0.00118     0.40709
      H   29    0.07885      0.00000     0.41945    0.00170     0.42115
      H   30    0.17229      0.00000     0.32328    0.00443     0.32771
      H   31    0.08000      0.00000     0.41825    0.00175     0.42000
      H   32    0.09634      0.00000     0.40255    0.00110     0.40366
      H   33    0.08952      0.00000     0.40902    0.00146     0.41048
 =======================================================================
   * Total *   -0.00000     11.99569    35.84919    0.15512    48.00000

 Normal termination of Gaussian 16 at Wed Dec  9 17:56:28 2020.
