 Gaussian 16, Revision A.03,

 -----------------------------------------------------------
 # opt freq B3LYP/6-31G(d) empiricaldispersion=gd3bj scf=xqc
 -----------------------------------------------------------

 -------------------------------
 CID_115152357_JID_6763_neutraal
 -------------------------------
 Symbolic Z-matrix:
 Charge =  0 Multiplicity = 1

 SCF Done:  E(RB3LYP) =  -692.228678574     A.U. after   15 cycles
 SCF Done:  E(RB3LYP) =  -692.232341229     A.U. after   12 cycles
 SCF Done:  E(RB3LYP) =  -692.232643826     A.U. after   12 cycles
 SCF Done:  E(RB3LYP) =  -692.232475758     A.U. after   12 cycles
 SCF Done:  E(RB3LYP) =  -692.233154015     A.U. after   12 cycles
 SCF Done:  E(RB3LYP) =  -692.233370456     A.U. after   12 cycles
 SCF Done:  E(RB3LYP) =  -692.233651659     A.U. after   12 cycles
 SCF Done:  E(RB3LYP) =  -692.234012472     A.U. after   12 cycles
 SCF Done:  E(RB3LYP) =  -692.234417909     A.U. after   13 cycles
 SCF Done:  E(RB3LYP) =  -692.234800975     A.U. after   13 cycles
 SCF Done:  E(RB3LYP) =  -692.237170660     A.U. after    8 cycles
 SCF Done:  E(RB3LYP) =  -692.237170778     A.U. after    8 cycles
 SCF Done:  E(RB3LYP) =  -692.237170814     A.U. after    8 cycles
 SCF Done:  E(RB3LYP) =  -692.237170808     A.U. after    8 cycles
 SCF Done:  E(RB3LYP) =  -692.237170860     A.U. after    7 cycles
 Optimization completed.
    -- Stationary point found.
 Normal termination of Gaussian 16 at Fri Dec 11 00:27:10 2020.

 --------------------------------------------------------------------
 #N Geom=AllCheck Guess=TCheck SCRF=Check GenChk RB3LYP/6-31G(d) Freq
 --------------------------------------------------------------------

 Structure from the checkpoint file:  "JID_6763.chk"
 -------------------------------
 CID_115152357_JID_6763_neutraal
 -------------------------------
 Charge =  0 Multiplicity = 1

 SCF Done:  E(RB3LYP) =  -692.237170860     A.U. after    1 cycles

  Exact polarizability: 193.653   1.576 144.867  -9.972   3.378 112.193
 Approx polarizability: 242.549   9.958 250.939 -25.288   4.271 163.429

                      1                      2                      3
                      A                      A                      A
 Frequencies --     18.7408                33.2595                41.3278
 Red. masses --      3.6286                 4.2471                 4.9196
 Frc consts  --      0.0008                 0.0028                 0.0050
 IR Inten    --      0.3255                 0.1636                 1.4617

                      4                      5                      6
                      A                      A                      A
 Frequencies --     51.8613                72.9087                83.4766
 Red. masses --      3.7359                 3.6982                 3.1305
 Frc consts  --      0.0059                 0.0116                 0.0129
 IR Inten    --      0.4616                 0.1038                 3.0363

                      7                      8                      9
                      A                      A                      A
 Frequencies --    116.2591               176.1450               207.7935
 Red. masses --      2.0589                 3.7343                 2.3451
 Frc consts  --      0.0164                 0.0683                 0.0597
 IR Inten    --      0.2494                 0.0126                 0.8476

                     10                     11                     12
                      A                      A                      A
 Frequencies --    219.1478               239.1327               258.6461
 Red. masses --      1.6703                 2.5042                 1.5155
 Frc consts  --      0.0473                 0.0844                 0.0597
 IR Inten    --      2.8334                 0.8715                 1.7742

                     13                     14                     15
                      A                      A                      A
 Frequencies --    266.3933               288.2148               317.4335
 Red. masses --      1.4235                 1.4141                 3.4603
 Frc consts  --      0.0595                 0.0692                 0.2054
 IR Inten    --      0.9724                26.8884                 0.1662

                     16                     17                     18
                      A                      A                      A
 Frequencies --    321.9643               353.0210               391.3829
 Red. masses --      2.6272                 2.5413                 2.4206
 Frc consts  --      0.1605                 0.1866                 0.2185
 IR Inten    --     15.3132                 1.4242                 3.4953

                     19                     20                     21
                      A                      A                      A
 Frequencies --    399.3194               419.0486               433.7658
 Red. masses --      2.6742                 3.0325                 3.2814
 Frc consts  --      0.2512                 0.3137                 0.3638
 IR Inten    --      3.3186                 0.1322                 6.3480

                     22                     23                     24
                      A                      A                      A
 Frequencies --    503.2607               540.9169               576.6101
 Red. masses --      3.8873                 3.9441                 2.6894
 Frc consts  --      0.5801                 0.6799                 0.5268
 IR Inten    --      0.4151                16.4078                10.5192

                     25                     26                     27
                      A                      A                      A
 Frequencies --    621.5449               655.0268               679.8887
 Red. masses --      2.4162                 4.7466                 2.0069
 Frc consts  --      0.5500                 1.1999                 0.5466
 IR Inten    --     27.3540                 7.7024                50.0669

                     28                     29                     30
                      A                      A                      A
 Frequencies --    724.6108               736.2712               755.7645
 Red. masses --      3.5494                 2.3980                 2.9949
 Frc consts  --      1.0980                 0.7659                 1.0079
 IR Inten    --      3.0141                 3.0471                 6.7193

                     31                     32                     33
                      A                      A                      A
 Frequencies --    768.8790               800.4549               828.9030
 Red. masses --      3.0324                 1.4358                 2.4128
 Frc consts  --      1.0562                 0.5420                 0.9767
 IR Inten    --     80.6517                 6.2974                16.4938

                     34                     35                     36
                      A                      A                      A
 Frequencies --    858.0740               865.8832               882.9373
 Red. masses --      1.8293                 1.3852                 2.3424
 Frc consts  --      0.7936                 0.6119                 1.0759
 IR Inten    --      4.0249                 4.0200                 0.8068

                     37                     38                     39
                      A                      A                      A
 Frequencies --    899.3397               908.8213               941.2153
 Red. masses --      1.5249                 1.4170                 1.7858
 Frc consts  --      0.7267                 0.6895                 0.9321
 IR Inten    --     71.0530                 1.8104                40.0930

                     40                     41                     42
                      A                      A                      A
 Frequencies --    961.9256               973.0531              1004.8334
 Red. masses --      1.3263                 1.3556                 1.6762
 Frc consts  --      0.7230                 0.7562                 0.9972
 IR Inten    --      1.5786                 1.4903                21.8158

                     43                     44                     45
                      A                      A                      A
 Frequencies --   1028.8439              1041.3120              1055.3485
 Red. masses --      1.6122                 2.8946                 1.9677
 Frc consts  --      1.0055                 1.8493                 1.2913
 IR Inten    --      0.3371                 5.9267                 1.3652

                     46                     47                     48
                      A                      A                      A
 Frequencies --   1089.8618              1110.0933              1114.5944
 Red. masses --      1.5691                 1.7409                 1.7801
 Frc consts  --      1.0981                 1.2640                 1.3029
 IR Inten    --      2.4394                48.6435                 0.8404

                     49                     50                     51
                      A                      A                      A
 Frequencies --   1136.3071              1153.9512              1160.1311
 Red. masses --      2.7731                 2.0504                 1.5007
 Frc consts  --      2.1097                 1.6086                 1.1900
 IR Inten    --     20.3801                10.3010                 6.4873

                     52                     53                     54
                      A                      A                      A
 Frequencies --   1215.5789              1227.7143              1241.0010
 Red. masses --      1.6086                 1.7789                 2.2595
 Frc consts  --      1.4004                 1.5798                 2.0503
 IR Inten    --      1.3047                 4.2295                 5.1953

                     55                     56                     57
                      A                      A                      A
 Frequencies --   1252.4815              1254.4554              1295.6248
 Red. masses --      1.4427                 1.4356                 1.2463
 Frc consts  --      1.3334                 1.3311                 1.2327
 IR Inten    --      1.0913                27.4528                27.4493

                     58                     59                     60
                      A                      A                      A
 Frequencies --   1306.4066              1331.1563              1361.4047
 Red. masses --      1.2416                 1.9373                 1.8115
 Frc consts  --      1.2485                 2.0226                 1.9782
 IR Inten    --      1.6311                 5.9158                 0.6390

                     61                     62                     63
                      A                      A                      A
 Frequencies --   1374.9538              1384.8305              1392.4465
 Red. masses --      1.6004                 1.4349                 1.3216
 Frc consts  --      1.7826                 1.6213                 1.5098
 IR Inten    --     70.7280                 1.8804                10.9639

                     64                     65                     66
                      A                      A                      A
 Frequencies --   1394.2819              1403.9146              1423.5332
 Red. masses --      1.3994                 1.6264                 1.9222
 Frc consts  --      1.6029                 1.8887                 2.2951
 IR Inten    --     10.6769                16.2282                42.9683

                     67                     68                     69
                      A                      A                      A
 Frequencies --   1439.7264              1443.2035              1470.2661
 Red. masses --      1.3278                 1.2686                 2.3896
 Frc consts  --      1.6216                 1.5568                 3.0435
 IR Inten    --     24.2087                 7.6815                 7.1606

                     70                     71                     72
                      A                      A                      A
 Frequencies --   1506.7110              1515.3826              1519.5958
 Red. masses --      1.6792                 1.0832                 1.0815
 Frc consts  --      2.2460                 1.4655                 1.4714
 IR Inten    --     24.9398                 2.4784                 0.7720

                     73                     74                     75
                      A                      A                      A
 Frequencies --   1520.7905              1530.4574              1531.2607
 Red. masses --      1.0612                 1.0763                 1.0526
 Frc consts  --      1.4461                 1.4853                 1.4541
 IR Inten    --      7.1358                14.2527                 4.9811

                     76                     77                     78
                      A                      A                      A
 Frequencies --   1533.4253              1538.5029              1567.0260
 Red. masses --      1.0960                 1.0628                 2.3997
 Frc consts  --      1.5184                 1.4822                 3.4718
 IR Inten    --     22.5660                 3.3830                19.1813

                     79                     80                     81
                      A                      A                      A
 Frequencies --   1634.2543              1678.2237              1692.0698
 Red. masses --      5.9924                 5.7292                 1.0911
 Frc consts  --      9.4295                 9.5071                 1.8406
 IR Inten    --      1.3190                 0.9830                41.5016

                     82                     83                     84
                      A                      A                      A
 Frequencies --   1775.5232              3015.6799              3035.0851
 Red. masses --      7.5596                 1.0842                 1.0601
 Frc consts  --     14.0411                 5.8093                 5.7537
 IR Inten    --    322.5697                46.6261                20.7196

                     85                     86                     87
                      A                      A                      A
 Frequencies --   3039.3019              3045.3978              3045.4965
 Red. masses --      1.0613                 1.0679                 1.0404
 Frc consts  --      5.7761                 5.8356                 5.6852
 IR Inten    --     38.7732                27.0877                35.6116

                     88                     89                     90
                      A                      A                      A
 Frequencies --   3055.5520              3069.4371              3080.4814
 Red. masses --      1.0405                 1.1004                 1.1034
 Frc consts  --      5.7239                 6.1081                 6.1690
 IR Inten    --     22.7799                34.5911                32.8922

                     91                     92                     93
                      A                      A                      A
 Frequencies --   3109.8948              3116.4423              3124.9126
 Red. masses --      1.1009                 1.0944                 1.1014
 Frc consts  --      6.2732                 6.2627                 6.3369
 IR Inten    --     44.4089                32.8116                66.5195

                     94                     95                     96
                      A                      A                      A
 Frequencies --   3125.1675              3155.7891              3167.2395
 Red. masses --      1.0972                 1.1026                 1.0868
 Frc consts  --      6.3138                 6.4699                 6.4233
 IR Inten    --     11.1794                15.1590                14.5780

                     97                     98                     99
                      A                      A                      A
 Frequencies --   3174.8288              3187.4037              3207.1841
 Red. masses --      1.0884                 1.0938                 1.0918
 Frc consts  --      6.4638                 6.5472                 6.6169
 IR Inten    --     14.0388                26.4882                 7.0873

                    100                    101                    102
                      A                      A                      A
 Frequencies --   3465.7651              3551.3673              3560.8745
 Red. masses --      1.0496                 1.0931                 1.0749
 Frc consts  --      7.4280                 8.1228                 8.0302
 IR Inten    --      0.7133                 0.3932                11.9742

 - Thermochemistry -
 -------------------
 Temperature   298.150 Kelvin.  Pressure   1.00000 Atm.
 Atom     1 has atomic number  6 and mass  12.00000

 Molecular mass:   220.15756 amu.
 Principal axes and moments of inertia in atomic units:
                           1         2         3
     Eigenvalues --  1495.534718163.221308312.96812
           X            0.99989  -0.01040   0.01020
           Y            0.00874   0.98848   0.15112
           Z           -0.01166  -0.15101   0.98846
 This molecule is an asymmetric top.
 Rotational symmetry number  1.
 Warning -- assumption of classical behavior for rotation
           may cause significant error
 Rotational temperatures (Kelvin)      0.05792     0.01061     0.01042
 Rotational constants (GHZ):           1.20675     0.22108     0.21710
 Zero-point vibrational energy     832465.7 (Joules/Mol)
                                  198.96409 (Kcal/Mol)
 Warning -- explicit consideration of  24 degrees of freedom as
           vibrations may cause significant error
 Vibrational temperatures:     26.96    47.85    59.46    74.62   104.90
          (Kelvin)            120.10   167.27   253.43   298.97   315.30
                              344.06   372.13   383.28   414.68   456.72
                              463.23   507.92   563.11   574.53   602.92
                              624.09   724.08   778.26   829.61   894.26
                              942.44   978.21  1042.55  1059.33  1087.38
                             1106.25  1151.68  1192.61  1234.58  1245.81
                             1270.35  1293.95  1307.59  1354.20  1384.00
                             1400.01  1445.73  1480.28  1498.22  1518.41
                             1568.07  1597.18  1603.65  1634.89  1660.28
                             1669.17  1748.95  1766.41  1785.52  1802.04
                             1804.88  1864.12  1879.63  1915.24  1958.76
                             1978.25  1992.46  2003.42  2006.06  2019.92
                             2048.15  2071.45  2076.45  2115.38  2167.82
                             2180.30  2186.36  2188.08  2201.99  2203.14
                             2206.26  2213.56  2254.60  2351.33  2414.59
                             2434.51  2554.58  4338.89  4366.81  4372.88
                             4381.65  4381.79  4396.26  4416.24  4432.13
                             4474.44  4483.87  4496.05  4496.42  4540.48
                             4556.95  4567.87  4585.96  4614.42  4986.46
                             5109.63  5123.30

 Zero-point correction=                           0.317069 (Hartree/Particle)
 Thermal correction to Energy=                    0.333950
 Thermal correction to Enthalpy=                  0.334894
 Thermal correction to Gibbs Free Energy=         0.270558
 Sum of electronic and zero-point Energies=           -691.920101
 Sum of electronic and thermal Energies=              -691.903221
 Sum of electronic and thermal Enthalpies=            -691.902277
 Sum of electronic and thermal Free Energies=         -691.966612

                     E (Thermal)             CV                S
                      KCal/Mol        Cal/Mol-Kelvin    Cal/Mol-Kelvin
 Total                  209.557             63.282            135.405
 Electronic               0.000              0.000              0.000
 Translational            0.889              2.981             42.070
 Rotational               0.889              2.981             32.984
 Vibrational            207.779             57.320             60.351
 Vibration     1          0.593              1.986              6.763
 Vibration     2          0.594              1.983              5.625
 Vibration     3          0.594              1.981              5.194
 Vibration     4          0.596              1.977              4.745
 Vibration     5          0.599              1.967              4.073
 Vibration     6          0.600              1.961              3.807
 Vibration     7          0.608              1.936              3.162
 Vibration     8          0.628              1.872              2.369
 Vibration     9          0.641              1.829              2.063
 Vibration    10          0.647              1.812              1.966
 Vibration    11          0.657              1.781              1.809
 Vibration    12          0.667              1.748              1.671
 Vibration    13          0.672              1.735              1.619
 Vibration    14          0.685              1.696              1.484
 Vibration    15          0.704              1.640              1.323
 Vibration    16          0.707              1.631              1.300
 Vibration    17          0.729              1.569              1.153
 Vibration    18          0.759              1.489              0.995
 Vibration    19          0.765              1.472              0.965
 Vibration    20          0.782              1.429              0.895
 Vibration    21          0.795              1.397              0.846
 Vibration    22          0.859              1.243              0.650
 Vibration    23          0.896              1.160              0.563
 Vibration    24          0.933              1.082              0.492

 Optimization completed.
    -- Stationary point found.
 Normal termination of Gaussian 16 at Fri Dec 11 00:38:44 2020.

 ----------------------------------------------------------------------
 # B3LYP/6-311++G(d,p) empiricaldispersion=gd3bj scf=xqc pop=npa geom=c
 heck
 ----------------------------------------------------------------------

 ---------------------------------------
 CID_115152357_JID_6763_Energie_neutraal
 ---------------------------------------
 Structure from the checkpoint file:  "JID_6763.chk"
 Charge =  0 Multiplicity = 1

 SCF Done:  E(RB3LYP) =  -692.439055413     A.U. after   15 cycles
 Normal termination of Gaussian 16 at Fri Dec 11 00:44:11 2020.

 ----------------------------------------------------------------------
 # B3LYP/6-311++G(d,p) empiricaldispersion=gd3bj scf=xqc pop=npa geom=c
 heck
 ----------------------------------------------------------------------

 -------------------------------------
 CID_115152357_JID_6763_Energie_kation
 -------------------------------------
 Structure from the checkpoint file:  "JID_6763.chk"
 Charge =  1 Multiplicity = 2

 SCF Done:  E(UB3LYP) =  -692.140157867     A.U. after   25 cycles
 Normal termination of Gaussian 16 at Fri Dec 11 00:56:47 2020.
 Gaussian 16:  ES64L-G16RevA.03 25-Dec-2016

 ----------------------------------------------------------------------
 # B3LYP/6-311++G(d,p) empiricaldispersion=gd3bj scf=xqc pop=npa geom=c
 heck
 ----------------------------------------------------------------------

 ------------------------------------
 CID_115152357_JID_6763_Energie_anion
 ------------------------------------
 Structure from the checkpoint file:  "JID_6763.chk"
 Charge = -1 Multiplicity = 2

                         Standard orientation:
 ---------------------------------------------------------------------
 Center     Atomic      Atomic             Coordinates (Angstroms)
 Number     Number       Type             X           Y           Z
 ---------------------------------------------------------------------
      1          6           0       -5.095833   -0.107759   -1.060341
      2          6           0       -4.781287    0.928878    0.019669
      3          6           0       -3.856636    0.393435    1.132311
      4          6           0       -2.487177    0.001768    0.627489
      5          6           0       -1.524212    0.976674    0.346851
      6          6           0       -0.270553    0.633025   -0.158962
      7          6           0        0.057955   -0.704092   -0.400058
      8          6           0       -0.903251   -1.683487   -0.124099
      9          6           0       -2.152586   -1.336345    0.383526
     10          6           0        1.420287   -1.129546   -0.924156
     11          7           0        2.260011   -0.037048   -1.392734
     12          6           0        3.144270    0.728119   -0.675181
     13          8           0        3.501107    1.825837   -1.091229
     14          6           0        3.711965    0.206465    0.654804
     15          6           0        2.745975    0.497159    1.810611
     16          7           0        4.018150   -1.230449    0.612444
     17          1           0       -4.182454   -0.448758   -1.558891
     18          1           0       -5.763609    0.306516   -1.823633
     19          1           0       -5.587025   -0.988740   -0.628340
     20          1           0       -4.310609    1.807947   -0.440103
     21          1           0       -5.714648    1.279401    0.479327
     22          1           0       -3.755043    1.163234    1.907937
     23          1           0       -4.334785   -0.472177    1.608779
     24          1           0       -1.756659    2.023706    0.528860
     25          1           0        0.457170    1.412401   -0.362889
     26          1           0       -0.669006   -2.730500   -0.306171
     27          1           0       -2.883266   -2.114105    0.592414
     28          1           0        1.987221   -1.663312   -0.157312
     29          1           0        1.283996   -1.831338   -1.756856
     30          1           0        1.930010    0.463615   -2.211548
     31          1           0        4.605192    0.831216    0.799358
     32          1           0        1.820246   -0.076197    1.716977
     33          1           0        3.217693    0.237219    2.766036
     34          1           0        2.496942    1.562086    1.835093
     35          1           0        4.726409   -1.412467   -0.096976
     36          1           0        4.422737   -1.509730    1.505005
 ---------------------------------------------------------------------

 SCF Done:  E(UB3LYP) =  -692.428256064     A.U. after   33 cycles
 SCF Done:  E(UB3LYP) =  -692.428256064     a.u. after    1 cycles

 The electronic state is 2-A.
 Alpha  occ. eigenvalues --  -18.99835 -14.24748 -14.20489 -10.18110 -10.11745
 Alpha  occ. eigenvalues --  -10.11724 -10.09066 -10.08658 -10.08332 -10.08249
 Alpha  occ. eigenvalues --  -10.08241 -10.08078 -10.07976 -10.07866 -10.07315
 Alpha  occ. eigenvalues --  -10.06840  -0.94947  -0.83663  -0.79858  -0.77040
 Alpha  occ. eigenvalues --   -0.71169  -0.66959  -0.65663  -0.65447  -0.61797
 Alpha  occ. eigenvalues --   -0.57772  -0.55573  -0.52258  -0.50986  -0.48149
 Alpha  occ. eigenvalues --   -0.47813  -0.42308  -0.40930  -0.40431  -0.38255
 Alpha  occ. eigenvalues --   -0.37280  -0.36574  -0.36300  -0.35653  -0.34641
 Alpha  occ. eigenvalues --   -0.33918  -0.32953  -0.32717  -0.31949  -0.30808
 Alpha  occ. eigenvalues --   -0.30077  -0.28707  -0.27753  -0.27592  -0.27385
 Alpha  occ. eigenvalues --   -0.26406  -0.25606  -0.24814  -0.24219  -0.23810
 Alpha  occ. eigenvalues --   -0.17580  -0.16625  -0.16414  -0.16248  -0.14532
 Alpha  occ. eigenvalues --    0.03945
 Alpha virt. eigenvalues --    0.05222   0.06487   0.07034   0.07190   0.07480
 Alpha virt. eigenvalues --    0.07809   0.08491   0.08615   0.08952   0.09769
 Alpha virt. eigenvalues --    0.09868   0.10255   0.10674   0.10939   0.11733

  Beta  occ. eigenvalues --  -18.99830 -14.24741 -14.20425 -10.18109 -10.11732
  Beta  occ. eigenvalues --  -10.11719 -10.09035 -10.08632 -10.08319 -10.08244
  Beta  occ. eigenvalues --  -10.08243 -10.08052 -10.07964 -10.07845 -10.07296
  Beta  occ. eigenvalues --  -10.06818  -0.94938  -0.83647  -0.79770  -0.76995
  Beta  occ. eigenvalues --   -0.71121  -0.66913  -0.65625  -0.65377  -0.61762
  Beta  occ. eigenvalues --   -0.57730  -0.55520  -0.52215  -0.50932  -0.48111
  Beta  occ. eigenvalues --   -0.47769  -0.42279  -0.40864  -0.40401  -0.38177
  Beta  occ. eigenvalues --   -0.37223  -0.36548  -0.36268  -0.35614  -0.34608
  Beta  occ. eigenvalues --   -0.33887  -0.32929  -0.32681  -0.31911  -0.30775
  Beta  occ. eigenvalues --   -0.30042  -0.28668  -0.27721  -0.27545  -0.27334
  Beta  occ. eigenvalues --   -0.26371  -0.25576  -0.24763  -0.24189  -0.23770
  Beta  occ. eigenvalues --   -0.17552  -0.16544  -0.16398  -0.16169  -0.14406
  Beta virt. eigenvalues --    0.05936   0.06466   0.06805   0.07259   0.07429
  Beta virt. eigenvalues --    0.07852   0.08173   0.08780   0.08881   0.09208
  Beta virt. eigenvalues --    0.09994   0.10310   0.10383   0.10872   0.11188

 Mulliken charges and spin densities:
               1          2
     1  C    0.192249  -0.817478
     2  C    0.042873  -0.274003
     3  C    0.015308  -0.428153
     4  C    0.622019   0.214379
     5  C   -1.150955   0.499244
     6  C   -0.642967   0.139578
     7  C    1.173485  -0.342244
     8  C    0.084424  -0.279015
     9  C   -0.000503  -0.324287
    10  C   -0.229732  -0.660366
    11  N   -0.120838   0.027748
    12  C   -0.208327   0.145134
    13  O   -0.316933   0.014677
    14  C    0.625131  -0.713767
    15  C   -0.180012  -0.421581
    16  N   -0.329546  -0.023621
    17  H    0.130439   0.013288
    18  H   -0.105938   0.237224
    19  H   -0.050917   0.188039
    20  H    0.041940   0.077190
    21  H   -0.393754   0.545540
    22  H   -0.061736   0.224571
    23  H   -0.249554   0.409086
    24  H   -0.051477   0.223559
    25  H    0.100542   0.080975
    26  H   -0.136331   0.315009
    27  H   -0.088776   0.250536
    28  H    0.352258  -0.028366
    29  H    0.013478   0.145146
    30  H    0.279215   0.026714
    31  H   -0.017937   0.242750
    32  H    0.196449  -0.037038
    33  H   -0.272191   0.431409
    34  H    0.139836   0.010309
    35  H   -0.155725   0.401398
    36  H   -0.245494   0.486416
 Sum of Mulliken charges =  -1.00000   1.00000

 Dipole moment (field-independent basis, Debye):
    X=             -1.3336    Y=              0.1812    Z=             -2.8217  Tot=              3.1262
 Quadrupole moment (field-independent basis, Debye-Ang):
   XX=           -229.7430   YY=           -135.9267   ZZ=           -130.6295
   XY=              6.2468   XZ=             -2.5620   YZ=              6.1462

 Summary of Natural Population Analysis:

                                       Natural Population
                Natural  -----------------------------------------------
    Atom  No    Charge         Core      Valence    Rydberg      Total
 -----------------------------------------------------------------------
      C    1   -0.28909      0.99967     2.28356    0.00586     3.28909
      C    2   -0.18486      0.99964     2.17744    0.00778     3.18486
      C    3   -0.19744      0.99960     2.18783    0.01001     3.19744
      C    4   -0.01513      0.99951     2.00409    0.01153     3.01513
      C    5   -0.09249      0.99951     2.08437    0.00861     3.09249
      C    6   -0.12279      0.99955     2.10991    0.01333     3.12279
      C    7    0.01732      0.99952     1.97665    0.00650     2.98268
      C    8   -0.09328      0.99955     2.08409    0.00964     3.09328
      C    9   -0.10602      0.99953     2.09370    0.01279     3.10602
      C   10   -0.12078      0.99959     2.10515    0.01604     3.12078
      N   11   -0.31587      0.99967     2.80621    0.01000     3.81587
      C   12    0.34297      0.99964     1.63256    0.02483     2.65703
      O   13   -0.32638      0.99988     3.32074    0.00576     4.32638
      C   14   -0.05221      0.99958     2.03915    0.01348     3.05221
      C   15   -0.28678      0.99964     2.28068    0.00646     3.28678
      N   16   -0.42754      0.99976     2.91602    0.01176     3.92754
      H   17    0.10003      0.00000     0.39894    0.00103     0.39997
      H   18    0.09790      0.00000     0.40133    0.00077     0.40210
      H   19    0.09582      0.00000     0.40308    0.00110     0.40418
      H   20    0.09267      0.00000     0.40616    0.00117     0.40733
      H   21    0.09672      0.00000     0.40145    0.00183     0.40328
      H   22    0.10359      0.00000     0.39520    0.00122     0.39641
      H   23    0.09920      0.00000     0.39941    0.00139     0.40080
      H   24    0.09862      0.00000     0.40019    0.00119     0.40138
      H   25    0.10435      0.00000     0.39406    0.00160     0.39565
      H   26    0.09601      0.00000     0.40245    0.00154     0.40399
      H   27    0.10021      0.00000     0.39870    0.00109     0.39979
      H   28    0.12965      0.00000     0.36829    0.00207     0.37035
      H   29    0.09771      0.00000     0.40112    0.00116     0.40229
      H   30    0.18986      0.00000     0.30779    0.00236     0.31014
      H   31    0.09556      0.00000     0.40281    0.00163     0.40444
      H   32    0.10429      0.00000     0.39410    0.00161     0.39571
      H   33    0.10110      0.00000     0.39790    0.00100     0.39890
      H   34    0.10405      0.00000     0.39499    0.00095     0.39595
      H   35    0.18031      0.00000     0.31660    0.00309     0.31969
      H   36    0.18287      0.00000     0.31124    0.00589     0.31713
 =======================================================================
   * Total *    0.00016     15.99383    43.79793    0.20808    59.99984

 Normal termination of Gaussian 16 at Fri Dec 11 01:13:29 2020.
