 Gaussian 16, Revision A.03,

 -----------------------------------------------------------
 # opt freq B3LYP/6-31G(d) empiricaldispersion=gd3bj scf=xqc
 -----------------------------------------------------------

 -----------------------------
 CID_88783455_JID_879_neutraal
 -----------------------------
 Symbolic Z-matrix:
 Charge =  0 Multiplicity = 1

 SCF Done:  E(RB3LYP) =  -516.872601712     A.U. after   14 cycles
 SCF Done:  E(RB3LYP) =  -516.866555647     A.U. after   13 cycles
 SCF Done:  E(RB3LYP) =  -516.876490724     A.U. after   11 cycles
 SCF Done:  E(RB3LYP) =  -516.877503408     A.U. after   12 cycles
 SCF Done:  E(RB3LYP) =  -516.877734717     A.U. after   11 cycles
 SCF Done:  E(RB3LYP) =  -516.877867795     A.U. after   10 cycles
 SCF Done:  E(RB3LYP) =  -516.877970588     A.U. after   11 cycles
 SCF Done:  E(RB3LYP) =  -516.878038824     A.U. after   11 cycles
 SCF Done:  E(RB3LYP) =  -516.878080533     A.U. after   10 cycles
 SCF Done:  E(RB3LYP) =  -516.878121534     A.U. after   10 cycles
 SCF Done:  E(RB3LYP) =  -516.878141779     A.U. after   10 cycles
 SCF Done:  E(RB3LYP) =  -516.878144947     A.U. after   10 cycles
 SCF Done:  E(RB3LYP) =  -516.878146521     A.U. after    8 cycles
 SCF Done:  E(RB3LYP) =  -516.878146614     A.U. after    7 cycles
 Optimization completed.
    -- Stationary point found.
 Normal termination of Gaussian 16 at Tue Dec  8 13:31:19 2020.

 --------------------------------------------------------------------
 #N Geom=AllCheck Guess=TCheck SCRF=Check GenChk RB3LYP/6-31G(d) Freq
 --------------------------------------------------------------------

 Structure from the checkpoint file:  "JID_879.chk"
 -----------------------------
 CID_88783455_JID_879_neutraal
 -----------------------------
 Charge =  0 Multiplicity = 1

 SCF Done:  E(RB3LYP) =  -516.878146614     A.U. after    1 cycles

  Exact polarizability:  86.812   2.230  84.608   2.253  -3.137  69.938
 Approx polarizability: 113.650   1.990 107.003   9.514 -10.169 106.555

                      1                      2                      3
                      A                      A                      A
 Frequencies --     44.5598                80.6044                84.0148
 Red. masses --      3.3312                 2.7130                 3.5710
 Frc consts  --      0.0039                 0.0104                 0.0149
 IR Inten    --      1.0379                 1.5967                 1.2494

                      4                      5                      6
                      A                      A                      A
 Frequencies --    116.9924               142.7496               165.1682
 Red. masses --      2.7405                 1.7031                 1.5353
 Frc consts  --      0.0221                 0.0204                 0.0247
 IR Inten    --      0.8064                 1.8615                 0.8725

                      7                      8                      9
                      A                      A                      A
 Frequencies --    191.9719               207.5407               220.6041
 Red. masses --      1.4616                 2.3350                 1.2774
 Frc consts  --      0.0317                 0.0593                 0.0366
 IR Inten    --      2.7686                 1.9296                 3.3825

                     10                     11                     12
                      A                      A                      A
 Frequencies --    254.0245               298.6980               313.4480
 Red. masses --      2.8765                 2.5470                 3.1151
 Frc consts  --      0.1094                 0.1339                 0.1803
 IR Inten    --     15.3978                 0.5995                 6.8228

                     13                     14                     15
                      A                      A                      A
 Frequencies --    393.0692               423.3481               514.4303
 Red. masses --      2.5783                 2.9829                 3.8316
 Frc consts  --      0.2347                 0.3150                 0.5974
 IR Inten    --     13.2683                 5.8012                 3.8373

                     16                     17                     18
                      A                      A                      A
 Frequencies --    537.9992               724.3697               753.1153
 Red. masses --      4.8120                 5.4494                 9.0138
 Frc consts  --      0.8206                 1.6847                 3.0122
 IR Inten    --      2.6647                41.8460                16.4838

                     19                     20                     21
                      A                      A                      A
 Frequencies --    798.8520               839.4660               913.2135
 Red. masses --      2.9781                 1.3230                 2.6556
 Frc consts  --      1.1198                 0.5493                 1.3048
 IR Inten    --     33.0130                 3.7935                16.8817

                     22                     23                     24
                      A                      A                      A
 Frequencies --    935.3357              1038.2547              1090.1406
 Red. masses --      4.1869                 4.4396                 2.3488
 Frc consts  --      2.1581                 2.8197                 1.6446
 IR Inten    --     18.6344                57.0338                52.5759

                     25                     26                     27
                      A                      A                      A
 Frequencies --   1105.5866              1122.7029              1146.8776
 Red. masses --      4.0286                 2.0773                 3.5673
 Frc consts  --      2.9013                 1.5427                 2.7646
 IR Inten    --     20.6307                14.0050               166.6550

                     28                     29                     30
                      A                      A                      A
 Frequencies --   1179.3493              1190.2775              1191.2393
 Red. masses --      2.3787                 1.2783                 1.2913
 Frc consts  --      1.9493                 1.0670                 1.0797
 IR Inten    --     33.9687                 1.3786                 4.4594

                     31                     32                     33
                      A                      A                      A
 Frequencies --   1212.8578              1227.2442              1251.9048
 Red. masses --      1.5869                 1.4656                 2.3226
 Frc consts  --      1.3754                 1.3006                 2.1447
 IR Inten    --     18.9075                12.6188                57.0687

                     34                     35                     36
                      A                      A                      A
 Frequencies --   1304.3763              1328.0050              1341.6546
 Red. masses --      3.6913                 1.1631                 1.2498
 Frc consts  --      3.7003                 1.2085                 1.3255
 IR Inten    --    528.5262                38.8370                 0.9682

                     37                     38                     39
                      A                      A                      A
 Frequencies --   1414.4269              1434.5907              1446.1262
 Red. masses --      1.3053                 1.1968                 1.2867
 Frc consts  --      1.5385                 1.4512                 1.5854
 IR Inten    --     94.0420                41.0883                 9.2229

                     40                     41                     42
                      A                      A                      A
 Frequencies --   1495.0823              1499.8691              1507.2832
 Red. masses --      1.2058                 1.1418                 1.0678
 Frc consts  --      1.5881                 1.5134                 1.4294
 IR Inten    --     21.9890                11.6398                 5.9509

                     43                     44                     45
                      A                      A                      A
 Frequencies --   1514.5777              1515.6480              1526.5441
 Red. masses --      1.0430                 1.0593                 1.0514
 Frc consts  --      1.4096                 1.4337                 1.4435
 IR Inten    --      8.4009                 1.0267                 8.1858

                     46                     47                     48
                      A                      A                      A
 Frequencies --   1529.3113              1536.2145              1544.7680
 Red. masses --      1.0635                 1.0508                 1.0848
 Frc consts  --      1.4654                 1.4611                 1.5252
 IR Inten    --      2.3311                 3.3749                10.0004

                     49                     50                     51
                      A                      A                      A
 Frequencies --   1565.0866              1740.1863              3008.4878
 Red. masses --      1.0906                 7.6795                 1.0445
 Frc consts  --      1.5739                13.7017                 5.5700
 IR Inten    --     11.4251               442.2825                50.5728

                     52                     53                     54
                      A                      A                      A
 Frequencies --   3016.0736              3056.9433              3058.7768
 Red. masses --      1.0594                 1.0998                 1.0377
 Frc consts  --      5.6779                 6.0552                 5.7200
 IR Inten    --     99.9653                55.7739                 5.8911

                     55                     56                     57
                      A                      A                      A
 Frequencies --   3068.2780              3075.5886              3103.2514
 Red. masses --      1.0292                 1.0966                 1.0654
 Frc consts  --      5.7086                 6.1118                 6.0448
 IR Inten    --     37.8349                42.5636                20.7426

                     58                     59                     60
                      A                      A                      A
 Frequencies --   3129.7492              3130.1727              3140.1999
 Red. masses --      1.1014                 1.0997                 1.1068
 Frc consts  --      6.3563                 6.3484                 6.4305
 IR Inten    --     19.3780                31.5435                27.9486

                     61                     62                     63
                      A                      A                      A
 Frequencies --   3142.8975              3161.9262              3170.0350
 Red. masses --      1.1001                 1.1063                 1.1071
 Frc consts  --      6.4023                 6.5164                 6.5546
 IR Inten    --     31.5911                11.6860                27.0257

 - Thermochemistry -
 -------------------
 Temperature   298.150 Kelvin.  Pressure   1.00000 Atm.
 Atom     1 has atomic number  6 and mass  12.00000

 Molecular mass:   147.08954 amu.
 Principal axes and moments of inertia in atomic units:
                           1         2         3
     Eigenvalues --  1297.864941541.257302301.08276
           X            0.99951   0.02516  -0.01838
           Y           -0.02478   0.99947   0.02098
           Z            0.01889  -0.02051   0.99961
 This molecule is an asymmetric top.
 Rotational symmetry number  1.
 Warning -- assumption of classical behavior for rotation
           may cause significant error
 Rotational temperatures (Kelvin)      0.06674     0.05620     0.03764
 Rotational constants (GHZ):           1.39055     1.17095     0.78430
 Zero-point vibrational energy     521668.4 (Joules/Mol)
                                  124.68173 (Kcal/Mol)
 Warning -- explicit consideration of  16 degrees of freedom as
           vibrations may cause significant error
 Vibrational temperatures:     64.11   115.97   120.88   168.33   205.38
          (Kelvin)            237.64   276.20   298.60   317.40   365.48
                              429.76   450.98   565.54   609.10   740.15
                              774.06  1042.21  1083.57  1149.37  1207.80
                             1313.91  1345.74  1493.82  1568.47  1590.69
                             1615.32  1650.10  1696.82  1712.54  1713.93
                             1745.03  1765.73  1801.21  1876.71  1910.70
                             1930.34  2035.04  2064.06  2080.65  2151.09
                             2157.98  2168.64  2179.14  2180.68  2196.36
                             2200.34  2210.27  2222.58  2251.81  2503.74
                             4328.54  4339.46  4398.26  4400.90  4414.57
                             4425.09  4464.89  4503.01  4503.62  4518.05
                             4521.93  4549.31  4560.97

 Zero-point correction=                           0.198693 (Hartree/Particle)
 Thermal correction to Energy=                    0.210619
 Thermal correction to Enthalpy=                  0.211564
 Thermal correction to Gibbs Free Energy=         0.160432
 Sum of electronic and zero-point Energies=           -516.679454
 Sum of electronic and thermal Energies=              -516.667527
 Sum of electronic and thermal Enthalpies=            -516.666583
 Sum of electronic and thermal Free Energies=         -516.717715

                     E (Thermal)             CV                S
                      KCal/Mol        Cal/Mol-Kelvin    Cal/Mol-Kelvin
 Total                  132.166             41.166            107.616
 Electronic               0.000              0.000              0.000
 Translational            0.889              2.981             40.868
 Rotational               0.889              2.981             29.911
 Vibrational            130.388             35.205             36.837
 Vibration     1          0.595              1.980              5.045
 Vibration     2          0.600              1.962              3.876
 Vibration     3          0.601              1.960              3.795
 Vibration     4          0.608              1.935              3.149
 Vibration     5          0.616              1.910              2.767
 Vibration     6          0.624              1.885              2.490
 Vibration     7          0.634              1.851              2.209
 Vibration     8          0.641              1.829              2.065
 Vibration     9          0.647              1.810              1.954
 Vibration    10          0.665              1.756              1.702
 Vibration    11          0.692              1.676              1.424
 Vibration    12          0.701              1.648              1.344
 Vibration    13          0.760              1.485              0.988
 Vibration    14          0.786              1.419              0.881
 Vibration    15          0.869              1.218              0.623
 Vibration    16          0.893              1.166              0.570

                           ! Non-Optimized Parameters !
 Normal termination of Gaussian 16 at Tue Dec  8 13:35:50 2020.

 ----------------------------------------------------------------------
 # B3LYP/6-311++G(d,p) empiricaldispersion=gd3bj scf=xqc pop=npa geom=c
 heck
 ----------------------------------------------------------------------

 -------------------------------------
 CID_88783455_JID_879_Energie_neutraal
 -------------------------------------
 Structure from the checkpoint file:  "JID_879.chk"
 Charge =  0 Multiplicity = 1

 SCF Done:  E(RB3LYP) =  -517.033428549     A.U. after   13 cycles
 Normal termination of Gaussian 16 at Tue Dec  8 13:39:46 2020.

 ----------------------------------------------------------------------
 # B3LYP/6-311++G(d,p) empiricaldispersion=gd3bj scf=xqc pop=npa geom=c
 heck
 ----------------------------------------------------------------------

 -----------------------------------
 CID_88783455_JID_879_Energie_kation
 -----------------------------------
 Structure from the checkpoint file:  "JID_879.chk"
 Charge =  1 Multiplicity = 2

 SCF Done:  E(UB3LYP) =  -516.698654038     A.U. after   33 cycles
 SCF Done:  E(UB3LYP) =  -516.701670040     a.u. after   10 cycles
 Normal termination of Gaussian 16 at Tue Dec  8 14:13:16 2020.
 Gaussian 16:  ES64L-G16RevA.03 25-Dec-2016

 ----------------------------------------------------------------------
 # B3LYP/6-311++G(d,p) empiricaldispersion=gd3bj scf=xqc pop=npa geom=c
 heck
 ----------------------------------------------------------------------

 ----------------------------------
 CID_88783455_JID_879_Energie_anion
 ----------------------------------
 Structure from the checkpoint file:  "JID_879.chk"
 Charge = -1 Multiplicity = 2

                         Standard orientation:
 ---------------------------------------------------------------------
 Center     Atomic      Atomic             Coordinates (Angstroms)
 Number     Number       Type             X           Y           Z
 ---------------------------------------------------------------------
      1          6           0       -0.124675    2.719402    0.604101
      2          6           0        0.462920    1.938575   -0.561378
      3          8           0       -0.418123    0.884541   -1.004159
      4          6           0       -0.788837   -0.089173   -0.146579
      5          7           0       -0.180920   -0.702707    0.789476
      6          6           0        1.207383   -0.533286    1.129278
      7          8           0        2.125632   -0.501436    0.045989
      8          6           0        2.147834   -1.699049   -0.711081
      9          8           0       -2.055504   -0.416136   -0.472713
     10          6           0       -2.609712   -1.540649    0.212484
     11          1           0       -1.101506    3.135946    0.338571
     12          1           0        0.544914    3.544104    0.872556
     13          1           0       -0.251374    2.083401    1.486396
     14          1           0        0.552822    2.573960   -1.445621
     15          1           0        1.446601    1.523350   -0.337360
     16          1           0        1.381960    0.402375    1.676238
     17          1           0        1.473659   -1.367712    1.794638
     18          1           0        2.351770   -2.571001   -0.070551
     19          1           0        1.201730   -1.867323   -1.240902
     20          1           0        2.953853   -1.594030   -1.441188
     21          1           0       -1.987326   -2.428394    0.067687
     22          1           0       -2.687393   -1.342085    1.284938
     23          1           0       -3.598791   -1.684303   -0.225617
 ---------------------------------------------------------------------

 SCF Done:  E(UB3LYP) =  -517.014712632     A.U. after   28 cycles

 The electronic state is 2-A.
 Alpha  occ. eigenvalues --  -19.05766 -19.05531 -19.02658 -14.18475 -10.21297
 Alpha  occ. eigenvalues --  -10.14175 -10.12176 -10.11412 -10.10715 -10.06257
 Alpha  occ. eigenvalues --   -1.01418  -0.94420  -0.93901  -0.79601  -0.67462
 Alpha  occ. eigenvalues --   -0.62665  -0.61241  -0.55108  -0.54578  -0.45637
 Alpha  occ. eigenvalues --   -0.43272  -0.41932  -0.39925  -0.37702  -0.37154
 Alpha  occ. eigenvalues --   -0.36103  -0.34798  -0.33134  -0.31728  -0.29641
 Alpha  occ. eigenvalues --   -0.29243  -0.28194  -0.26732  -0.25594  -0.25324
 Alpha  occ. eigenvalues --   -0.22850  -0.19779  -0.17868  -0.15887  -0.15040
 Alpha  occ. eigenvalues --    0.04819
 Alpha virt. eigenvalues --    0.06769   0.07364   0.08307   0.09701   0.09766
 Alpha virt. eigenvalues --    0.10158   0.10639   0.11309   0.12081   0.12616
 Alpha virt. eigenvalues --    0.13248   0.13750   0.14300   0.15407   0.16060

  Beta  occ. eigenvalues --  -19.05758 -19.05529 -19.02652 -14.18469 -10.21297
  Beta  occ. eigenvalues --  -10.14153 -10.12160 -10.11376 -10.10678 -10.06211
  Beta  occ. eigenvalues --   -1.01407  -0.94408  -0.93889  -0.79586  -0.67425
  Beta  occ. eigenvalues --   -0.62617  -0.61188  -0.55045  -0.54506  -0.45585
  Beta  occ. eigenvalues --   -0.43251  -0.41892  -0.39897  -0.37670  -0.37118
  Beta  occ. eigenvalues --   -0.36072  -0.34759  -0.33091  -0.31683  -0.29607
  Beta  occ. eigenvalues --   -0.29203  -0.28151  -0.26692  -0.25559  -0.25284
  Beta  occ. eigenvalues --   -0.22822  -0.19756  -0.17845  -0.15873  -0.15020
  Beta virt. eigenvalues --    0.07126   0.07984   0.08185   0.08973   0.10057
  Beta virt. eigenvalues --    0.10530   0.11025   0.11222   0.11787   0.12256
  Beta virt. eigenvalues --    0.13125   0.13710   0.14044   0.14661   0.15448

 Mulliken charges and spin densities:
               1          2
     1  C    1.364103  -1.738972
     2  C   -0.632112   0.431597
     3  O   -0.107770   0.021188
     4  C   -0.033318  -0.145284
     5  N   -0.280926   0.241206
     6  C    0.558361  -0.951465
     7  O   -0.219045   0.073840
     8  C    0.506285  -0.788201
     9  O   -0.201279   0.083590
    10  C    0.839508  -1.101376
    11  H    0.038194   0.110471
    12  H   -0.682588   0.839628
    13  H   -0.388611   0.529337
    14  H   -0.452804   0.640427
    15  H    0.374638  -0.198463
    16  H   -0.049170   0.224764
    17  H   -0.213885   0.380267
    18  H   -0.323275   0.456725
    19  H   -0.010589   0.176988
    20  H   -0.310059   0.455523
    21  H   -0.274541   0.441260
    22  H   -0.264598   0.433646
    23  H   -0.236518   0.383304
 Sum of Mulliken charges =  -1.00000   1.00000

 Dipole moment (field-independent basis, Debye):
    X=             -0.2694    Y=             -0.5291    Z=             -1.1514  Tot=              1.2955
 Quadrupole moment (field-independent basis, Debye-Ang):
   XX=           -108.1448   YY=           -119.3076   ZZ=            -94.3317
   XY=             -2.2433   XZ=              0.5410   YZ=             -1.6626

 Summary of Natural Population Analysis:

                                       Natural Population
                Natural  -----------------------------------------------
    Atom  No    Charge         Core      Valence    Rydberg      Total
 -----------------------------------------------------------------------
      C    1   -0.30272      0.99967     2.29796    0.00509     3.30272
      C    2   -0.01682      0.99956     2.00538    0.01188     3.01682
      O    3   -0.28035      0.99985     3.27104    0.00946     4.28035
      C    4    0.44168      0.99948     1.53722    0.02162     2.55832
      N    5   -0.32534      0.99961     2.81421    0.01152     3.82534
      C    6    0.06841      0.99960     1.91520    0.01679     2.93159
      O    7   -0.30417      0.99989     3.29429    0.00999     4.30417
      C    8   -0.09980      0.99961     2.09032    0.00987     3.09980
      O    9   -0.27087      0.99985     3.26172    0.00930     4.27087
      C   10   -0.09857      0.99960     2.09084    0.00813     3.09857
      H   11    0.10145      0.00000     0.39729    0.00127     0.39855
      H   12    0.10676      0.00000     0.39082    0.00242     0.39324
      H   13    0.10130      0.00000     0.39715    0.00155     0.39870
      H   14    0.09071      0.00000     0.40776    0.00153     0.40929
      H   15    0.09874      0.00000     0.39915    0.00211     0.40126
      H   16    0.08597      0.00000     0.41210    0.00194     0.41403
      H   17    0.08033      0.00000     0.41784    0.00183     0.41967
      H   18    0.07978      0.00000     0.41836    0.00187     0.42022
      H   19    0.08336      0.00000     0.41495    0.00169     0.41664
      H   20    0.08945      0.00000     0.40930    0.00125     0.41055
      H   21    0.09180      0.00000     0.40599    0.00222     0.40820
      H   22    0.09092      0.00000     0.40682    0.00225     0.40908
      H   23    0.08800      0.00000     0.41043    0.00157     0.41200
 =======================================================================
   * Total *   -0.00000      9.99673    29.86614    0.13713    40.00000

 Normal termination of Gaussian 16 at Tue Dec  8 14:18:46 2020.
