 Gaussian 16, Revision A.03,

 -----------------------------------------------------------
 # opt freq B3LYP/6-31G(d) empiricaldispersion=gd3bj scf=xqc
 -----------------------------------------------------------

 -----------------------------
 CID_64719672_JID_503_neutraal
 -----------------------------
 Symbolic Z-matrix:
 Charge =  0 Multiplicity = 1

 SCF Done:  E(RB3LYP) =  -427.772951056     A.U. after   14 cycles
 SCF Done:  E(RB3LYP) =  -427.791655705     A.U. after   12 cycles
 SCF Done:  E(RB3LYP) =  -427.792901812     A.U. after   12 cycles
 SCF Done:  E(RB3LYP) =  -427.791128610     A.U. after   14 cycles
 SCF Done:  E(RB3LYP) =  -427.792860974     A.U. after   10 cycles
 SCF Done:  E(RB3LYP) =  -427.793123362     A.U. after    7 cycles
 SCF Done:  E(RB3LYP) =  -427.792989346     A.U. after   11 cycles
 SCF Done:  E(RB3LYP) =  -427.793149853     A.U. after   11 cycles
 SCF Done:  E(RB3LYP) =  -427.793160828     A.U. after    9 cycles
 SCF Done:  E(RB3LYP) =  -427.793162330     A.U. after    8 cycles
 SCF Done:  E(RB3LYP) =  -427.793165758     A.U. after    9 cycles
 SCF Done:  E(RB3LYP) =  -427.793166661     A.U. after    9 cycles
 SCF Done:  E(RB3LYP) =  -427.793167661     A.U. after    8 cycles
 SCF Done:  E(RB3LYP) =  -427.793168306     A.U. after    9 cycles
 SCF Done:  E(RB3LYP) =  -427.793168348     A.U. after    8 cycles
 Optimization completed on the basis of negligible forces.
    -- Stationary point found.

 1\1\GINC-NODE378\FOpt\RB3LYP\6-31G(d)\C9H16O1\VSC10255\08-Dec-2020\0\\
 # opt freq B3LYP/6-31G(d) empiricaldispersion=gd3bj scf=xqc\\CID_64719
 672_JID_503_neutraal\\0,1\C,0.8221752369,0.1051780206,0.0284220557\C,0
 .3757808564,1.4756530901,0.2643325687\C,-0.0022307552,2.6062519264,0.4
 677705725\C,-0.4308028133,3.9857794216,0.6975129886\C,0.2913313646,5.0
 12446916,-0.2100739939\C,0.055582508,4.6964208503,-1.6907791399\C,-0.1
 560283299,6.4490820054,0.1068860897\C,0.0799651321,6.9546038322,1.5368
 686129\C,1.5466961164,6.9056038667,1.9639771348\O,-0.4492823213,8.2761

 Normal termination of Gaussian 16 at Tue Dec  8 12:17:33 2020.

 --------------------------------------------------------------------
 #N Geom=AllCheck Guess=TCheck SCRF=Check GenChk RB3LYP/6-31G(d) Freq
 --------------------------------------------------------------------

 Structure from the checkpoint file:  "JID_503.chk"
 -----------------------------
 CID_64719672_JID_503_neutraal
 -----------------------------
 Charge =  0 Multiplicity = 1

 SCF Done:  E(RB3LYP) =  -427.793168348     A.U. after    1 cycles

  Exact polarizability: 132.910  -5.485  83.470   4.519   0.245  77.493
 Approx polarizability: 170.927 -10.201 112.204  12.549   0.710 115.486

                      1                      2                      3
                      A                      A                      A
 Frequencies --     14.2391                40.0715                55.6678
 Red. masses --      1.0185                 3.3114                 2.9824
 Frc consts  --      0.0001                 0.0031                 0.0054
 IR Inten    --      0.0058                 0.2205                 0.5194

                      4                      5                      6
                      A                      A                      A
 Frequencies --     79.6061               127.4009               159.1941
 Red. masses --      3.3862                 2.8968                 3.4551
 Frc consts  --      0.0126                 0.0277                 0.0516
 IR Inten    --      0.4280                 2.3760                 1.1413

                      7                      8                      9
                      A                      A                      A
 Frequencies --    216.0414               243.7622               254.6507
 Red. masses --      2.1073                 1.2227                 1.2157
 Frc consts  --      0.0579                 0.0428                 0.0464
 IR Inten    --      4.6446                 0.3479                 4.4078

                     10                     11                     12
                      A                      A                      A
 Frequencies --    268.3969               288.8175               327.6901
 Red. masses --      2.6719                 1.4818                 1.7876
 Frc consts  --      0.1134                 0.0728                 0.1131
 IR Inten    --      4.2384                36.1571                64.9667

                     13                     14                     15
                      A                      A                      A
 Frequencies --    328.9834               378.9551               396.6290
 Red. masses --      2.2348                 3.4718                 2.7635
 Frc consts  --      0.1425                 0.2938                 0.2561
 IR Inten    --      6.8380                 0.6666                 2.9636

                     16                     17                     18
                      A                      A                      A
 Frequencies --    438.0358               458.5653               472.6616
 Red. masses --      3.8113                 2.8771                 2.0920
 Frc consts  --      0.4309                 0.3565                 0.2754
 IR Inten    --      7.9647                 9.9066                 3.8542

                     19                     20                     21
                      A                      A                      A
 Frequencies --    546.5711               778.7385               835.2635
 Red. masses --      3.4283                 3.2751                 2.5753
 Frc consts  --      0.6034                 1.1702                 1.0586
 IR Inten    --      1.5905                 0.3876                 1.8246

                     22                     23                     24
                      A                      A                      A
 Frequencies --    840.3150               888.3984               919.1319
 Red. masses --      2.4889                 1.5016                 1.3275
 Frc consts  --      1.0355                 0.6983                 0.6607
 IR Inten    --      0.7449                 3.1950                 3.9973

                     25                     26                     27
                      A                      A                      A
 Frequencies --    950.8175               985.4016              1030.5045
 Red. masses --      1.9017                 1.8230                 1.4324
 Frc consts  --      1.0129                 1.0429                 0.8962
 IR Inten    --     12.2343                 2.1063                 7.7275

                     28                     29                     30
                      A                      A                      A
 Frequencies --   1069.7521              1071.0954              1079.8466
 Red. masses --      1.4447                 1.3880                 2.7379
 Frc consts  --      0.9741                 0.9382                 1.8810
 IR Inten    --      4.5110                 1.7427                54.4736

                     31                     32                     33
                      A                      A                      A
 Frequencies --   1108.0183              1146.2259              1159.5967
 Red. masses --      1.9787                 1.7697                 1.9770
 Frc consts  --      1.4313                 1.3699                 1.5663
 IR Inten    --     53.2713                 5.2673                33.4088

                     34                     35                     36
                      A                      A                      A
 Frequencies --   1172.6584              1182.7072              1227.5332
 Red. masses --      2.2975                 2.9699                 1.3694
 Frc consts  --      1.8614                 2.4476                 1.2157
 IR Inten    --     11.1952                 4.9479                 1.2939

                     37                     38                     39
                      A                      A                      A
 Frequencies --   1283.2353              1303.3646              1345.7087
 Red. masses --      1.2855                 1.3180                 1.3089
 Frc consts  --      1.2472                 1.3192                 1.3965
 IR Inten    --      1.1468                 2.9054                23.8963

                     40                     41                     42
                      A                      A                      A
 Frequencies --   1359.3262              1385.1556              1396.8899
 Red. masses --      1.3660                 1.3317                 1.4033
 Frc consts  --      1.4872                 1.5054                 1.6134
 IR Inten    --      2.5274                 6.9858                 4.1927

                     43                     44                     45
                      A                      A                      A
 Frequencies --   1413.7068              1432.5162              1439.5648
 Red. masses --      1.5089                 1.2526                 1.2546
 Frc consts  --      1.7768                 1.5144                 1.5319
 IR Inten    --     11.2881                11.7629                 8.0945

                     46                     47                     48
                      A                      A                      A
 Frequencies --   1445.4615              1450.9890              1503.0084
 Red. masses --      1.2436                 1.2357                 1.0875
 Frc consts  --      1.5309                 1.5329                 1.4474
 IR Inten    --      4.4235                45.2879                 1.8818

                     49                     50                     51
                      A                      A                      A
 Frequencies --   1509.0913              1509.7775              1510.2176
 Red. masses --      1.0816                 1.0406                 1.0408
 Frc consts  --      1.4513                 1.3976                 1.3986
 IR Inten    --      0.3324                 5.4795                 5.9931

                     52                     53                     54
                      A                      A                      A
 Frequencies --   1523.4222              1526.7096              1530.8671
 Red. masses --      1.0591                 1.0511                 1.0540
 Frc consts  --      1.4482                 1.4434                 1.4554
 IR Inten    --      3.0834                 5.4161                 6.1316

                     55                     56                     57
                      A                      A                      A
 Frequencies --   1534.1055              2374.5687              3006.1191
 Red. masses --      1.0490                11.8024                 1.0663
 Frc consts  --      1.4546                39.2092                 5.6772
 IR Inten    --      5.2168                 0.1152                30.1121

                     58                     59                     60
                      A                      A                      A
 Frequencies --   3019.0433              3036.9272              3037.2046
 Red. masses --      1.0651                 1.0351                 1.0498
 Frc consts  --      5.7196                 5.6246                 5.7058
 IR Inten    --     23.4357                38.8149                 7.3399

                     61                     62                     63
                      A                      A                      A
 Frequencies --   3041.7677              3044.9124              3057.4402
 Red. masses --      1.0621                 1.0504                 1.0910
 Frc consts  --      5.7899                 5.7377                 6.0089
 IR Inten    --     15.3260                22.7778                 6.4841

                     64                     65                     66
                      A                      A                      A
 Frequencies --   3068.6879              3079.5799              3096.8272
 Red. masses --      1.0947                 1.0881                 1.1014
 Frc consts  --      6.0739                 6.0798                 6.2234
 IR Inten    --     49.1910                33.4770                14.3882

                     67                     68                     69
                      A                      A                      A
 Frequencies --   3097.0572              3107.0776              3109.5704
 Red. masses --      1.1015                 1.1006                 1.0959
 Frc consts  --      6.2250                 6.2601                 6.2434
 IR Inten    --     14.4879                50.8612                45.1677

                     70                     71                     72
                      A                      A                      A
 Frequencies --   3133.7963              3134.6743              3718.3574
 Red. masses --      1.1006                 1.1022                 1.0657
 Frc consts  --      6.3684                 6.3810                 8.6815
 IR Inten    --     21.2337                33.2157                 5.9927

 - Thermochemistry -
 -------------------
 Temperature   298.150 Kelvin.  Pressure   1.00000 Atm.
 Atom     1 has atomic number  6 and mass  12.00000

 Molecular mass:   140.12012 amu.
 Principal axes and moments of inertia in atomic units:
                           1         2         3
     Eigenvalues --   674.201873622.514033924.29535
           X            0.99999   0.00080  -0.00390
           Y           -0.00086   0.99988  -0.01516
           Z            0.00389   0.01517   0.99988
 This molecule is an asymmetric top.
 Rotational symmetry number  1.
 Warning -- assumption of classical behavior for rotation
           may cause significant error
 Rotational temperatures (Kelvin)      0.12847     0.02391     0.02207
 Rotational constants (GHZ):           2.67686     0.49820     0.45989
 Zero-point vibrational energy     610745.5 (Joules/Mol)
                                  145.97168 (Kcal/Mol)
 Warning -- explicit consideration of  19 degrees of freedom as
           vibrations may cause significant error
 Vibrational temperatures:     20.49    57.65    80.09   114.54   183.30
          (Kelvin)            229.04   310.84   350.72   366.39   386.16
                              415.54   471.47   473.33   545.23   570.66
                              630.24   659.77   680.05   786.39  1120.43
                             1201.76  1209.03  1278.21  1322.43  1368.01
                             1417.77  1482.67  1539.13  1541.07  1553.66
                             1594.19  1649.16  1668.40  1687.19  1701.65
                             1766.15  1846.29  1875.25  1936.17  1955.77
                             1992.93  2009.81  2034.01  2061.07  2071.21
                             2079.70  2087.65  2162.49  2171.25  2172.23
                             2172.87  2191.86  2196.59  2202.58  2207.24
                             3416.47  4325.13  4343.73  4369.46  4369.86
                             4376.43  4380.95  4398.97  4415.16  4430.83
                             4455.64  4455.97  4470.39  4473.98  4508.83
                             4510.10  5349.89

 Zero-point correction=                           0.232621 (Hartree/Particle)
 Thermal correction to Energy=                    0.245687
 Thermal correction to Enthalpy=                  0.246632
 Thermal correction to Gibbs Free Energy=         0.191553
 Sum of electronic and zero-point Energies=           -427.560548
 Sum of electronic and thermal Energies=              -427.547481
 Sum of electronic and thermal Enthalpies=            -427.546537
 Sum of electronic and thermal Free Energies=         -427.601615

                     E (Thermal)             CV                S
                      KCal/Mol        Cal/Mol-Kelvin    Cal/Mol-Kelvin
 Total                  154.171             45.994            115.923
 Electronic               0.000              0.000              0.000
 Translational            0.889              2.981             40.724
 Rotational               0.889              2.981             30.639
 Vibrational            152.394             40.033             44.560
 Vibration     1          0.593              1.986              7.309
 Vibration     2          0.594              1.981              5.256
 Vibration     3          0.596              1.975              4.605
 Vibration     4          0.600              1.963              3.901
 Vibration     5          0.611              1.926              2.985
 Vibration     6          0.621              1.892              2.559
 Vibration     7          0.645              1.817              1.992
 Vibration     8          0.659              1.773              1.775
 Vibration     9          0.665              1.755              1.698
 Vibration    10          0.673              1.731              1.607
 Vibration    11          0.685              1.695              1.481
 Vibration    12          0.711              1.620              1.271
 Vibration    13          0.712              1.618              1.265
 Vibration    14          0.749              1.515              1.043
 Vibration    15          0.763              1.477              0.975
 Vibration    16          0.798              1.387              0.833
 Vibration    17          0.817              1.342              0.770
 Vibration    18          0.830              1.311              0.730
 Vibration    19          0.902              1.147              0.551

 Optimization completed on the basis of negligible forces.
    -- Stationary point found.

 1\1\GINC-NODE378\Freq\RB3LYP\6-31G(d)\C9H16O1\VSC10255\08-Dec-2020\0\\
 #N Geom=AllCheck Guess=TCheck SCRF=Check GenChk RB3LYP/6-31G(d) Freq\\
 CID_64719672_JID_503_neutraal\\0,1\C,0.8221752369,0.1051780206,0.02842
 20557\C,0.3757808564,1.4756530901,0.2643325687\C,-0.0022307552,2.60625
 19264,0.4677705725\C,-0.4308028133,3.9857794216,0.6975129886\C,0.29133
 13646,5.012446916,-0.2100739939\C,0.055582508,4.6964208503,-1.69077913
 99\C,-0.1560283299,6.4490820054,0.1068860897\C,0.0799651321,6.95460383
 22,1.5368686129\C,1.5466961164,6.9056038667,1.9639771348\O,-0.44928232

 Normal termination of Gaussian 16 at Tue Dec  8 12:23:24 2020.

 ----------------------------------------------------------------------
 # B3LYP/6-311++G(d,p) empiricaldispersion=gd3bj scf=xqc pop=npa geom=c
 heck
 ----------------------------------------------------------------------

 -------------------------------------
 CID_64719672_JID_503_Energie_neutraal
 -------------------------------------
 Structure from the checkpoint file:  "JID_503.chk"
 Charge =  0 Multiplicity = 1

 SCF Done:  E(RB3LYP) =  -427.927449030     A.U. after   13 cycles
 Normal termination of Gaussian 16 at Tue Dec  8 12:25:26 2020.

 ----------------------------------------------------------------------
 # B3LYP/6-311++G(d,p) empiricaldispersion=gd3bj scf=xqc pop=npa geom=c
 heck
 ----------------------------------------------------------------------

 -----------------------------------
 CID_64719672_JID_503_Energie_kation
 -----------------------------------
 Structure from the checkpoint file:  "JID_503.chk"
 Charge =  1 Multiplicity = 2

 SCF Done:  E(UB3LYP) =  -427.597211181     A.U. after   33 cycles
 SCF Done:  E(UB3LYP) =  -427.598196254     a.u. after    7 cycles
 Normal termination of Gaussian 16 at Tue Dec  8 13:04:05 2020.
 Gaussian 16:  ES64L-G16RevA.03 25-Dec-2016

 ----------------------------------
 CID_64719672_JID_503_Energie_anion
 ----------------------------------
 Structure from the checkpoint file:  "JID_503.chk"
 Charge = -1 Multiplicity = 2

                         Standard orientation:
 ---------------------------------------------------------------------
 Center     Atomic      Atomic             Coordinates (Angstroms)
 Number     Number       Type             X           Y           Z
 ---------------------------------------------------------------------
      1          6           0        4.660719   -0.665294    0.190581
      2          6           0        3.254706   -0.477792   -0.157405
      3          6           0        2.092486   -0.328175   -0.456394
      4          6           0        0.679700   -0.138906   -0.784666
      5          6           0       -0.096238    0.669809    0.284510
      6          6           0        0.522702    2.058150    0.477798
      7          6           0       -1.584357    0.795152   -0.081969
      8          6           0       -2.377169   -0.509750   -0.239371
      9          6           0       -2.362245   -1.384333    1.014025
     10          8           0       -3.718748   -0.219022   -0.642780
     11          1           0        5.293970    0.096956   -0.279600
     12          1           0        5.025318   -1.646562   -0.137041
     13          1           0        4.815303   -0.600763    1.274588
     14          1           0        0.586351    0.376917   -1.752054
     15          1           0        0.210614   -1.121868   -0.919186
     16          1           0       -0.008536    0.125325    1.233788
     17          1           0        0.454501    2.645561   -0.446885
     18          1           0        0.001257    2.613176    1.265886
     19          1           0        1.579161    1.980471    0.750603
     20          1           0       -2.079442    1.395758    0.697488
     21          1           0       -1.684007    1.362287   -1.017200
     22          1           0       -1.974622   -1.085977   -1.079567
     23          1           0       -2.730843   -0.821698    1.882765
     24          1           0       -3.009439   -2.254436    0.868828
     25          1           0       -1.353385   -1.738712    1.252031
     26          1           0       -4.118030    0.312567    0.065141
 ---------------------------------------------------------------------

 SCF Done:  E(UB3LYP) =  -427.912687257     A.U. after   30 cycles

 The electronic state is 2-A.
 Alpha  occ. eigenvalues --  -19.02140 -10.12363 -10.09205 -10.08379 -10.08198
 Alpha  occ. eigenvalues --  -10.06730 -10.06155 -10.06072 -10.05775 -10.05664
 Alpha  occ. eigenvalues --   -0.92367  -0.72860  -0.67871  -0.65753  -0.62594
 Alpha  occ. eigenvalues --   -0.58699  -0.57174  -0.51517  -0.47100  -0.40389
 Alpha  occ. eigenvalues --   -0.39160  -0.36576  -0.36224  -0.34913  -0.33645
 Alpha  occ. eigenvalues --   -0.32631  -0.32408  -0.31572  -0.30459  -0.28845
 Alpha  occ. eigenvalues --   -0.27932  -0.26671  -0.26013  -0.24590  -0.23363
 Alpha  occ. eigenvalues --   -0.21968  -0.17696  -0.15385  -0.15291   0.04468
 Alpha virt. eigenvalues --    0.06034   0.07926   0.08209   0.08498   0.09540
 Alpha virt. eigenvalues --    0.09938   0.10546   0.10630   0.11295   0.11928
 Alpha virt. eigenvalues --    0.12740   0.13088   0.13776   0.14213   0.14559

  Beta  occ. eigenvalues --  -19.02108 -10.12358 -10.09196 -10.08318 -10.08189
  Beta  occ. eigenvalues --  -10.06707 -10.06120 -10.06069 -10.05755 -10.05661
  Beta  occ. eigenvalues --   -0.92301  -0.72835  -0.67830  -0.65705  -0.62548
  Beta  occ. eigenvalues --   -0.58646  -0.57115  -0.51450  -0.47047  -0.40353
  Beta  occ. eigenvalues --   -0.39101  -0.36530  -0.36184  -0.34874  -0.33598
  Beta  occ. eigenvalues --   -0.32579  -0.32348  -0.31539  -0.30430  -0.28798
  Beta  occ. eigenvalues --   -0.27897  -0.26638  -0.25979  -0.24557  -0.23322
  Beta  occ. eigenvalues --   -0.21923  -0.17665  -0.15365  -0.15272
  Beta virt. eigenvalues --    0.06732   0.07397   0.08282   0.08528   0.09099
  Beta virt. eigenvalues --    0.10175   0.10646   0.10740   0.10985   0.11770
  Beta virt. eigenvalues --    0.12191   0.12965   0.13417   0.13989   0.14410

 Mulliken charges and spin densities:
               1          2
     1  C    2.090637  -2.619788
     2  C   -0.660984   0.667137
     3  C    0.446035  -0.404968
     4  C   -1.012681   0.508102
     5  C   -0.725414   1.312771
     6  C    0.284776  -1.076685
     7  C    0.790509  -1.206703
     8  C   -0.860210   0.693105
     9  C    0.819744  -1.357089
    10  O   -0.223515   0.004859
    11  H   -0.371753   0.523439
    12  H   -0.415122   0.573197
    13  H   -0.419768   0.584513
    14  H    0.017493   0.147145
    15  H    0.192201  -0.090928
    16  H    0.098342   0.087139
    17  H   -0.009279   0.143161
    18  H   -0.203119   0.328322
    19  H    0.060062   0.094561
    20  H   -0.396745   0.548069
    21  H    0.155000  -0.005781
    22  H    0.042801   0.133724
    23  H   -0.326761   0.492399
    24  H   -0.175988   0.319021
    25  H   -0.154185   0.308543
    26  H   -0.042077   0.292736
 Sum of Mulliken charges =  -1.00000   1.00000

 Dipole moment (field-independent basis, Debye):
    X=             -2.4304    Y=              0.3515    Z=             -2.9598  Tot=              3.8459
 Quadrupole moment (field-independent basis, Debye-Ang):
   XX=           -165.4787   YY=            -96.5978   ZZ=            -95.0190
   XY=              5.6837   XZ=              1.5239   YZ=             -1.3519

 Summary of Natural Population Analysis:

                                       Natural Population
                Natural  -----------------------------------------------
    Atom  No    Charge         Core      Valence    Rydberg      Total
 -----------------------------------------------------------------------
      C    1   -0.31826      0.99962     2.31263    0.00602     3.31826
      C    2   -0.00488      0.99923     1.99956    0.00609     3.00488
      C    3   -0.01730      0.99925     2.00957    0.00847     3.01730
      C    4   -0.22287      0.99956     2.21471    0.00859     3.22287
      C    5   -0.10619      0.99960     2.09667    0.00993     3.10619
      C    6   -0.28372      0.99965     2.27892    0.00515     3.28372
      C    7   -0.19969      0.99959     2.18890    0.01120     3.19969
      C    8    0.06261      0.99957     1.92467    0.01315     2.93739
      C    9   -0.30037      0.99964     2.29481    0.00591     3.30037
      O   10   -0.37278      0.99990     3.36606    0.00682     4.37278
      H   11    0.11116      0.00000     0.38709    0.00175     0.38884
      H   12    0.11141      0.00000     0.38672    0.00187     0.38859
      H   13    0.11292      0.00000     0.38515    0.00193     0.38708
      H   14    0.10625      0.00000     0.39249    0.00126     0.39375
      H   15    0.10931      0.00000     0.38916    0.00153     0.39069
      H   16    0.09780      0.00000     0.40011    0.00208     0.40220
      H   17    0.09337      0.00000     0.40554    0.00109     0.40663
      H   18    0.10034      0.00000     0.39856    0.00110     0.39966
      H   19    0.10756      0.00000     0.39132    0.00111     0.39244
      H   20    0.09996      0.00000     0.39825    0.00179     0.40004
      H   21    0.09902      0.00000     0.39974    0.00125     0.40098
      H   22    0.08267      0.00000     0.41568    0.00165     0.41733
      H   23    0.09969      0.00000     0.39848    0.00183     0.40031
      H   24    0.10273      0.00000     0.39630    0.00097     0.39727
      H   25    0.10208      0.00000     0.39682    0.00110     0.39792
      H   26    0.22718      0.00000     0.26895    0.00387     0.27282
 =======================================================================
   * Total *   -0.00000      9.99562    28.89687    0.10751    39.00000

 Normal termination of Gaussian 16 at Tue Dec  8 13:12:13 2020.
