 Gaussian 16, Revision A.03,

 -----------------------------------------------------------
 # opt freq B3LYP/6-31G(d) empiricaldispersion=gd3bj scf=xqc
 -----------------------------------------------------------

 -------------------------------
 CID_115083384_JID_5932_neutraal
 -------------------------------
 Symbolic Z-matrix:
 Charge =  0 Multiplicity = 1

 SCF Done:  E(RB3LYP) =  -689.990798365     A.U. after   14 cycles
 SCF Done:  E(RB3LYP) =  -689.994774558     A.U. after   11 cycles
 SCF Done:  E(RB3LYP) =  -689.995890518     A.U. after   12 cycles
 SCF Done:  E(RB3LYP) =  -689.996252658     A.U. after   11 cycles
 SCF Done:  E(RB3LYP) =  -689.996330845     A.U. after   11 cycles
 SCF Done:  E(RB3LYP) =  -689.996364916     A.U. after   10 cycles
 SCF Done:  E(RB3LYP) =  -689.996387003     A.U. after   10 cycles
 SCF Done:  E(RB3LYP) =  -689.996393830     A.U. after    9 cycles
 SCF Done:  E(RB3LYP) =  -689.996400588     A.U. after    9 cycles
 SCF Done:  E(RB3LYP) =  -689.996407263     A.U. after   10 cycles
 SCF Done:  E(RB3LYP) =  -689.996409603     A.U. after    8 cycles
 SCF Done:  E(RB3LYP) =  -689.996410436     A.U. after    8 cycles
 SCF Done:  E(RB3LYP) =  -689.996410529     A.U. after    6 cycles
 Optimization completed.
    -- Stationary point found.
 Normal termination of Gaussian 16 at Thu Dec 10 17:34:53 2020.

 --------------------------------------------------------------------
 #N Geom=AllCheck Guess=TCheck SCRF=Check GenChk RB3LYP/6-31G(d) Freq
 --------------------------------------------------------------------

 Structure from the checkpoint file:  "JID_5932.chk"
 -------------------------------
 CID_115083384_JID_5932_neutraal
 -------------------------------
 Charge =  0 Multiplicity = 1

 SCF Done:  E(RB3LYP) =  -689.996410529     A.U. after    2 cycles

  Exact polarizability: 165.319   2.442 121.065   9.033  -3.875 103.281
 Approx polarizability: 197.598   2.649 190.481  14.989 -14.938 163.359

                      1                      2                      3
                      A                      A                      A
 Frequencies --     19.7668                27.6031                41.1154
 Red. masses --      4.4258                 5.5220                 4.0720
 Frc consts  --      0.0010                 0.0025                 0.0041
 IR Inten    --      0.0591                 0.5210                 0.3301

                      4                      5                      6
                      A                      A                      A
 Frequencies --     79.4258                97.0281               131.6174
 Red. masses --      4.8250                 5.6212                 3.1184
 Frc consts  --      0.0179                 0.0312                 0.0318
 IR Inten    --      1.4124                 1.2060                 0.9774

                      7                      8                      9
                      A                      A                      A
 Frequencies --    168.0350               197.2097               269.1470
 Red. masses --      2.7065                 3.1244                 3.3347
 Frc consts  --      0.0450                 0.0716                 0.1423
 IR Inten    --      0.9258                 2.9676                 4.4984

                     10                     11                     12
                      A                      A                      A
 Frequencies --    276.8766               322.1584               354.2188
 Red. masses --      2.6950                 2.0702                 2.1846
 Frc consts  --      0.1217                 0.1266                 0.1615
 IR Inten    --      5.3516                 4.6085                19.0899

                     13                     14                     15
                      A                      A                      A
 Frequencies --    385.1452               390.8808               414.5791
 Red. masses --      2.7990                 1.2864                 2.2151
 Frc consts  --      0.2446                 0.1158                 0.2243
 IR Inten    --      0.8986               116.3715                 5.7641

                     16                     17                     18
                      A                      A                      A
 Frequencies --    436.3575               473.9540               489.2152
 Red. masses --      2.1832                 3.0368                 3.1595
 Frc consts  --      0.2449                 0.4019                 0.4455
 IR Inten    --      7.9674                 7.5297                 6.3312

                     19                     20                     21
                      A                      A                      A
 Frequencies --    497.3421               616.4075               648.9644
 Red. masses --      2.3689                 2.7723                 2.3941
 Frc consts  --      0.3452                 0.6206                 0.5941
 IR Inten    --      8.2241                10.5802                17.2324

                     22                     23                     24
                      A                      A                      A
 Frequencies --    698.2130               720.7874               744.2872
 Red. masses --      2.3044                 4.2039                 1.6549
 Frc consts  --      0.6619                 1.2868                 0.5401
 IR Inten    --      9.6164                 3.9495                10.7687

                     25                     26                     27
                      A                      A                      A
 Frequencies --    784.9959               791.4170               817.6434
 Red. masses --      1.6664                 3.3723                 4.0548
 Frc consts  --      0.6050                 1.2445                 1.5972
 IR Inten    --     59.2677                 1.6387                10.1774

                     28                     29                     30
                      A                      A                      A
 Frequencies --    870.3602               882.4910               888.1178
 Red. masses --      2.6021                 2.2821                 1.8110
 Frc consts  --      1.1614                 1.0472                 0.8416
 IR Inten    --      1.2426                 3.9633                 5.8619

                     31                     32                     33
                      A                      A                      A
 Frequencies --    894.2940               937.1937               939.2712
 Red. masses --      1.9769                 2.2706                 2.3838
 Frc consts  --      0.9315                 1.1750                 1.2391
 IR Inten    --      1.5767                12.6885                15.6800

                     34                     35                     36
                      A                      A                      A
 Frequencies --    943.8841               984.8154              1016.9213
 Red. masses --      1.6654                 2.6743                 2.3052
 Frc consts  --      0.8742                 1.5281                 1.4045
 IR Inten    --      4.9475                 6.7949                 8.2100

                     37                     38                     39
                      A                      A                      A
 Frequencies --   1030.8169              1054.1617              1065.3508
 Red. masses --      2.2655                 2.2493                 1.9461
 Frc consts  --      1.4184                 1.4727                 1.3014
 IR Inten    --     13.8653                 8.0758                 8.3739

                     40                     41                     42
                      A                      A                      A
 Frequencies --   1074.9032              1085.3984              1109.0775
 Red. masses --      1.8802                 3.9939                 1.7017
 Frc consts  --      1.2799                 2.7722                 1.2333
 IR Inten    --      0.9427                91.1436                 6.7568

                     43                     44                     45
                      A                      A                      A
 Frequencies --   1130.1540              1146.8641              1155.0990
 Red. masses --      5.2348                 2.5231                 1.7215
 Frc consts  --      3.9393                 1.9553                 1.3533
 IR Inten    --     28.7679                 8.5982                 9.9008

                     46                     47                     48
                      A                      A                      A
 Frequencies --   1189.3202              1198.4084              1201.9401
 Red. masses --      1.8898                 1.2631                 1.2963
 Frc consts  --      1.5750                 1.0688                 1.1034
 IR Inten    --      2.1085                 3.2567                 7.6706

                     49                     50                     51
                      A                      A                      A
 Frequencies --   1216.2201              1232.5781              1249.6549
 Red. masses --      1.3544                 1.3504                 1.4941
 Frc consts  --      1.1804                 1.2088                 1.3747
 IR Inten    --      6.4557                27.9112                23.0776

                     52                     53                     54
                      A                      A                      A
 Frequencies --   1291.1046              1304.9157              1323.3142
 Red. masses --      1.2480                 1.5759                 1.2912
 Frc consts  --      1.2257                 1.5811                 1.3322
 IR Inten    --      5.5595                 4.7178                 1.9755

                     55                     56                     57
                      A                      A                      A
 Frequencies --   1329.2400              1357.2901              1375.2485
 Red. masses --      1.4565                 1.4937                 1.4041
 Frc consts  --      1.5162                 1.6213                 1.5646
 IR Inten    --      4.8206                18.8084                 7.2762

                     58                     59                     60
                      A                      A                      A
 Frequencies --   1375.8174              1380.3360              1393.0785
 Red. masses --      1.5227                 1.6970                 1.5681
 Frc consts  --      1.6982                 1.9050                 1.7930
 IR Inten    --      3.4005                18.8533                12.4510

                     61                     62                     63
                      A                      A                      A
 Frequencies --   1398.5250              1407.0647              1414.3980
 Red. masses --      1.7358                 1.3518                 1.4012
 Frc consts  --      2.0003                 1.5769                 1.6516
 IR Inten    --      6.7794                21.8270                16.0626

                     64                     65                     66
                      A                      A                      A
 Frequencies --   1440.5680              1444.5028              1497.4369
 Red. masses --      1.2589                 1.4525                 1.1100
 Frc consts  --      1.5393                 1.7857                 1.4665
 IR Inten    --     63.4279                 8.7594                 6.5036

                     67                     68                     69
                      A                      A                      A
 Frequencies --   1499.6383              1508.8401              1520.9971
 Red. masses --      1.2672                 1.1165                 1.0948
 Frc consts  --      1.6790                 1.4977                 1.4923
 IR Inten    --      3.4818                 1.8280                 7.9620

                     70                     71                     72
                      A                      A                      A
 Frequencies --   1524.7031              1529.2057              1537.5558
 Red. masses --      1.1063                 1.1093                 1.0950
 Frc consts  --      1.5153                 1.5284                 1.5252
 IR Inten    --      1.7615                 5.2958                 1.0011

                     73                     74                     75
                      A                      A                      A
 Frequencies --   1539.6833              1621.4918              1636.9079
 Red. masses --      1.1007                 8.8067                 6.9865
 Frc consts  --      1.5374                13.6424                11.0295
 IR Inten    --      3.5805                47.2513                23.0384

                     76                     77                     78
                      A                      A                      A
 Frequencies --   2915.6174              2928.4759              3014.1984
 Red. masses --      1.0739                 1.0728                 1.0700
 Frc consts  --      5.3787                 5.4209                 5.7275
 IR Inten    --     65.9971               119.0075                47.0980

                     79                     80                     81
                      A                      A                      A
 Frequencies --   3033.8871              3056.6537              3059.6179
 Red. masses --      1.0683                 1.0626                 1.0849
 Frc consts  --      5.7934                 5.8492                 5.9837
 IR Inten    --     22.6104                21.8735                29.6505

                     82                     83                     84
                      A                      A                      A
 Frequencies --   3061.8165              3072.4618              3079.2993
 Red. masses --      1.0598                 1.0845                 1.0684
 Frc consts  --      5.8537                 6.0319                 5.9688
 IR Inten    --     19.6126                25.2046                35.3069

                     85                     86                     87
                      A                      A                      A
 Frequencies --   3082.5377              3088.0456              3101.3216
 Red. masses --      1.0876                 1.0951                 1.1033
 Frc consts  --      6.0889                 6.1529                 6.2524
 IR Inten    --     52.7462                31.1059                50.7274

                     88                     89                     90
                      A                      A                      A
 Frequencies --   3107.7806              3112.9121              3141.9931
 Red. masses --      1.0973                 1.1027                 1.0988
 Frc consts  --      6.2443                 6.2955                 6.3910
 IR Inten    --     34.2137                39.3984                 6.3986

                     91                     92                     93
                      A                      A                      A
 Frequencies --   3309.8388              3508.6375              3708.2459
 Red. masses --      1.0996                 1.0748                 1.0653
 Frc consts  --      7.0976                 7.7959                 8.6311
 IR Inten    --      0.6811                 1.0996                21.7779

 - Thermochemistry -
 -------------------
 Temperature   298.150 Kelvin.  Pressure   1.00000 Atm.
 Atom     1 has atomic number  6 and mass  12.00000

 Molecular mass:   210.13683 amu.
 Principal axes and moments of inertia in atomic units:
                           1         2         3
     Eigenvalues --  1006.554257223.230387467.86073
           X            0.99999  -0.00268   0.00295
           Y            0.00261   0.99975   0.02240
           Z           -0.00301  -0.02239   0.99974
 This molecule is an asymmetric top.
 Rotational symmetry number  1.
 Warning -- assumption of classical behavior for rotation
           may cause significant error
 Rotational temperatures (Kelvin)      0.08605     0.01199     0.01160
 Rotational constants (GHZ):           1.79299     0.24985     0.24167
 Zero-point vibrational energy     762182.1 (Joules/Mol)
                                  182.16589 (Kcal/Mol)
 Warning -- explicit consideration of  20 degrees of freedom as
           vibrations may cause significant error
 Vibrational temperatures:     28.44    39.71    59.16   114.28   139.60
          (Kelvin)            189.37   241.76   283.74   387.24   398.36
                              463.51   509.64   554.14   562.39   596.49
                              627.82   681.91   703.87   715.56   886.87
                              933.71  1004.57  1037.05  1070.86  1129.43
                             1138.67  1176.41  1252.25  1269.71  1277.80
                             1286.69  1348.41  1351.40  1358.04  1416.93
                             1463.12  1483.12  1516.70  1532.80  1546.55
                             1561.65  1595.72  1626.04  1650.08  1661.93
                             1711.17  1724.24  1729.32  1749.87  1773.40
                             1797.97  1857.61  1877.48  1903.95  1912.48
                             1952.84  1978.68  1979.49  1986.00  2004.33
                             2012.17  2024.45  2035.00  2072.66  2078.32
                             2154.48  2157.65  2170.88  2188.38  2193.71
                             2200.19  2212.20  2215.26  2332.97  2355.15
                             4194.92  4213.42  4336.76  4365.09  4397.84
                             4402.11  4405.27  4420.59  4430.42  4435.08
                             4443.01  4462.11  4471.40  4478.79  4520.63
                             4762.12  5048.15  5335.34

 Zero-point correction=                           0.290300 (Hartree/Particle)
 Thermal correction to Energy=                    0.304480
 Thermal correction to Enthalpy=                  0.305424
 Thermal correction to Gibbs Free Energy=         0.246905
 Sum of electronic and zero-point Energies=           -689.706111
 Sum of electronic and thermal Energies=              -689.691931
 Sum of electronic and thermal Enthalpies=            -689.690987
 Sum of electronic and thermal Free Energies=         -689.749505

                     E (Thermal)             CV                S
                      KCal/Mol        Cal/Mol-Kelvin    Cal/Mol-Kelvin
 Total                  191.064             54.269            123.162
 Electronic               0.000              0.000              0.000
 Translational            0.889              2.981             41.932
 Rotational               0.889              2.981             32.362
 Vibrational            189.286             48.308             48.868
 Vibration     1          0.593              1.986              6.657
 Vibration     2          0.593              1.984              5.995
 Vibration     3          0.594              1.981              5.205
 Vibration     4          0.600              1.963              3.905
 Vibration     5          0.603              1.951              3.513
 Vibration     6          0.612              1.922              2.922
 Vibration     7          0.625              1.882              2.457
 Vibration     8          0.637              1.844              2.159
 Vibration     9          0.674              1.730              1.602
 Vibration    10          0.678              1.716              1.553
 Vibration    11          0.707              1.631              1.299
 Vibration    12          0.730              1.567              1.147
 Vibration    13          0.754              1.502              1.019
 Vibration    14          0.759              1.490              0.997
 Vibration    15          0.778              1.439              0.911
 Vibration    16          0.797              1.391              0.838
 Vibration    17          0.831              1.308              0.727
 Vibration    18          0.845              1.274              0.686
 Vibration    19          0.853              1.256              0.665
 Vibration    20          0.976              0.997              0.422

                           ! Non-Optimized Parameters !
 Normal termination of Gaussian 16 at Thu Dec 10 17:44:51 2020.

 ----------------------------------------------------------------------
 # B3LYP/6-311++G(d,p) empiricaldispersion=gd3bj scf=xqc pop=npa geom=c
 heck
 ----------------------------------------------------------------------

 ---------------------------------------
 CID_115083384_JID_5932_Energie_neutraal
 ---------------------------------------
 Structure from the checkpoint file:  "JID_5932.chk"
 Charge =  0 Multiplicity = 1

 SCF Done:  E(RB3LYP) =  -690.199915835     A.U. after   14 cycles
 Normal termination of Gaussian 16 at Thu Dec 10 17:49:00 2020.

 ----------------------------------------------------------------------
 # B3LYP/6-311++G(d,p) empiricaldispersion=gd3bj scf=xqc pop=npa geom=c
 heck
 ----------------------------------------------------------------------

 -------------------------------------
 CID_115083384_JID_5932_Energie_kation
 -------------------------------------
 Structure from the checkpoint file:  "JID_5932.chk"
 Charge =  1 Multiplicity = 2

 SCF Done:  E(UB3LYP) =  -689.901550113     A.U. after   24 cycles
 Normal termination of Gaussian 16 at Thu Dec 10 17:58:22 2020.
 Gaussian 16:  ES64L-G16RevA.03 25-Dec-2016

 ----------------------------------------------------------------------
 # B3LYP/6-311++G(d,p) empiricaldispersion=gd3bj scf=xqc pop=npa geom=c
 heck
 ----------------------------------------------------------------------

 ------------------------------------
 CID_115083384_JID_5932_Energie_anion
 ------------------------------------
 Structure from the checkpoint file:  "JID_5932.chk"
 Charge = -1 Multiplicity = 2

                         Standard orientation:
 ---------------------------------------------------------------------
 Center     Atomic      Atomic             Coordinates (Angstroms)
 Number     Number       Type             X           Y           Z
 ---------------------------------------------------------------------
      1          6           0       -2.877663    1.445385    0.261141
      2          6           0       -2.108401    0.486678    1.180556
      3          6           0       -1.920233   -0.900608    0.536911
      4          6           0       -3.289843   -1.429791    0.083792
      5          7           0       -3.900647   -0.481179   -0.847985
      6          6           0       -4.186966    0.803654   -0.206208
      7          6           0       -0.938157   -0.894174   -0.660903
      8          6           0        0.374302   -0.279250   -0.328486
      9          7           0        1.367695   -0.788681    0.337430
     10          6           0        2.312489    0.237167    0.438268
     11          6           0        1.825379    1.332966   -0.203338
     12          8           0        0.579003    1.022500   -0.694378
     13          6           0        3.644776    0.020035    1.079718
     14          6           0        4.614583   -0.690394    0.119122
     15          8           0        4.881768    0.086575   -1.037263
     16          1           0       -3.091993    2.382971    0.788008
     17          1           0       -2.267294    1.698500   -0.613071
     18          1           0       -1.140847    0.915749    1.464039
     19          1           0       -2.676195    0.354076    2.112066
     20          1           0       -1.512903   -1.582623    1.293309
     21          1           0       -3.177221   -2.394351   -0.425204
     22          1           0       -3.912996   -1.600892    0.983754
     23          1           0       -4.755979   -0.876661   -1.230166
     24          1           0       -4.861809    0.693855    0.666996
     25          1           0       -4.693771    1.449540   -0.931831
     26          1           0       -0.762993   -1.928672   -0.974884
     27          1           0       -1.390782   -0.363427   -1.501343
     28          1           0        2.180649    2.336127   -0.376311
     29          1           0        4.081800    0.981411    1.371099
     30          1           0        3.517267   -0.586081    1.984215
     31          1           0        5.580216   -0.843570    0.610369
     32          1           0        4.204990   -1.677887   -0.143756
     33          1           0        4.022761    0.268347   -1.453706
 ---------------------------------------------------------------------

 SCF Done:  E(UB3LYP) =  -690.186846344     A.U. after   33 cycles
 SCF Done:  E(UB3LYP) =  -690.186846344     a.u. after    1 cycles

 The electronic state is 2-A.
 Alpha  occ. eigenvalues --  -19.10842 -19.04044 -14.21907 -14.19615 -10.17193
 Alpha  occ. eigenvalues --  -10.13694 -10.13482 -10.11902 -10.09352 -10.09204
 Alpha  occ. eigenvalues --  -10.08874 -10.08554 -10.08245 -10.06739 -10.06420
 Alpha  occ. eigenvalues --   -1.04182  -0.94276  -0.83431  -0.81318  -0.72859
 Alpha  occ. eigenvalues --   -0.69698  -0.66935  -0.65327  -0.60345  -0.56318
 Alpha  occ. eigenvalues --   -0.53957  -0.51785  -0.50877  -0.48856  -0.44330
 Alpha  occ. eigenvalues --   -0.42616  -0.42208  -0.41914  -0.39445  -0.37710
 Alpha  occ. eigenvalues --   -0.36689  -0.35441  -0.35025  -0.34211  -0.33715
 Alpha  occ. eigenvalues --   -0.32659  -0.31626  -0.30517  -0.29674  -0.28749
 Alpha  occ. eigenvalues --   -0.28629  -0.27252  -0.25597  -0.25485  -0.23502
 Alpha  occ. eigenvalues --   -0.22631  -0.21599  -0.21392  -0.20606  -0.19592
 Alpha  occ. eigenvalues --   -0.15514  -0.12984   0.04185
 Alpha virt. eigenvalues --    0.05679   0.06789   0.07266   0.07601   0.07684
 Alpha virt. eigenvalues --    0.08174   0.09131   0.09654   0.09951   0.10188
 Alpha virt. eigenvalues --    0.10681   0.11059   0.11416   0.11838   0.12569

  Beta  occ. eigenvalues --  -19.10829 -19.04036 -14.21900 -14.19585 -10.17190
  Beta  occ. eigenvalues --  -10.13668 -10.13470 -10.11900 -10.09336 -10.09178
  Beta  occ. eigenvalues --  -10.08848 -10.08546 -10.08242 -10.06724 -10.06410
  Beta  occ. eigenvalues --   -1.04162  -0.94260  -0.83417  -0.81274  -0.72834
  Beta  occ. eigenvalues --   -0.69668  -0.66902  -0.65290  -0.60308  -0.56283
  Beta  occ. eigenvalues --   -0.53893  -0.51744  -0.50853  -0.48820  -0.44280
  Beta  occ. eigenvalues --   -0.42590  -0.42168  -0.41829  -0.39403  -0.37667
  Beta  occ. eigenvalues --   -0.36663  -0.35404  -0.35003  -0.34173  -0.33685
  Beta  occ. eigenvalues --   -0.32624  -0.31595  -0.30479  -0.29639  -0.28725
  Beta  occ. eigenvalues --   -0.28601  -0.27220  -0.25577  -0.25458  -0.23473
  Beta  occ. eigenvalues --   -0.22603  -0.21561  -0.21352  -0.20591  -0.19575
  Beta  occ. eigenvalues --   -0.15450  -0.12917
  Beta virt. eigenvalues --    0.06124   0.06761   0.07125   0.07599   0.08017
  Beta virt. eigenvalues --    0.08258   0.08717   0.09386   0.09979   0.10333
  Beta virt. eigenvalues --    0.10736   0.10816   0.11265   0.11701   0.12015

 Mulliken charges and spin densities:
               1          2
     1  C   -1.152341   0.756182
     2  C    0.667119  -0.975209
     3  C   -0.685312   1.209829
     4  C    0.859027  -1.437154
     5  N   -0.425071   0.267425
     6  C    1.250733  -1.626052
     7  C    0.071446  -0.482547
     8  C   -0.440922  -0.325306
     9  N   -0.013273   0.156856
    10  C    0.621306  -0.503279
    11  C   -0.754038   0.523458
    12  O    0.044331   0.013223
    13  C    0.860713  -0.998859
    14  C    0.127098  -0.558575
    15  O   -0.273810   0.014106
    16  H   -0.218146   0.369434
    17  H    0.222370  -0.055915
    18  H   -0.102485   0.257787
    19  H   -0.023028   0.186682
    20  H    0.062404   0.164580
    21  H   -0.382074   0.553419
    22  H   -0.298168   0.423324
    23  H   -0.162862   0.431053
    24  H   -0.224435   0.347274
    25  H   -0.392135   0.553900
    26  H    0.098622   0.070852
    27  H    0.175077   0.015905
    28  H   -0.572441   0.760206
    29  H   -0.118299   0.307461
    30  H   -0.031059   0.188379
    31  H   -0.121964   0.294702
    32  H    0.096104   0.072142
    33  H    0.235511   0.024717
 Sum of Mulliken charges =  -1.00000   1.00000

 Dipole moment (field-independent basis, Debye):
    X=              4.5385    Y=             -0.1610    Z=             -0.4441  Tot=              4.5630
 Quadrupole moment (field-independent basis, Debye-Ang):
   XX=           -208.0095   YY=           -130.6578   ZZ=           -123.9074
   XY=             -6.3693   XZ=             -3.5427   YZ=             -2.1559

 Summary of Natural Population Analysis:

                                       Natural Population
                Natural  -----------------------------------------------
    Atom  No    Charge         Core      Valence    Rydberg      Total
 -----------------------------------------------------------------------
      C    1   -0.19677      0.99962     2.18852    0.00863     3.19677
      C    2   -0.19190      0.99961     2.18350    0.00880     3.19190
      C    3   -0.10629      0.99958     2.09596    0.01074     3.10629
      C    4   -0.08557      0.99960     2.07306    0.01292     3.08557
      N    5   -0.34558      0.99974     2.83275    0.01309     3.84558
      C    6   -0.08569      0.99962     2.07438    0.01168     3.08569
      C    7   -0.22416      0.99956     2.21549    0.00912     3.22416
      C    8    0.28274      0.99959     1.69810    0.01958     2.71726
      N    9   -0.26089      0.99966     2.75242    0.00881     3.76089
      C   10    0.03522      0.99953     1.94877    0.01648     2.96478
      C   11    0.03280      0.99941     1.95330    0.01449     2.96720
      O   12   -0.23694      0.99986     3.22977    0.00731     4.23694
      C   13   -0.21902      0.99959     2.20922    0.01021     3.21902
      C   14   -0.00413      0.99961     1.99317    0.01135     3.00413
      O   15   -0.37008      0.99990     3.36330    0.00688     4.37008
      H   16    0.09942      0.00000     0.39955    0.00103     0.40058
      H   17    0.09776      0.00000     0.40046    0.00177     0.40224
      H   18    0.10195      0.00000     0.39680    0.00125     0.39805
      H   19    0.09819      0.00000     0.40035    0.00146     0.40181
      H   20    0.10225      0.00000     0.39621    0.00155     0.39775
      H   21    0.09664      0.00000     0.40189    0.00147     0.40336
      H   22    0.08234      0.00000     0.41579    0.00187     0.41766
      H   23    0.17973      0.00000     0.31559    0.00468     0.32027
      H   24    0.07640      0.00000     0.42152    0.00208     0.42360
      H   25    0.09594      0.00000     0.40273    0.00133     0.40406
      H   26    0.11300      0.00000     0.38587    0.00113     0.38700
      H   27    0.11897      0.00000     0.37899    0.00204     0.38103
      H   28    0.10290      0.00000     0.39586    0.00123     0.39710
      H   29    0.10691      0.00000     0.39163    0.00146     0.39309
      H   30    0.11056      0.00000     0.38808    0.00136     0.38944
      H   31    0.08579      0.00000     0.41279    0.00142     0.41421
      H   32    0.07865      0.00000     0.41988    0.00147     0.42135
      H   33    0.22886      0.00000     0.26786    0.00328     0.27114
 =======================================================================
   * Total *    0.00000     14.99448    41.80355    0.20198    57.00000

 Normal termination of Gaussian 16 at Thu Dec 10 18:11:27 2020.
