 Gaussian 16, Revision A.03,

 -----------------------------------------------------------
 # opt freq B3LYP/6-31G(d) empiricaldispersion=gd3bj scf=xqc
 -----------------------------------------------------------

 -------------------------------
 CID_115239494_JID_8289_neutraal
 -------------------------------
 Symbolic Z-matrix:
 Charge =  0 Multiplicity = 1

 SCF Done:  E(RB3LYP) =  -1111.03366841     A.U. after   14 cycles
 SCF Done:  E(RB3LYP) =  -1110.98606636     A.U. after   13 cycles
 SCF Done:  E(RB3LYP) =  -1111.03943702     A.U. after   12 cycles
 SCF Done:  E(RB3LYP) =  -1111.04083744     A.U. after   12 cycles
 SCF Done:  E(RB3LYP) =  -1111.04115149     A.U. after   12 cycles
 SCF Done:  E(RB3LYP) =  -1111.04120429     A.U. after   11 cycles
 SCF Done:  E(RB3LYP) =  -1111.04125983     A.U. after   11 cycles
 SCF Done:  E(RB3LYP) =  -1111.04127399     A.U. after    9 cycles
 SCF Done:  E(RB3LYP) =  -1111.04128206     A.U. after   10 cycles
 SCF Done:  E(RB3LYP) =  -1111.04128447     A.U. after    9 cycles
 SCF Done:  E(RB3LYP) =  -1111.04202755     A.U. after   11 cycles
 SCF Done:  E(RB3LYP) =  -1111.04204978     A.U. after   10 cycles
 SCF Done:  E(RB3LYP) =  -1111.04205218     A.U. after    9 cycles
 SCF Done:  E(RB3LYP) =  -1111.04205243     A.U. after    8 cycles
 SCF Done:  E(RB3LYP) =  -1111.04205245     A.U. after    6 cycles
 Optimization completed.
    -- Stationary point found.
 Normal termination of Gaussian 16 at Fri Dec 11 20:16:31 2020.

 --------------------------------------------------------------------
 #N Geom=AllCheck Guess=TCheck SCRF=Check GenChk RB3LYP/6-31G(d) Freq
 --------------------------------------------------------------------

 Structure from the checkpoint file:  "JID_8289.chk"
 -------------------------------
 CID_115239494_JID_8289_neutraal
 -------------------------------
 Charge =  0 Multiplicity = 1

 SCF Done:  E(RB3LYP) =  -1111.04205245     A.U. after    1 cycles

  Exact polarizability: 172.978  -0.472 194.208   6.030   0.431 163.722
 Approx polarizability: 221.573  -3.738 289.500  17.370  -2.570 283.719

                      1                      2                      3
                      A                      A                      A
 Frequencies --     25.7885                29.3192                45.1123
 Red. masses --      3.6927                 4.8132                 3.6204
 Frc consts  --      0.0014                 0.0024                 0.0043
 IR Inten    --      0.0839                 0.3748                 0.1196

                      4                      5                      6
                      A                      A                      A
 Frequencies --     65.8074                72.5713                91.3667
 Red. masses --      4.6376                 4.6510                 1.0596
 Frc consts  --      0.0118                 0.0144                 0.0052
 IR Inten    --      0.0582                 0.0462                 0.1582

                      7                      8                      9
                      A                      A                      A
 Frequencies --    119.9184               142.7199               161.0198
 Red. masses --      2.8752                 4.0431                 2.6924
 Frc consts  --      0.0244                 0.0485                 0.0411
 IR Inten    --      0.2873                 0.7357                 0.2935

                     10                     11                     12
                      A                      A                      A
 Frequencies --    178.1678               192.7892               222.8742
 Red. masses --      3.1708                 3.3426                 2.6115
 Frc consts  --      0.0593                 0.0732                 0.0764
 IR Inten    --      1.0522                 1.5228                 2.3981

                     13                     14                     15
                      A                      A                      A
 Frequencies --    249.7150               265.9730               281.0048
 Red. masses --      2.8012                 1.5548                 2.0236
 Frc consts  --      0.1029                 0.0648                 0.0941
 IR Inten    --      1.0565                 3.4503                 3.3625

                     16                     17                     18
                      A                      A                      A
 Frequencies --    291.3687               322.0203               338.0664
 Red. masses --      1.6650                 2.1683                 2.5812
 Frc consts  --      0.0833                 0.1325                 0.1738
 IR Inten    --      4.6689                 0.1790                 3.1512

                     19                     20                     21
                      A                      A                      A
 Frequencies --    365.0540               377.5825               413.6353
 Red. masses --      2.6018                 2.5853                 2.0594
 Frc consts  --      0.2043                 0.2172                 0.2076
 IR Inten    --      0.6704                 3.4894                 1.8403

                     22                     23                     24
                      A                      A                      A
 Frequencies --    435.5578               436.8126               457.1827
 Red. masses --      4.4601                 3.1726                 2.4445
 Frc consts  --      0.4985                 0.3567                 0.3010
 IR Inten    --      1.5455                 3.2138                 4.4491

                     25                     26                     27
                      A                      A                      A
 Frequencies --    482.4195               513.5103               541.1495
 Red. masses --      2.7399                 4.0883                 3.2262
 Frc consts  --      0.3757                 0.6352                 0.5566
 IR Inten    --      0.9290                 6.0907                 3.2337

                     28                     29                     30
                      A                      A                      A
 Frequencies --    561.2705               600.7624               613.0244
 Red. masses --      2.7676                 1.8406                 3.4906
 Frc consts  --      0.5137                 0.3914                 0.7729
 IR Inten    --      2.8173                 4.1367                 5.4575

                     31                     32                     33
                      A                      A                      A
 Frequencies --    656.0258               703.9580               724.1664
 Red. masses --      2.7756                 2.9771                 1.6796
 Frc consts  --      0.7038                 0.8692                 0.5189
 IR Inten    --      7.2674                22.0363                24.8889

                     34                     35                     36
                      A                      A                      A
 Frequencies --    750.5424               802.2267               816.8151
 Red. masses --      1.4602                 2.1497                 2.3644
 Frc consts  --      0.4846                 0.8151                 0.9294
 IR Inten    --     90.9904                32.7619                 5.3656

                     37                     38                     39
                      A                      A                      A
 Frequencies --    824.6488               842.7331               871.0134
 Red. masses --      2.2565                 2.9996                 2.1320
 Frc consts  --      0.9041                 1.2551                 0.9530
 IR Inten    --     78.9466                13.1440                 6.7209

                     40                     41                     42
                      A                      A                      A
 Frequencies --    874.4938               890.3376               915.8127
 Red. masses --      2.1128                 1.2627                 1.7909
 Frc consts  --      0.9520                 0.5897                 0.8850
 IR Inten    --     14.4487                 2.6666                 6.3218

                     43                     44                     45
                      A                      A                      A
 Frequencies --    931.5243               943.7583               963.7716
 Red. masses --      2.2373                 1.8703                 2.1947
 Frc consts  --      1.1438                 0.9815                 1.2011
 IR Inten    --     18.8338                 7.4718                 2.3333

                     46                     47                     48
                      A                      A                      A
 Frequencies --    980.1805              1008.9865              1020.1827
 Red. masses --      2.1480                 1.9801                 1.6799
 Frc consts  --      1.2159                 1.1877                 1.0301
 IR Inten    --      3.7615                 7.8057                 4.7304

                     49                     50                     51
                      A                      A                      A
 Frequencies --   1035.6887              1072.3279              1079.6075
 Red. masses --      1.9218                 1.4903                 2.1445
 Frc consts  --      1.2146                 1.0097                 1.4727
 IR Inten    --      5.6879                 4.2650                 8.2844

                     52                     53                     54
                      A                      A                      A
 Frequencies --   1090.7210              1097.5220              1111.0107
 Red. masses --      1.7893                 1.4935                 2.1854
 Frc consts  --      1.2542                 1.0599                 1.5893
 IR Inten    --      8.8496                10.3709                 3.3358

                     55                     56                     57
                      A                      A                      A
 Frequencies --   1121.5590              1128.6869              1143.8183
 Red. masses --      1.8223                 1.9542                 3.2970
 Frc consts  --      1.3506                 1.4668                 2.5415
 IR Inten    --      0.3441                11.0692                21.8895

                     58                     59                     60
                      A                      A                      A
 Frequencies --   1152.3097              1172.8113              1189.0369
 Red. masses --      1.5848                 2.4951                 2.3505
 Frc consts  --      1.2398                 2.0221                 1.9580
 IR Inten    --      2.5189                63.6971                12.9135

                     61                     62                     63
                      A                      A                      A
 Frequencies --   1195.5751              1200.9450              1226.7714
 Red. masses --      2.7074                 2.2495                 1.1540
 Frc consts  --      2.2801                 1.9115                 1.0233
 IR Inten    --     10.2237                39.2383                14.0508

                     64                     65                     66
                      A                      A                      A
 Frequencies --   1233.8866              1249.3348              1262.6511
 Red. masses --      1.3513                 1.4069                 1.6370
 Frc consts  --      1.2122                 1.2939                 1.5377
 IR Inten    --      8.4543                 2.3763                 9.5802

                     67                     68                     69
                      A                      A                      A
 Frequencies --   1273.5472              1288.8829              1315.6741
 Red. masses --      1.5057                 1.4859                 1.4151
 Frc consts  --      1.4388                 1.4544                 1.4432
 IR Inten    --     10.1039                 8.9553                 7.0086

                     70                     71                     72
                      A                      A                      A
 Frequencies --   1335.9642              1349.6320              1358.5663
 Red. masses --      1.4082                 1.3452                 1.3346
 Frc consts  --      1.4809                 1.4437                 1.4514
 IR Inten    --      9.4288                13.2176                 2.6643

                     73                     74                     75
                      A                      A                      A
 Frequencies --   1374.0519              1377.4746              1401.3192
 Red. masses --      1.3606                 1.2873                 1.3903
 Frc consts  --      1.5135                 1.4391                 1.6085
 IR Inten    --      4.5672                 5.4250                 6.9478

                     76                     77                     78
                      A                      A                      A
 Frequencies --   1402.5141              1409.0872              1416.9807
 Red. masses --      1.3986                 1.2609                 2.1301
 Frc consts  --      1.6209                 1.4750                 2.5198
 IR Inten    --      8.6404                22.5274                 1.5520

                     79                     80                     81
                      A                      A                      A
 Frequencies --   1419.0506              1429.5075              1433.0066
 Red. masses --      1.4635                 1.4024                 1.5126
 Frc consts  --      1.7364                 1.6884                 1.8300
 IR Inten    --      1.5234                 4.8394                 6.5578

                     82                     83                     84
                      A                      A                      A
 Frequencies --   1445.6580              1486.6054              1495.5507
 Red. masses --      1.3526                 1.1913                 3.1129
 Frc consts  --      1.6655                 1.5512                 4.1022
 IR Inten    --      1.4879                 1.4816                 5.2873

                     85                     86                     87
                      A                      A                      A
 Frequencies --   1501.1508              1504.2127              1506.3299
 Red. masses --      1.1274                 1.1937                 1.0883
 Frc consts  --      1.4969                 1.5913                 1.4549
 IR Inten    --      4.1496                 2.4512                 2.7780

                     88                     89                     90
                      A                      A                      A
 Frequencies --   1508.0270              1515.8445              1516.6878
 Red. masses --      1.1173                 1.0983                 1.0621
 Frc consts  --      1.4970                 1.4868                 1.4394
 IR Inten    --      3.7163                 2.9731                10.4875

                     91                     92                     93
                      A                      A                      A
 Frequencies --   1518.3914              1519.1278              1526.1246
 Red. masses --      1.0538                 1.1418                 1.1972
 Frc consts  --      1.4314                 1.5526                 1.6428
 IR Inten    --      8.8737                19.5757                30.8611

                     94                     95                     96
                      A                      A                      A
 Frequencies --   1528.2432              1531.8055              1538.2537
 Red. masses --      1.1909                 1.1112                 1.0545
 Frc consts  --      1.6388                 1.5362                 1.4701
 IR Inten    --      9.8210                 4.6968                 5.3091

                     97                     98                     99
                      A                      A                      A
 Frequencies --   1546.2725              1620.4469              2864.0708
 Red. masses --      1.0899                 5.5492                 1.0730
 Frc consts  --      1.5354                 8.5852                 5.1858
 IR Inten    --      9.2223                 0.5382                46.0329

                    100                    101                    102
                      A                      A                      A
 Frequencies --   2884.1732              2920.6219              2959.3540
 Red. masses --      1.0721                 1.0632                 1.0710
 Frc consts  --      5.2546                 5.3431                 5.5261
 IR Inten    --     73.1962               113.2173                45.4927

                    103                    104                    105
                      A                      A                      A
 Frequencies --   3021.1653              3031.3718              3034.8535
 Red. masses --      1.0796                 1.0647                 1.0648
 Frc consts  --      5.8056                 5.7642                 5.7780
 IR Inten    --      4.0331                47.3424                34.4749

                    106                    107                    108
                      A                      A                      A
 Frequencies --   3042.5909              3047.8719              3050.1509
 Red. masses --      1.0402                 1.0771                 1.0634
 Frc consts  --      5.6736                 5.8951                 5.8289
 IR Inten    --     27.1941                16.4978                32.0272

                    109                    110                    111
                      A                      A                      A
 Frequencies --   3059.3096              3067.5207              3072.8731
 Red. masses --      1.0738                 1.0833                 1.0994
 Frc consts  --      5.9211                 6.0059                 6.1161
 IR Inten    --     67.1900                57.7852                32.1805

                    112                    113                    114
                      A                      A                      A
 Frequencies --   3079.4195              3082.2791              3096.4402
 Red. masses --      1.0706                 1.1020                 1.0976
 Frc consts  --      5.9818                 6.1687                 6.2007
 IR Inten    --     48.6123                57.3600                25.9289

                    115                    116                    117
                      A                      A                      A
 Frequencies --   3098.6949              3101.3841              3103.6957
 Red. masses --      1.1061                 1.0852                 1.1013
 Frc consts  --      6.2576                 6.1499                 6.2503
 IR Inten    --     39.7094                23.9691                17.9323

                    118                    119                    120
                      A                      A                      A
 Frequencies --   3128.7100              3134.6730              3209.0653
 Red. masses --      1.1004                 1.1013                 1.0911
 Frc consts  --      6.3463                 6.3758                 6.6199
 IR Inten    --     16.7852                14.8934                 7.9139

                    121                    122                    123
                      A                      A                      A
 Frequencies --   3271.4382              3441.3869              3519.4609
 Red. masses --      1.0964                 1.0730                 1.0734
 Frc consts  --      6.9135                 7.4874                 7.8337
 IR Inten    --      0.7314                 2.8367                 1.1563

 - Thermochemistry -
 -------------------
 Temperature   298.150 Kelvin.  Pressure   1.00000 Atm.
 Atom     1 has atomic number  6 and mass  12.00000

 Molecular mass:   267.17692 amu.
 Principal axes and moments of inertia in atomic units:
                           1         2         3
     Eigenvalues --  3518.150446854.762178653.00857
           X            0.99991  -0.00660  -0.01153
           Y            0.00659   0.99998  -0.00106
           Z            0.01154   0.00098   0.99993
 This molecule is an asymmetric top.
 Rotational symmetry number  1.
 Warning -- assumption of classical behavior for rotation
           may cause significant error
 Rotational temperatures (Kelvin)      0.02462     0.01264     0.01001
 Rotational constants (GHZ):           0.51298     0.26328     0.20857
 Zero-point vibrational energy    1010219.9 (Joules/Mol)
                                  241.44834 (Kcal/Mol)
 Warning -- explicit consideration of  30 degrees of freedom as
           vibrations may cause significant error
 Vibrational temperatures:     37.10    42.18    64.91    94.68   104.41
          (Kelvin)            131.46   172.54   205.34   231.67   256.34
                              277.38   320.67   359.28   382.68   404.30
                              419.21   463.32   486.40   525.23   543.26
                              595.13   626.67   628.48   657.78   694.09
                              738.83   778.59   807.54   864.36   882.01
                              943.87  1012.84  1041.91  1079.86  1154.23
                             1175.21  1186.49  1212.50  1253.19  1258.20
                             1281.00  1317.65  1340.26  1357.86  1386.65
                             1410.26  1451.71  1467.82  1490.13  1542.84
                             1553.31  1569.30  1579.09  1598.50  1613.67
                             1623.93  1645.70  1657.92  1687.41  1710.76
                             1720.17  1727.89  1765.05  1775.29  1797.51
                             1816.67  1832.35  1854.41  1892.96  1922.15
                             1941.82  1954.67  1976.95  1981.88  2016.19
                             2017.91  2027.36  2038.72  2041.70  2056.74
                             2061.78  2079.98  2138.89  2151.76  2159.82
                             2164.23  2167.27  2169.71  2180.96  2182.18
                             2184.63  2185.69  2195.75  2198.80  2203.93
                             2213.20  2224.74  2331.46  4120.76  4149.68
                             4202.12  4257.85  4346.78  4361.47  4366.48
                             4377.61  4385.21  4388.49  4401.66  4413.48
                             4421.18  4430.60  4434.71  4455.09  4458.33
                             4462.20  4465.53  4501.52  4510.10  4617.13
                             4706.87  4951.39  5063.72

 Zero-point correction=                           0.384772 (Hartree/Particle)
 Thermal correction to Energy=                    0.403531
 Thermal correction to Enthalpy=                  0.404475
 Thermal correction to Gibbs Free Energy=         0.336757
 Sum of electronic and zero-point Energies=          -1110.657280
 Sum of electronic and thermal Energies=             -1110.638522
 Sum of electronic and thermal Enthalpies=           -1110.637578
 Sum of electronic and thermal Free Energies=        -1110.705296

                     E (Thermal)             CV                S
                      KCal/Mol        Cal/Mol-Kelvin    Cal/Mol-Kelvin
 Total                  253.219             72.188            142.525
 Electronic               0.000              0.000              0.000
 Translational            0.889              2.981             42.647
 Rotational               0.889              2.981             33.700
 Vibrational            251.442             66.226             66.177
 Vibration     1          0.593              1.985              6.130
 Vibration     2          0.593              1.984              5.875
 Vibration     3          0.595              1.979              5.021
 Vibration     4          0.597              1.971              4.275
 Vibration     5          0.599              1.967              4.082
 Vibration     6          0.602              1.955              3.631
 Vibration     7          0.609              1.933              3.102
 Vibration     8          0.616              1.910              2.767
 Vibration     9          0.622              1.890              2.538
 Vibration    10          0.629              1.869              2.348
 Vibration    11          0.635              1.850              2.201
 Vibration    12          0.649              1.806              1.936
 Vibration    13          0.663              1.763              1.733
 Vibration    14          0.672              1.735              1.622
 Vibration    15          0.681              1.709              1.528
 Vibration    16          0.687              1.690              1.466
 Vibration    17          0.707              1.631              1.300
 Vibration    18          0.718              1.599              1.221
 Vibration    19          0.738              1.544              1.101
 Vibration    20          0.748              1.518              1.049
 Vibration    21          0.777              1.441              0.914
 Vibration    22          0.796              1.393              0.841
 Vibration    23          0.797              1.390              0.837
 Vibration    24          0.815              1.345              0.774
 Vibration    25          0.839              1.289              0.704
 Vibration    26          0.869              1.220              0.625
 Vibration    27          0.896              1.159              0.563
 Vibration    28          0.917              1.115              0.521
 Vibration    29          0.959              1.030              0.448
 Vibration    30          0.972              1.004              0.428

 Optimization completed.
    -- Stationary point found.
 Normal termination of Gaussian 16 at Fri Dec 11 20:38:17 2020.

 ----------------------------------------------------------------------
 # B3LYP/6-311++G(d,p) empiricaldispersion=gd3bj scf=xqc pop=npa geom=c
 heck
 ----------------------------------------------------------------------

 ---------------------------------------
 CID_115239494_JID_8289_Energie_neutraal
 ---------------------------------------
 Structure from the checkpoint file:  "JID_8289.chk"
 Charge =  0 Multiplicity = 1

 SCF Done:  E(RB3LYP) =  -1111.26734901     A.U. after   15 cycles
 Normal termination of Gaussian 16 at Fri Dec 11 20:48:02 2020.

 ----------------------------------------------------------------------
 # B3LYP/6-311++G(d,p) empiricaldispersion=gd3bj scf=xqc pop=npa geom=c
 heck
 ----------------------------------------------------------------------

 -------------------------------------
 CID_115239494_JID_8289_Energie_kation
 -------------------------------------
 Structure from the checkpoint file:  "JID_8289.chk"
 Charge =  1 Multiplicity = 2

 SCF Done:  E(UB3LYP) =  -1110.99462081     A.U. after   30 cycles
 Normal termination of Gaussian 16 at Fri Dec 11 21:15:01 2020.
 Gaussian 16:  ES64L-G16RevA.03 25-Dec-2016

 ----------------------------------------------------------------------
 # B3LYP/6-311++G(d,p) empiricaldispersion=gd3bj scf=xqc pop=npa geom=c
 heck
 ----------------------------------------------------------------------

 ------------------------------------
 CID_115239494_JID_8289_Energie_anion
 ------------------------------------
 Structure from the checkpoint file:  "JID_8289.chk"
 Charge = -1 Multiplicity = 2

                         Standard orientation:
 ---------------------------------------------------------------------
 Center     Atomic      Atomic             Coordinates (Angstroms)
 Number     Number       Type             X           Y           Z
 ---------------------------------------------------------------------
      1          6           0       -2.011630   -1.121860    2.297860
      2          6           0       -2.395243   -0.952192    0.853051
      3          6           0       -2.599622    0.258203    0.231341
      4         16           0       -2.972132    0.037568   -1.464794
      5          6           0       -2.867783   -1.687343   -1.321800
      6          6           0       -2.561083   -2.059895   -0.044466
      7          6           0       -2.496738    1.640676    0.812584
      8          6           0       -1.051726    2.159923    0.883102
      9          7           0       -0.499423    2.327157   -0.451365
     10          6           0        0.835033    2.916433   -0.502552
     11          6           0        1.989492    2.206023    0.232361
     12          6           0        2.387482    0.828818   -0.314056
     13          6           0        1.499534   -0.316323    0.202360
     14          7           0        1.954322   -1.605228   -0.307979
     15          6           0        3.335470   -1.865806    0.077389
     16          6           0        4.238019   -0.742591   -0.437390
     17          7           0        3.808763    0.590070   -0.010218
     18          6           0        1.065343   -2.681895    0.089300
     19          1           0       -2.533726   -1.974214    2.746921
     20          1           0       -0.934750   -1.307571    2.402361
     21          1           0       -2.248471   -0.233035    2.890008
     22          1           0       -3.046749   -2.319652   -2.180505
     23          1           0       -2.457876   -3.094376    0.267422
     24          1           0       -3.090602    2.344980    0.220845
     25          1           0       -2.917806    1.634462    1.825461
     26          1           0       -1.048660    3.143498    1.371740
     27          1           0       -0.466944    1.481626    1.530091
     28          1           0       -0.519044    1.441157   -0.949807
     29          1           0        1.103952    3.018770   -1.561579
     30          1           0        0.755080    3.936253   -0.102221
     31          1           0        2.874512    2.848467    0.145152
     32          1           0        1.766518    2.128914    1.306079
     33          1           0        2.306788    0.839362   -1.410998
     34          1           0        0.458425   -0.178862   -0.105361
     35          1           0        1.511281   -0.294992    1.315746
     36          1           0        3.440153   -1.946112    1.181925
     37          1           0        3.643660   -2.828991   -0.348237
     38          1           0        4.231284   -0.759852   -1.534266
     39          1           0        5.270880   -0.902238   -0.107859
     40          1           0        3.932419    0.664772    1.001590
     41          1           0        1.409773   -3.624843   -0.349864
     42          1           0        1.014848   -2.817524    1.189388
     43          1           0        0.054244   -2.478106   -0.274904
 ---------------------------------------------------------------------

 SCF Done:  E(UB3LYP) =  -1111.25480740     A.U. after   33 cycles
 SCF Done:  E(UB3LYP) =  -1111.25480740     a.u. after    1 cycles

 The electronic state is 2-A.
 Alpha  occ. eigenvalues --  -88.77566 -14.21104 -14.20529 -14.20123 -10.10409
 Alpha  occ. eigenvalues --  -10.10138 -10.10009 -10.09985 -10.09896 -10.09674
 Alpha  occ. eigenvalues --  -10.09600 -10.09340 -10.08805 -10.08249 -10.08247
 Alpha  occ. eigenvalues --  -10.07814 -10.07032 -10.06919  -7.86196  -5.82478
 Alpha  occ. eigenvalues --   -5.82114  -5.81806  -0.85012  -0.81534  -0.80023
 Alpha  occ. eigenvalues --   -0.78465  -0.69631  -0.67905  -0.66633  -0.63593
 Alpha  occ. eigenvalues --   -0.61832  -0.60807  -0.57510  -0.55159  -0.54231
 Alpha  occ. eigenvalues --   -0.52289  -0.48970  -0.48180  -0.46894  -0.41889
 Alpha  occ. eigenvalues --   -0.40565  -0.39546  -0.39146  -0.38601  -0.37084
 Alpha  occ. eigenvalues --   -0.36643  -0.36558  -0.35918  -0.33507  -0.33389
 Alpha  occ. eigenvalues --   -0.32446  -0.32267  -0.31127  -0.30283  -0.29670
 Alpha  occ. eigenvalues --   -0.29456  -0.28528  -0.27828  -0.27633  -0.27392
 Alpha  occ. eigenvalues --   -0.26381  -0.26067  -0.25758  -0.25503  -0.24709
 Alpha  occ. eigenvalues --   -0.24274  -0.23947  -0.23025  -0.15366  -0.14133
 Alpha  occ. eigenvalues --   -0.13723  -0.12841  -0.12317   0.04252
 Alpha virt. eigenvalues --    0.06127   0.06550   0.07174   0.07415   0.07966
 Alpha virt. eigenvalues --    0.08328   0.08410   0.09023   0.09236   0.10040
 Alpha virt. eigenvalues --    0.10527   0.10819   0.11314   0.11614   0.11651

  Beta  occ. eigenvalues --  -88.77558 -14.21092 -14.20519 -14.20122 -10.10409
  Beta  occ. eigenvalues --  -10.10133 -10.09977 -10.09954 -10.09830 -10.09657
  Beta  occ. eigenvalues --  -10.09573 -10.09328 -10.08791 -10.08238 -10.08236
  Beta  occ. eigenvalues --  -10.07806 -10.07021 -10.06881  -7.86189  -5.82474
  Beta  occ. eigenvalues --   -5.82112  -5.81779  -0.84991  -0.81521  -0.80001
  Beta  occ. eigenvalues --   -0.78398  -0.69597  -0.67849  -0.66577  -0.63555
  Beta  occ. eigenvalues --   -0.61802  -0.60757  -0.57427  -0.55126  -0.54199
  Beta  occ. eigenvalues --   -0.52235  -0.48937  -0.48133  -0.46812  -0.41820
  Beta  occ. eigenvalues --   -0.40529  -0.39493  -0.39111  -0.38576  -0.37056
  Beta  occ. eigenvalues --   -0.36623  -0.36523  -0.35888  -0.33456  -0.33349
  Beta  occ. eigenvalues --   -0.32379  -0.32233  -0.31091  -0.30260  -0.29624
  Beta  occ. eigenvalues --   -0.29408  -0.28497  -0.27782  -0.27600  -0.27336
  Beta  occ. eigenvalues --   -0.26348  -0.26020  -0.25681  -0.25459  -0.24675
  Beta  occ. eigenvalues --   -0.24235  -0.23905  -0.23005  -0.15221  -0.14095
  Beta  occ. eigenvalues --   -0.13567  -0.12689  -0.12254
  Beta virt. eigenvalues --    0.06349   0.06889   0.06963   0.07475   0.07891
  Beta virt. eigenvalues --    0.08224   0.08681   0.08834   0.09356   0.09515
  Beta virt. eigenvalues --    0.10294   0.10793   0.11125   0.11495   0.11747

 Mulliken charges and spin densities:
               1          2
     1  C    1.478052  -2.192134
     2  C   -1.000659   1.095040
     3  C   -0.668714   1.278505
     4  S    0.147089  -0.000204
     5  C   -0.472146   0.081821
     6  C    0.150544  -0.375034
     7  C    0.926415  -2.012566
     8  C   -0.173060   0.189235
     9  N   -0.076612   0.039358
    10  C   -0.564190  -0.113580
    11  C    0.420588  -0.279078
    12  C    0.206860  -0.643915
    13  C   -1.299254   0.172223
    14  N    0.193052   0.080269
    15  C    0.461820  -0.633516
    16  C   -0.212290  -0.118572
    17  N   -0.053875   0.088969
    18  C   -0.209052  -0.186688
    19  H   -0.304143   0.457962
    20  H   -0.183434   0.362496
    21  H   -0.264083   0.400525
    22  H    0.137468   0.086075
    23  H   -0.158182   0.318560
    24  H    0.093599   0.068254
    25  H   -0.186285   0.381189
    26  H   -0.496461   0.682959
    27  H    0.386234  -0.289376
    28  H    0.129167   0.021612
    29  H    0.137162   0.010366
    30  H    0.042911   0.116294
    31  H    0.029730   0.153152
    32  H   -0.201100   0.357541
    33  H    0.184945   0.008735
    34  H    0.615338  -0.228106
    35  H   -0.210537   0.375351
    36  H   -0.098508   0.210036
    37  H   -0.067811   0.210344
    38  H    0.188799  -0.064328
    39  H   -0.236088   0.422795
    40  H    0.085579   0.158768
    41  H   -0.122679   0.255871
    42  H    0.011201   0.122861
    43  H    0.232610  -0.070072
 Sum of Mulliken charges =  -1.00000   1.00000

 Dipole moment (field-independent basis, Debye):
    X=             -0.4172    Y=             -0.2434    Z=             -6.0580  Tot=              6.0773
 Quadrupole moment (field-independent basis, Debye-Ang):
   XX=           -192.2877   YY=           -173.4956   ZZ=           -165.1247
   XY=              5.5118   XZ=              3.2827   YZ=              0.3605

 Summary of Natural Population Analysis:

                                       Natural Population
                Natural  -----------------------------------------------
    Atom  No    Charge         Core      Valence    Rydberg      Total
 -----------------------------------------------------------------------
      C    1   -0.29141      0.99962     2.28573    0.00605     3.29141
      C    2   -0.04613      0.99941     2.03508    0.01164     3.04613
      C    3   -0.09229      0.99941     2.07878    0.01410     3.09229
      S    4    0.20019      4.99940     2.78083    0.01957     7.79981
      C    5   -0.18819      0.99953     2.17834    0.01032     3.18819
      C    6   -0.12607      0.99949     2.11562    0.01096     3.12607
      C    7   -0.20932      0.99957     2.19764    0.01210     3.20932
      C    8   -0.08433      0.99961     2.07284    0.01187     3.08433
      N    9   -0.34421      0.99974     2.83400    0.01046     3.84421
      C   10   -0.08212      0.99963     2.07085    0.01164     3.08212
      C   11   -0.20538      0.99960     2.19662    0.00916     3.20538
      C   12   -0.01579      0.99958     2.00369    0.01251     3.01579
      C   13   -0.09528      0.99959     2.08360    0.01209     3.09528
      N   14   -0.27576      0.99971     2.76570    0.01035     3.77576
      C   15   -0.09318      0.99962     2.08225    0.01132     3.09318
      C   16   -0.09207      0.99962     2.08029    0.01216     3.09207
      N   17   -0.33673      0.99975     2.82536    0.01163     3.83673
      C   18   -0.17704      0.99964     2.16900    0.00840     3.17704
      H   19    0.10345      0.00000     0.39551    0.00104     0.39655
      H   20    0.10823      0.00000     0.38993    0.00184     0.39177
      H   21    0.10536      0.00000     0.39335    0.00129     0.39464
      H   22    0.10649      0.00000     0.39275    0.00076     0.39351
      H   23    0.10626      0.00000     0.39272    0.00101     0.39374
      H   24    0.10598      0.00000     0.39272    0.00130     0.39402
      H   25    0.11081      0.00000     0.38775    0.00144     0.38919
      H   26    0.09381      0.00000     0.40441    0.00178     0.40619
      H   27    0.08258      0.00000     0.41482    0.00261     0.41742
      H   28    0.17512      0.00000     0.32206    0.00282     0.32488
      H   29    0.08990      0.00000     0.40914    0.00096     0.41010
      H   30    0.09133      0.00000     0.40771    0.00095     0.40867
      H   31    0.10563      0.00000     0.39308    0.00128     0.39437
      H   32    0.09877      0.00000     0.39984    0.00138     0.40123
      H   33    0.08939      0.00000     0.40884    0.00178     0.41061
      H   34    0.09849      0.00000     0.39858    0.00293     0.40151
      H   35    0.07901      0.00000     0.41826    0.00273     0.42099
      H   36    0.07912      0.00000     0.41878    0.00210     0.42088
      H   37    0.09568      0.00000     0.40299    0.00132     0.40432
      H   38    0.09032      0.00000     0.40842    0.00126     0.40968
      H   39    0.09479      0.00000     0.40437    0.00084     0.40521
      H   40    0.16992      0.00000     0.32735    0.00273     0.33008
      H   41    0.09249      0.00000     0.40646    0.00104     0.40751
      H   42    0.08115      0.00000     0.41752    0.00133     0.41885
      H   43    0.10099      0.00000     0.39725    0.00177     0.39901
 =======================================================================
   * Total *   -0.00000     21.99254    50.76083    0.24663    73.00000

 Normal termination of Gaussian 16 at Fri Dec 11 21:43:31 2020.
