 Gaussian 16, Revision A.03,

 -----------------------------------------------------------
 # opt freq B3LYP/6-31G(d) empiricaldispersion=gd3bj scf=xqc
 -----------------------------------------------------------

 -------------------------------
 CID_115738041_JID_8315_neutraal
 -------------------------------
 Symbolic Z-matrix:
 Charge =  0 Multiplicity = 1

 SCF Done:  E(RB3LYP) =  -1196.47136247     A.U. after   15 cycles
 SCF Done:  E(RB3LYP) =  -1196.47779920     A.U. after   13 cycles
 SCF Done:  E(RB3LYP) =  -1196.47892139     A.U. after   12 cycles
 SCF Done:  E(RB3LYP) =  -1196.48044073     A.U. after   13 cycles
 SCF Done:  E(RB3LYP) =  -1196.48204298     A.U. after   14 cycles
 SCF Done:  E(RB3LYP) =  -1196.48339605     A.U. after   12 cycles
 SCF Done:  E(RB3LYP) =  -1196.48481564     A.U. after   13 cycles
 SCF Done:  E(RB3LYP) =  -1196.48577966     A.U. after   15 cycles
 SCF Done:  E(RB3LYP) =  -1196.48758383     A.U. after   12 cycles
 SCF Done:  E(RB3LYP) =  -1196.48881302     A.U. after   12 cycles
 SCF Done:  E(RB3LYP) =  -1196.49596099     A.U. after   10 cycles
 SCF Done:  E(RB3LYP) =  -1196.49596213     A.U. after    9 cycles
 SCF Done:  E(RB3LYP) =  -1196.49596232     A.U. after    8 cycles
 SCF Done:  E(RB3LYP) =  -1196.49596236     A.U. after    7 cycles
 Optimization completed.
    -- Stationary point found.
 Normal termination of Gaussian 16 at Fri Dec 11 20:10:28 2020.

 --------------------------------------------------------------------
 #N Geom=AllCheck Guess=TCheck SCRF=Check GenChk RB3LYP/6-31G(d) Freq
 --------------------------------------------------------------------

 Structure from the checkpoint file:  "JID_8315.chk"
 -------------------------------
 CID_115738041_JID_8315_neutraal
 -------------------------------
 Charge =  0 Multiplicity = 1

 SCF Done:  E(RB3LYP) =  -1196.49596236     A.U. after    1 cycles

  Exact polarizability: 216.969  -3.733 162.373 -10.970  -4.313 106.511
 Approx polarizability: 295.180  -2.334 263.249 -15.539 -11.549 165.302

                      1                      2                      3
                      A                      A                      A
 Frequencies --     14.4318                21.2438                29.7100
 Red. masses --      5.8665                 4.6878                 4.2139
 Frc consts  --      0.0007                 0.0012                 0.0022
 IR Inten    --      0.0630                 0.0815                 0.7797

                      4                      5                      6
                      A                      A                      A
 Frequencies --     44.9014                51.5117                66.5798
 Red. masses --      5.4253                 4.5588                 3.1536
 Frc consts  --      0.0064                 0.0071                 0.0082
 IR Inten    --      0.5357                 1.3492                 1.4322

                      7                      8                      9
                      A                      A                      A
 Frequencies --     78.0862                93.5603               138.7184
 Red. masses --      5.6653                 4.9284                 5.3143
 Frc consts  --      0.0204                 0.0254                 0.0603
 IR Inten    --      0.7778                 1.1314                 2.5954

                     10                     11                     12
                      A                      A                      A
 Frequencies --    156.0330               211.1842               222.3457
 Red. masses --      4.0162                 4.0154                 4.1555
 Frc consts  --      0.0576                 0.1055                 0.1210
 IR Inten    --      7.2901                 1.7531                 2.7498

                     13                     14                     15
                      A                      A                      A
 Frequencies --    243.3979               254.2486               267.6364
 Red. masses --      2.7955                 4.0660                 2.6614
 Frc consts  --      0.0976                 0.1549                 0.1123
 IR Inten    --     29.8124                 9.9731                 1.0827

                     16                     17                     18
                      A                      A                      A
 Frequencies --    302.1424               312.3400               347.4829
 Red. masses --      4.1050                 1.5301                 4.2029
 Frc consts  --      0.2208                 0.0879                 0.2990
 IR Inten    --     10.7434                39.1783                 3.6922

                     19                     20                     21
                      A                      A                      A
 Frequencies --    372.5946               451.6673               489.3554
 Red. masses --      3.1401                 3.3273                 2.4793
 Frc consts  --      0.2568                 0.3999                 0.3498
 IR Inten    --      1.4954                 5.0706                 9.8380

                     22                     23                     24
                      A                      A                      A
 Frequencies --    502.0430               531.0842               545.2441
 Red. masses --      3.5725                 3.4791                 3.2767
 Frc consts  --      0.5305                 0.5782                 0.5739
 IR Inten    --     13.8660                34.1657                32.5636

                     25                     26                     27
                      A                      A                      A
 Frequencies --    566.5812               575.0940               613.4366
 Red. masses --      2.2114                 3.5415                 3.2922
 Frc consts  --      0.4183                 0.6901                 0.7299
 IR Inten    --     46.3740                 5.5557                 5.6206

                     28                     29                     30
                      A                      A                      A
 Frequencies --    621.4105               640.7879               655.6695
 Red. masses --      2.3980                 3.6319                 2.1370
 Frc consts  --      0.5456                 0.8787                 0.5413
 IR Inten    --     37.3082                38.8249                 7.3317

                     31                     32                     33
                      A                      A                      A
 Frequencies --    707.3093               753.7198               759.7638
 Red. masses --      8.1692                 3.6155                 2.8404
 Frc consts  --      2.4080                 1.2101                 0.9660
 IR Inten    --      1.9741                28.8138                29.8781

                     34                     35                     36
                      A                      A                      A
 Frequencies --    762.0834               816.7397               826.8939
 Red. masses --      2.1614                 1.1823                 1.7083
 Frc consts  --      0.7396                 0.4647                 0.6882
 IR Inten    --      2.7783                 1.3958                13.8233

                     37                     38                     39
                      A                      A                      A
 Frequencies --    838.4406               845.6116               859.0415
 Red. masses --      1.6292                 2.3721                 1.5189
 Frc consts  --      0.6748                 0.9994                 0.6604
 IR Inten    --      8.8642                 5.6600               185.4121

                     40                     41                     42
                      A                      A                      A
 Frequencies --    886.2761               911.4615               926.9637
 Red. masses --      2.2897                 2.9132                 3.0453
 Frc consts  --      1.0597                 1.4259                 1.5417
 IR Inten    --      4.5561                 1.2079                 1.0058

                     43                     44                     45
                      A                      A                      A
 Frequencies --    945.9679               956.4182               972.9052
 Red. masses --      4.1058                 3.6366                 1.6519
 Frc consts  --      2.1647                 1.9600                 0.9212
 IR Inten    --     18.1404                51.3752                52.8516

                     46                     47                     48
                      A                      A                      A
 Frequencies --   1056.4972              1074.6718              1082.7395
 Red. masses --      1.9205                 1.2505                 3.2375
 Frc consts  --      1.2630                 0.8509                 2.2362
 IR Inten    --     17.3278                 3.4179                12.8853

                     49                     50                     51
                      A                      A                      A
 Frequencies --   1099.9888              1107.3292              1119.3132
 Red. masses --      1.3475                 1.7639                 1.4252
 Frc consts  --      0.9607                 1.2743                 1.0520
 IR Inten    --      2.5583                 4.9183                 2.2800

                     52                     53                     54
                      A                      A                      A
 Frequencies --   1131.9553              1149.2670              1173.0385
 Red. masses --      1.1183                 2.1308                 2.2819
 Frc consts  --      0.8443                 1.6582                 1.8500
 IR Inten    --      1.5615                20.8118                13.7573

                     55                     56                     57
                      A                      A                      A
 Frequencies --   1178.9449              1212.2244              1222.8655
 Red. masses --      1.5260                 3.1573                 1.3473
 Frc consts  --      1.2497                 2.7336                 1.1870
 IR Inten    --      2.2320                51.1048                 0.0501

                     58                     59                     60
                      A                      A                      A
 Frequencies --   1242.3538              1254.4401              1311.9527
 Red. masses --      2.1406                 1.6108                 2.0672
 Frc consts  --      1.9466                 1.4934                 2.0964
 IR Inten    --      0.9809               133.2316                 8.8192

                     61                     62                     63
                      A                      A                      A
 Frequencies --   1315.2347              1318.1861              1335.1780
 Red. masses --      1.6365                 1.2901                 1.6978
 Frc consts  --      1.6679                 1.3207                 1.7832
 IR Inten    --    134.5566                 4.9823                39.3455

                     64                     65                     66
                      A                      A                      A
 Frequencies --   1389.8806              1400.9282              1421.4886
 Red. masses --      2.1808                 1.3671                 1.4408
 Frc consts  --      2.4822                 1.5809                 1.7153
 IR Inten    --    202.4358                 3.3646                30.0986

                     67                     68                     69
                      A                      A                      A
 Frequencies --   1429.1678              1465.8240              1477.9677
 Red. masses --      1.6722                 1.7012                 1.0913
 Frc consts  --      2.0124                 2.1536                 1.4045
 IR Inten    --     15.5179               112.7821                 2.5839

                     70                     71                     72
                      A                      A                      A
 Frequencies --   1485.4789              1501.5869              1508.5896
 Red. masses --      1.7803                 1.5437                 1.2758
 Frc consts  --      2.3145                 2.0507                 1.7107
 IR Inten    --     82.2337                93.7709                21.1465

                     73                     74                     75
                      A                      A                      A
 Frequencies --   1518.2162              1519.9261              1529.3307
 Red. masses --      1.4460                 1.0833                 1.1338
 Frc consts  --      1.9638                 1.4745                 1.5624
 IR Inten    --     15.8889                 2.2365                36.0556

                     76                     77                     78
                      A                      A                      A
 Frequencies --   1545.3782              1574.6406              1698.5724
 Red. masses --      5.6091                 9.6598                 1.0929
 Frc consts  --      7.8924                14.1117                 1.8579
 IR Inten    --    119.8801                36.7360                37.0583

                     79                     80                     81
                      A                      A                      A
 Frequencies --   1755.7503              1773.6727              3000.7554
 Red. masses --      7.6649                 7.6738                 1.0686
 Frc consts  --     13.9213                14.2236                 5.6692
 IR Inten    --    293.1382               323.2631                43.4843

                     82                     83                     84
                      A                      A                      A
 Frequencies --   3063.5864              3074.3579              3079.0266
 Red. masses --      1.0932                 1.0677                 1.0676
 Frc consts  --      6.0453                 5.9456                 5.9634
 IR Inten    --     14.9006                20.5486                35.7480

                     85                     86                     87
                      A                      A                      A
 Frequencies --   3142.1534              3156.5369              3159.5230
 Red. masses --      1.0980                 1.0524                 1.0976
 Frc consts  --      6.3869                 6.1783                 6.4559
 IR Inten    --     20.9146                14.0601                14.4692

                     88                     89                     90
                      A                      A                      A
 Frequencies --   3161.0646              3202.1719              3242.9952
 Red. masses --      1.0566                 1.0895                 1.1195
 Frc consts  --      6.2205                 6.5821                 6.9366
 IR Inten    --     14.5163                14.2328                 1.2194

                     91                     92                     93
                      A                      A                      A
 Frequencies --   3257.0182              3299.7192              3492.2057
 Red. masses --      1.1167                 1.0943                 1.0502
 Frc consts  --      6.9797                 7.0201                 7.5460
 IR Inten    --      6.8466                 7.3748                 0.3221

                     94                     95                     96
                      A                      A                      A
 Frequencies --   3582.0126              3595.8613              3601.2687
 Red. masses --      1.0935                 1.0759                 1.0759
 Frc consts  --      8.2664                 8.1967                 8.2209
 IR Inten    --      1.1996                21.7233                31.6240

 - Thermochemistry -
 -------------------
 Temperature   298.150 Kelvin.  Pressure   1.00000 Atm.
 Atom     1 has atomic number  6 and mass  12.00000

 Molecular mass:   268.09940 amu.
 Principal axes and moments of inertia in atomic units:
                           1         2         3
     Eigenvalues --  2361.54265********************
           X            0.99997  -0.00430  -0.00584
           Y            0.00427   0.99998  -0.00530
           Z            0.00586   0.00528   0.99997
 This molecule is an asymmetric top.
 Rotational symmetry number  1.
 Warning -- assumption of classical behavior for rotation
           may cause significant error
 Rotational temperatures (Kelvin)      0.03668     0.00746     0.00660
 Rotational constants (GHZ):           0.76422     0.15551     0.13753
 Zero-point vibrational energy     727825.7 (Joules/Mol)
                                  173.95452 (Kcal/Mol)
 Warning -- explicit consideration of  27 degrees of freedom as
           vibrations may cause significant error
 Vibrational temperatures:     20.76    30.57    42.75    64.60    74.11
          (Kelvin)             95.79   112.35   134.61   199.58   224.50
                              303.85   319.91   350.20   365.81   385.07
                              434.72   449.39   499.95   536.08   649.85
                              704.07   722.33   764.11   784.48   815.18
                              827.43   882.60   894.07   921.95   943.36
                             1017.66  1084.43  1093.13  1096.47  1175.11
                             1189.72  1206.33  1216.65  1235.97  1275.15
                             1311.39  1333.69  1361.04  1376.07  1399.79
                             1520.06  1546.21  1557.82  1582.64  1593.20
                             1610.44  1628.63  1653.54  1687.74  1696.24
                             1744.12  1759.43  1787.47  1804.86  1887.61
                             1892.33  1896.58  1921.02  1999.73  2015.62
                             2045.21  2056.25  2108.99  2126.47  2137.27
                             2160.45  2170.52  2184.37  2186.83  2200.37
                             2223.45  2265.56  2443.87  2526.13  2551.92
                             4317.42  4407.82  4423.32  4430.03  4520.86
                             4541.55  4545.85  4548.07  4607.21  4665.95
                             4686.12  4747.56  5024.51  5153.72  5173.64
                             5181.42

 Zero-point correction=                           0.277214 (Hartree/Particle)
 Thermal correction to Energy=                    0.295530
 Thermal correction to Enthalpy=                  0.296474
 Thermal correction to Gibbs Free Energy=         0.226561
 Sum of electronic and zero-point Energies=          -1196.218748
 Sum of electronic and thermal Energies=             -1196.200432
 Sum of electronic and thermal Enthalpies=           -1196.199488
 Sum of electronic and thermal Free Energies=        -1196.269401

                     E (Thermal)             CV                S
                      KCal/Mol        Cal/Mol-Kelvin    Cal/Mol-Kelvin
 Total                  185.448             67.012            147.145
 Electronic               0.000              0.000              0.000
 Translational            0.889              2.981             42.658
 Rotational               0.889              2.981             34.241
 Vibrational            183.670             61.050             70.246
 Vibration     1          0.593              1.986              7.282
 Vibration     2          0.593              1.985              6.514
 Vibration     3          0.593              1.984              5.849
 Vibration     4          0.595              1.979              5.030
 Vibration     5          0.596              1.977              4.758
 Vibration     6          0.598              1.970              4.252
 Vibration     7          0.599              1.964              3.938
 Vibration     8          0.603              1.954              3.584
 Vibration     9          0.614              1.915              2.821
 Vibration    10          0.620              1.896              2.597
 Vibration    11          0.643              1.824              2.033
 Vibration    12          0.648              1.807              1.940
 Vibration    13          0.659              1.774              1.778
 Vibration    14          0.665              1.756              1.701
 Vibration    15          0.673              1.733              1.611
 Vibration    16          0.694              1.670              1.405
 Vibration    17          0.701              1.650              1.350
 Vibration    18          0.725              1.580              1.178
 Vibration    19          0.744              1.528              1.069
 Vibration    20          0.810              1.357              0.791
 Vibration    21          0.845              1.274              0.685
 Vibration    22          0.857              1.245              0.653
 Vibration    23          0.886              1.181              0.585
 Vibration    24          0.900              1.150              0.554
 Vibration    25          0.922              1.104              0.511
 Vibration    26          0.931              1.085              0.495
 Vibration    27          0.973              1.003              0.427

                           ! Non-Optimized Parameters !
 Normal termination of Gaussian 16 at Fri Dec 11 20:22:52 2020.

 ----------------------------------------------------------------------
 # B3LYP/6-311++G(d,p) empiricaldispersion=gd3bj scf=xqc pop=npa geom=c
 heck
 ----------------------------------------------------------------------

 ---------------------------------------
 CID_115738041_JID_8315_Energie_neutraal
 ---------------------------------------
 Structure from the checkpoint file:  "JID_8315.chk"
 Charge =  0 Multiplicity = 1

 SCF Done:  E(RB3LYP) =  -1196.76089936     A.U. after   16 cycles
 Normal termination of Gaussian 16 at Fri Dec 11 20:27:57 2020.

 ----------------------------------------------------------------------
 # B3LYP/6-311++G(d,p) empiricaldispersion=gd3bj scf=xqc pop=npa geom=c
 heck
 ----------------------------------------------------------------------

 -------------------------------------
 CID_115738041_JID_8315_Energie_kation
 -------------------------------------
 Structure from the checkpoint file:  "JID_8315.chk"
 Charge =  1 Multiplicity = 2

 SCF Done:  E(UB3LYP) =  -1196.45270131     A.U. after   33 cycles
 SCF Done:  E(UB3LYP) =  -1196.45270138     a.u. after    2 cycles
 Normal termination of Gaussian 16 at Fri Dec 11 20:56:35 2020.
 Gaussian 16:  ES64L-G16RevA.03 25-Dec-2016

 ----------------------------------------------------------------------
 # B3LYP/6-311++G(d,p) empiricaldispersion=gd3bj scf=xqc pop=npa geom=c
 heck
 ----------------------------------------------------------------------

 ------------------------------------
 CID_115738041_JID_8315_Energie_anion
 ------------------------------------
 Structure from the checkpoint file:  "JID_8315.chk"
 Charge = -1 Multiplicity = 2

                         Standard orientation:
 ---------------------------------------------------------------------
 Center     Atomic      Atomic             Coordinates (Angstroms)
 Number     Number       Type             X           Y           Z
 ---------------------------------------------------------------------
      1          6           0        5.648482    1.333919   -0.254611
      2          6           0        5.194791    0.314012   -1.246085
      3          6           0        4.180848    0.957102   -0.309777
      4          6           0        3.672550    0.092613    0.801296
      5          8           0        4.415475   -0.678875    1.403416
      6          7           0        2.346133    0.200553    1.137913
      7          6           0        1.280688    0.811759    0.357237
      8          6           0        0.911780    0.017019   -0.904314
      9          7           0        0.537913   -1.360570   -0.614261
     10          6           0       -0.666863   -1.923779   -0.289828
     11          8           0       -0.764097   -3.138914   -0.126141
     12          6           0       -1.879141   -1.064141   -0.135736
     13          6           0       -3.117423   -1.634648    0.005756
     14         16           0       -4.331580   -0.422245    0.185967
     15          6           0       -3.067030    0.797429    0.072190
     16          7           0       -1.870210    0.319317   -0.098174
     17          6           0       -3.403703    2.255010    0.209684
     18          7           0       -4.799689    2.483451   -0.155803
     19          1           0        5.918956    2.324495   -0.607590
     20          1           0        6.189802    0.975627    0.614426
     21          1           0        5.145219    0.584489   -2.296720
     22          1           0        5.436577   -0.723254   -1.038096
     23          1           0        3.502847    1.681967   -0.745701
     24          1           0        2.070368   -0.482391    1.833016
     25          1           0        0.396088    0.883727    0.993277
     26          1           0        1.556085    1.835017    0.079799
     27          1           0        0.096495    0.522398   -1.422259
     28          1           0        1.774182   -0.022336   -1.578190
     29          1           0        1.275104   -2.054101   -0.634742
     30          1           0       -3.337921   -2.691683    0.000144
     31          1           0       -3.282543    2.545081    1.261414
     32          1           0       -2.657241    2.826329   -0.364940
     33          1           0       -5.105759    3.400897    0.156838
     34          1           0       -4.912904    2.454935   -1.166945
 ---------------------------------------------------------------------

 SCF Done:  E(UB3LYP) =  -1196.76407422     A.U. after   33 cycles
 SCF Done:  E(UB3LYP) =  -1196.76407422     a.u. after    1 cycles

 The electronic state is 2-A.
 Alpha  occ. eigenvalues --  -88.75146 -19.00362 -18.96662 -14.25226 -14.22965
 Alpha  occ. eigenvalues --  -14.19998 -14.19619 -10.19246 -10.15692 -10.12070
 Alpha  occ. eigenvalues --  -10.11581 -10.11372 -10.10842 -10.10700 -10.10494
 Alpha  occ. eigenvalues --  -10.10322 -10.08204 -10.06298  -7.83784  -5.80048
 Alpha  occ. eigenvalues --   -5.79694  -5.79444  -0.95614  -0.92205  -0.84699
 Alpha  occ. eigenvalues --   -0.84350  -0.81030  -0.79138  -0.78915  -0.67504
 Alpha  occ. eigenvalues --   -0.66173  -0.64521  -0.59265  -0.57404  -0.55821
 Alpha  occ. eigenvalues --   -0.53284  -0.50871  -0.47461  -0.45241  -0.44856
 Alpha  occ. eigenvalues --   -0.43945  -0.41103  -0.40190  -0.39585  -0.39105
 Alpha  occ. eigenvalues --   -0.37805  -0.37239  -0.36055  -0.35595  -0.33029
 Alpha  occ. eigenvalues --   -0.32695  -0.32423  -0.31203  -0.30076  -0.29559
 Alpha  occ. eigenvalues --   -0.28992  -0.28408  -0.28311  -0.27420  -0.25955
 Alpha  occ. eigenvalues --   -0.24542  -0.23901  -0.22187  -0.18370  -0.17641
 Alpha  occ. eigenvalues --   -0.16903  -0.16667  -0.15517  -0.14856  -0.14533
 Alpha  occ. eigenvalues --   -0.12553   0.03758
 Alpha virt. eigenvalues --    0.04867   0.06039   0.07014   0.07594   0.08248
 Alpha virt. eigenvalues --    0.08500   0.09039   0.09700   0.09803   0.10315
 Alpha virt. eigenvalues --    0.10530   0.10946   0.11006   0.12122   0.12194

  Beta  occ. eigenvalues --  -88.75089 -19.00361 -18.96620 -14.25226 -14.22941
  Beta  occ. eigenvalues --  -14.19945 -14.19644 -10.19246 -10.15605 -10.12066
  Beta  occ. eigenvalues --  -10.11578 -10.11366 -10.10690 -10.10657 -10.10485
  Beta  occ. eigenvalues --  -10.10322 -10.08233 -10.05905  -7.83732  -5.80024
  Beta  occ. eigenvalues --   -5.79671  -5.79252  -0.95612  -0.92100  -0.84598
  Beta  occ. eigenvalues --   -0.84310  -0.80973  -0.79124  -0.78813  -0.67113
  Beta  occ. eigenvalues --   -0.66141  -0.64250  -0.59249  -0.57271  -0.55768
  Beta  occ. eigenvalues --   -0.53256  -0.50524  -0.47436  -0.45177  -0.44628
  Beta  occ. eigenvalues --   -0.43796  -0.41059  -0.40136  -0.39473  -0.39076
  Beta  occ. eigenvalues --   -0.37676  -0.37180  -0.35918  -0.35567  -0.32873
  Beta  occ. eigenvalues --   -0.32629  -0.32348  -0.30972  -0.29992  -0.29486
  Beta  occ. eigenvalues --   -0.28826  -0.28356  -0.28197  -0.27247  -0.25562
  Beta  occ. eigenvalues --   -0.24223  -0.23886  -0.22175  -0.18351  -0.17616
  Beta  occ. eigenvalues --   -0.16629  -0.16034  -0.15392  -0.14691  -0.14463
  Beta  occ. eigenvalues --   -0.11360
  Beta virt. eigenvalues --    0.05394   0.06559   0.07108   0.07567   0.08282
  Beta virt. eigenvalues --    0.08390   0.08547   0.09409   0.09652   0.09919
  Beta virt. eigenvalues --    0.10586   0.10812   0.10982   0.11253   0.12106

 Mulliken charges and spin densities:
               1          2
     1  C   -0.119970  -0.329404
     2  C   -0.144427  -0.342246
     3  C    0.187958   0.318657
     4  C   -0.206385  -0.129716
     5  O   -0.360756  -0.003387
     6  N   -0.074391   0.004717
     7  C   -0.469113  -0.051500
     8  C   -0.216559  -0.020880
     9  N   -0.246048   0.003522
    10  C   -0.376419   0.070261
    11  O   -0.390612   0.017027
    12  C   -0.676574  -0.032573
    13  C    0.323007   0.364092
    14  S   -0.443999   0.023556
    15  C   -0.299581   0.575860
    16  N    0.172465   0.001942
    17  C    1.061251  -1.261807
    18  N   -0.367466   0.023498
    19  H   -0.071956   0.214730
    20  H    0.163876   0.012592
    21  H   -0.044088   0.193687
    22  H    0.157814   0.019186
    23  H    0.012944   0.238315
    24  H    0.304142  -0.002528
    25  H    0.292561  -0.008400
    26  H    0.117759  -0.000873
    27  H    0.236841   0.026338
    28  H    0.153061   0.015539
    29  H    0.336445   0.003469
    30  H    0.276445  -0.015386
    31  H   -0.266454   0.470907
    32  H    0.080432   0.050774
    33  H   -0.188700   0.425746
    34  H    0.086499   0.124286
 Sum of Mulliken charges =  -1.00000   1.00000

 Dipole moment (field-independent basis, Debye):
    X=              5.3265    Y=              1.0945    Z=             -2.2040  Tot=              5.8675
 Quadrupole moment (field-independent basis, Debye-Ang):
   XX=           -217.0331   YY=           -161.9157   ZZ=           -132.7236
   XY=             14.5899   XZ=              3.0859   YZ=             -0.7638

 Summary of Natural Population Analysis:

                                       Natural Population
                Natural  -----------------------------------------------
    Atom  No    Charge         Core      Valence    Rydberg      Total
 -----------------------------------------------------------------------
      C    1   -0.18891      0.99963     2.18077    0.00851     3.18891
      C    2   -0.18831      0.99963     2.18032    0.00836     3.18831
      C    3   -0.16621      0.99955     2.15627    0.01039     3.16621
      C    4    0.33874      0.99965     1.63838    0.02323     2.66126
      O    5   -0.33415      0.99988     3.32878    0.00549     4.33415
      N    6   -0.31585      0.99967     2.80658    0.00960     3.81585
      C    7   -0.09815      0.99961     2.08814    0.01039     3.09815
      C    8   -0.09767      0.99962     2.08655    0.01150     3.09767
      N    9   -0.32094      0.99968     2.81050    0.01076     3.82094
      C   10    0.34255      0.99961     1.63713    0.02070     2.65745
      O   11   -0.33186      0.99988     3.32624    0.00574     4.33186
      C   12   -0.01287      0.99942     1.99861    0.01484     3.01287
      C   13   -0.10375      0.99950     2.09484    0.00942     3.10375
      S   14    0.21541      4.99942     2.76399    0.02118     7.78459
      C   15    0.05986      0.99962     1.92117    0.01935     2.94014
      N   16   -0.26966      0.99963     2.75862    0.01141     3.76966
      C   17   -0.11126      0.99956     2.09843    0.01327     3.11126
      N   18   -0.41841      0.99977     2.90776    0.01087     3.91841
      H   19    0.10298      0.00000     0.39612    0.00089     0.39702
      H   20    0.11242      0.00000     0.38657    0.00101     0.38758
      H   21    0.10339      0.00000     0.39565    0.00097     0.39661
      H   22    0.11033      0.00000     0.38870    0.00097     0.38967
      H   23    0.11021      0.00000     0.38847    0.00132     0.38979
      H   24    0.19688      0.00000     0.30158    0.00154     0.30312
      H   25    0.11494      0.00000     0.38405    0.00100     0.38506
      H   26    0.09335      0.00000     0.40542    0.00123     0.40665
      H   27    0.11469      0.00000     0.38440    0.00091     0.38531
      H   28    0.09250      0.00000     0.40642    0.00108     0.40750
      H   29    0.19182      0.00000     0.30666    0.00152     0.30818
      H   30    0.11280      0.00000     0.38636    0.00083     0.38720
      H   31    0.10332      0.00000     0.39444    0.00224     0.39668
      H   32    0.08869      0.00000     0.40958    0.00173     0.41131
      H   33    0.17953      0.00000     0.31586    0.00460     0.32047
      H   34    0.17356      0.00000     0.32483    0.00161     0.32644
 =======================================================================
   * Total *   -0.00000     21.99333    48.75819    0.24848    71.00000

 Normal termination of Gaussian 16 at Fri Dec 11 21:11:08 2020.
