 Gaussian 16, Revision A.03,

 -----------------------------------------------------------
 # opt freq B3LYP/6-31G(d) empiricaldispersion=gd3bj scf=xqc
 -----------------------------------------------------------

 -----------------------------
 CID_81873714_JID_123_neutraal
 -----------------------------
 Symbolic Z-matrix:
 Charge =  0 Multiplicity = 1

 SCF Done:  E(RB3LYP) =  -482.188056867     A.U. after   13 cycles
 SCF Done:  E(RB3LYP) =  -482.192374872     A.U. after   11 cycles
 SCF Done:  E(RB3LYP) =  -482.193761776     A.U. after   11 cycles
 SCF Done:  E(RB3LYP) =  -482.195095943     A.U. after   13 cycles
 SCF Done:  E(RB3LYP) =  -482.195485572     A.U. after   10 cycles
 SCF Done:  E(RB3LYP) =  -482.195569156     A.U. after   10 cycles
 SCF Done:  E(RB3LYP) =  -482.195597284     A.U. after   10 cycles
 SCF Done:  E(RB3LYP) =  -482.195620854     A.U. after   10 cycles
 SCF Done:  E(RB3LYP) =  -482.195663270     A.U. after   11 cycles
 SCF Done:  E(RB3LYP) =  -482.154425212     A.U. after   12 cycles
 SCF Done:  E(RB3LYP) =  -482.197007431     A.U. after   11 cycles
 SCF Done:  E(RB3LYP) =  -482.197039572     A.U. after    9 cycles
 SCF Done:  E(RB3LYP) =  -482.197051868     A.U. after    9 cycles
 SCF Done:  E(RB3LYP) =  -482.197055482     A.U. after    8 cycles
 SCF Done:  E(RB3LYP) =  -482.197056141     A.U. after    7 cycles
 SCF Done:  E(RB3LYP) =  -482.197056316     A.U. after    7 cycles
 Optimization completed.
    -- Stationary point found.
 Normal termination of Gaussian 16 at Tue Dec  8 10:21:53 2020.

 --------------------------------------------------------------------
 #N Geom=AllCheck Guess=TCheck SCRF=Check GenChk RB3LYP/6-31G(d) Freq
 --------------------------------------------------------------------

 Structure from the checkpoint file:  "JID_123.chk"
 -----------------------------
 CID_81873714_JID_123_neutraal
 -----------------------------
 Charge =  0 Multiplicity = 1

 SCF Done:  E(RB3LYP) =  -482.197056316     A.U. after    1 cycles

  Exact polarizability: 102.097   1.315  85.502  -0.896   0.510  78.982
 Approx polarizability: 118.947   3.553 117.730  -0.478  -2.018 116.524

                      1                      2                      3
                      A                      A                      A
 Frequencies --     23.4144                67.1543                89.6423
 Red. masses --      2.9874                 2.6905                 2.7131
 Frc consts  --      0.0010                 0.0071                 0.0128
 IR Inten    --      0.4218                 0.3651                 0.8258

                      4                      5                      6
                      A                      A                      A
 Frequencies --    106.6567               149.1697               164.8585
 Red. masses --      2.4610                 2.7493                 1.8103
 Frc consts  --      0.0165                 0.0360                 0.0290
 IR Inten    --      2.3613                 2.3580                 6.8580

                      7                      8                      9
                      A                      A                      A
 Frequencies --    222.4556               231.5849               252.2057
 Red. masses --      1.7861                 1.3752                 1.6005
 Frc consts  --      0.0521                 0.0435                 0.0600
 IR Inten    --      0.1412                 2.7432                 8.6977

                     10                     11                     12
                      A                      A                      A
 Frequencies --    263.1447               301.1578               332.1798
 Red. masses --      1.6898                 1.6017                 2.4818
 Frc consts  --      0.0689                 0.0856                 0.1613
 IR Inten    --     34.4086                 8.2473                 0.4312

                     13                     14                     15
                      A                      A                      A
 Frequencies --    359.3622               383.6548               444.0317
 Red. masses --      2.3872                 2.8480                 3.1322
 Frc consts  --      0.1816                 0.2470                 0.3639
 IR Inten    --      2.7901                 0.6243                20.7959

                     16                     17                     18
                      A                      A                      A
 Frequencies --    455.8495               469.6053               542.1178
 Red. masses --      3.2728                 1.1457                 2.7019
 Frc consts  --      0.4007                 0.1489                 0.4679
 IR Inten    --      7.4522                87.4839                34.3298

                     19                     20                     21
                      A                      A                      A
 Frequencies --    616.6597               749.5154               799.8430
 Red. masses --      2.9425                 3.0234                 1.2121
 Frc consts  --      0.6593                 1.0007                 0.4569
 IR Inten    --     12.6767                 2.7034                 6.7132

                     22                     23                     24
                      A                      A                      A
 Frequencies --    812.0042               875.0715               898.6133
 Red. masses --      1.1189                 1.3358                 2.4117
 Frc consts  --      0.4347                 0.6027                 1.1474
 IR Inten    --      0.9768                69.1466                22.8030

                     25                     26                     27
                      A                      A                      A
 Frequencies --    933.7484               960.5972              1001.4963
 Red. masses --      1.9436                 1.7226                 2.2442
 Frc consts  --      0.9984                 0.9365                 1.3262
 IR Inten    --     15.5438                13.3534                74.4584

                     28                     29                     30
                      A                      A                      A
 Frequencies --   1012.9337              1031.3311              1075.7555
 Red. masses --      1.6066                 2.3780                 2.5880
 Frc consts  --      0.9712                 1.4903                 1.7646
 IR Inten    --      2.7022                 8.1493                 5.7904

                     31                     32                     33
                      A                      A                      A
 Frequencies --   1089.1109              1100.8898              1119.1451
 Red. masses --      2.5280                 2.2507                 1.4610
 Frc consts  --      1.7667                 1.6071                 1.0782
 IR Inten    --     16.3004                31.1589                26.2206

                     34                     35                     36
                      A                      A                      A
 Frequencies --   1161.3315              1185.3696              1197.4247
 Red. masses --      3.0990                 1.7887                 2.5452
 Frc consts  --      2.4625                 1.4808                 2.1501
 IR Inten    --    150.1013                37.5826                47.7053

                     37                     38                     39
                      A                      A                      A
 Frequencies --   1218.2022              1235.7662              1300.3443
 Red. masses --      1.9492                 1.3255                 1.2170
 Frc consts  --      1.7043                 1.1926                 1.2124
 IR Inten    --     14.6282                 6.3524                 9.7971

                     40                     41                     42
                      A                      A                      A
 Frequencies --   1314.1561              1338.8488              1345.8656
 Red. masses --      1.4620                 1.1484                 1.2353
 Frc consts  --      1.4876                 1.2129                 1.3183
 IR Inten    --     22.8557                17.1186                 7.1513

                     43                     44                     45
                      A                      A                      A
 Frequencies --   1382.5328              1397.9405              1422.8741
 Red. masses --      1.4799                 1.3487                 1.2547
 Frc consts  --      1.6666                 1.5529                 1.4967
 IR Inten    --     25.2167                27.9717                 2.7402

                     46                     47                     48
                      A                      A                      A
 Frequencies --   1434.3048              1441.3791              1442.4121
 Red. masses --      1.2690                 1.3832                 1.3016
 Frc consts  --      1.5381                 1.6931                 1.5955
 IR Inten    --      1.8269                 2.4773                34.4633

                     49                     50                     51
                      A                      A                      A
 Frequencies --   1465.0993              1518.6803              1520.9714
 Red. masses --      1.7444                 1.0504                 1.0561
 Frc consts  --      2.2061                 1.4273                 1.4394
 IR Inten    --     24.3139                 4.4904                 1.1933

                     52                     53                     54
                      A                      A                      A
 Frequencies --   1522.3224              1529.8098              1533.7420
 Red. masses --      1.0585                 1.0625                 1.0750
 Frc consts  --      1.4453                 1.4651                 1.4899
 IR Inten    --      1.3871                 1.9068                 1.7949

                     55                     56                     57
                      A                      A                      A
 Frequencies --   1540.8797              1546.3876              1548.5369
 Red. masses --      1.0660                 1.0811                 1.0739
 Frc consts  --      1.4912                 1.5232                 1.5173
 IR Inten    --     10.3925                 4.9325                 3.5708

                     58                     59                     60
                      A                      A                      A
 Frequencies --   1699.3707              3005.5710              3006.4047
 Red. masses --      1.0876                 1.0707                 1.0689
 Frc consts  --      1.8506                 5.6985                 5.6924
 IR Inten    --     30.6501                57.3968                51.3852

                     61                     62                     63
                      A                      A                      A
 Frequencies --   3024.2768              3046.2838              3049.4323
 Red. masses --      1.0585                 1.0594                 1.0449
 Frc consts  --      5.7042                 5.7924                 5.7251
 IR Inten    --     26.1120                33.6040                23.6690

                     64                     65                     66
                      A                      A                      A
 Frequencies --   3056.6748              3075.2849              3088.3569
 Red. masses --      1.0363                 1.1028                 1.0970
 Frc consts  --      5.7049                 6.1451                 6.1648
 IR Inten    --     14.0186                32.2343                11.7734

                     67                     68                     69
                      A                      A                      A
 Frequencies --   3091.0493              3091.4631              3110.2148
 Red. masses --      1.0943                 1.0933                 1.0999
 Frc consts  --      6.1602                 6.1564                 6.2690
 IR Inten    --     41.4376                27.7420                53.3644

                     70                     71                     72
                      A                      A                      A
 Frequencies --   3124.2720              3134.8711              3136.3265
 Red. masses --      1.1013                 1.1035                 1.1013
 Frc consts  --      6.3338                 6.3892                 6.3826
 IR Inten    --     36.8819                39.4582                23.0861

                     73                     74                     75
                      A                      A                      A
 Frequencies --   3474.1001              3557.2068              3701.7959
 Red. masses --      1.0502                 1.0921                 1.0651
 Frc consts  --      7.4680                 8.1422                 8.5993
 IR Inten    --      1.2195                 0.1037                46.3141

 - Thermochemistry -
 -------------------
 Temperature   298.150 Kelvin.  Pressure   1.00000 Atm.
 Atom     1 has atomic number  6 and mass  12.00000

 Molecular mass:   147.12593 amu.
 Principal axes and moments of inertia in atomic units:
                           1         2         3
     Eigenvalues --   896.613502517.305282816.06781
           X            0.99989  -0.01310  -0.00625
           Y            0.01331   0.99930   0.03491
           Z            0.00579  -0.03499   0.99937
 This molecule is an asymmetric top.
 Rotational symmetry number  1.
 Warning -- assumption of classical behavior for rotation
           may cause significant error
 Rotational temperatures (Kelvin)      0.09660     0.03441     0.03076
 Rotational constants (GHZ):           2.01284     0.71693     0.64087
 Zero-point vibrational energy     645702.9 (Joules/Mol)
                                  154.32670 (Kcal/Mol)
 Warning -- explicit consideration of  19 degrees of freedom as
           vibrations may cause significant error
 Vibrational temperatures:     33.69    96.62   128.98   153.46   214.62
          (Kelvin)            237.19   320.06   333.20   362.87   378.61
                              433.30   477.93   517.04   551.99   638.86
                              655.87   675.66   779.99   887.24  1078.39
                             1150.80  1168.29  1259.03  1292.90  1343.46
                             1382.09  1440.93  1457.39  1483.86  1547.77
                             1566.99  1583.93  1610.20  1670.90  1705.48
                             1722.83  1752.72  1777.99  1870.91  1890.78
                             1926.30  1936.40  1989.16  2011.32  2047.20
                             2063.64  2073.82  2075.31  2107.95  2185.04
                             2188.34  2190.28  2201.06  2206.71  2216.98
                             2224.91  2228.00  2445.02  4324.35  4325.55
                             4351.26  4382.92  4387.45  4397.87  4424.65
                             4443.46  4447.33  4447.93  4474.91  4495.13
                             4510.38  4512.47  4998.46  5118.03  5326.06

 Zero-point correction=                           0.245935 (Hartree/Particle)
 Thermal correction to Energy=                    0.258653
 Thermal correction to Enthalpy=                  0.259597
 Thermal correction to Gibbs Free Energy=         0.206704
 Sum of electronic and zero-point Energies=           -481.951121
 Sum of electronic and thermal Energies=              -481.938403
 Sum of electronic and thermal Enthalpies=            -481.937459
 Sum of electronic and thermal Free Energies=         -481.990352

                     E (Thermal)             CV                S
                      KCal/Mol        Cal/Mol-Kelvin    Cal/Mol-Kelvin
 Total                  162.307             46.221            111.323
 Electronic               0.000              0.000              0.000
 Translational            0.889              2.981             40.869
 Rotational               0.889              2.981             30.231
 Vibrational            160.530             40.259             40.223
 Vibration     1          0.593              1.985              6.321
 Vibration     2          0.598              1.970              4.235
 Vibration     3          0.602              1.957              3.668
 Vibration     4          0.606              1.944              3.329
 Vibration     5          0.618              1.904              2.683
 Vibration     6          0.623              1.886              2.493
 Vibration     7          0.648              1.807              1.939
 Vibration     8          0.653              1.793              1.867
 Vibration     9          0.664              1.759              1.715
 Vibration    10          0.670              1.740              1.641
 Vibration    11          0.693              1.672              1.410
 Vibration    12          0.714              1.611              1.249
 Vibration    13          0.734              1.556              1.125
 Vibration    14          0.753              1.505              1.025
 Vibration    15          0.804              1.374              0.814
 Vibration    16          0.814              1.348              0.778
 Vibration    17          0.827              1.317              0.739
 Vibration    18          0.897              1.157              0.561
 Vibration    19          0.976              0.997              0.422

                           ! Non-Optimized Parameters !
 Normal termination of Gaussian 16 at Tue Dec  8 10:26:34 2020.

 ----------------------------------------------------------------------
 # B3LYP/6-311++G(d,p) empiricaldispersion=gd3bj scf=xqc pop=npa geom=c
 heck
 ----------------------------------------------------------------------

 -------------------------------------
 CID_81873714_JID_123_Energie_neutraal
 -------------------------------------
 Structure from the checkpoint file:  "JID_123.chk"
 Charge =  0 Multiplicity = 1

 SCF Done:  E(RB3LYP) =  -482.357329327     A.U. after   13 cycles
 Normal termination of Gaussian 16 at Tue Dec  8 10:28:12 2020.

 ----------------------------------------------------------------------
 # B3LYP/6-311++G(d,p) empiricaldispersion=gd3bj scf=xqc pop=npa geom=c
 heck
 ----------------------------------------------------------------------

 -----------------------------------
 CID_81873714_JID_123_Energie_kation
 -----------------------------------
 Structure from the checkpoint file:  "JID_123.chk"
 Charge =  1 Multiplicity = 2

 SCF Done:  E(UB3LYP) =  -482.034182919     A.U. after   22 cycles
 Normal termination of Gaussian 16 at Tue Dec  8 10:32:05 2020.
 Gaussian 16:  ES64L-G16RevA.03 25-Dec-2016

 ----------------------------------------------------------------------
 # B3LYP/6-311++G(d,p) empiricaldispersion=gd3bj scf=xqc pop=npa geom=c
 heck
 ----------------------------------------------------------------------

 ----------------------------------
 CID_81873714_JID_123_Energie_anion
 ----------------------------------
 Structure from the checkpoint file:  "JID_123.chk"
 Charge = -1 Multiplicity = 2

                         Standard orientation:
 ---------------------------------------------------------------------
 Center     Atomic      Atomic             Coordinates (Angstroms)
 Number     Number       Type             X           Y           Z
 ---------------------------------------------------------------------
      1          6           0        2.652678   -1.580570   -0.252497
      2          6           0        1.322294   -0.979529   -0.709746
      3          6           0        0.705308    0.015665    0.295912
      4          6           0        1.623390    1.208412    0.586803
      5          7           0        1.941964    1.949159   -0.640050
      6          6           0       -0.654616    0.506612   -0.213600
      7          8           0       -1.520666   -0.624105   -0.219705
      8          6           0       -2.836533   -0.366136   -0.689588
      9          6           0       -3.703242    0.389185    0.314558
     10          8           0        0.504567   -0.618556    1.563412
     11          1           0        3.453061   -0.831362   -0.216639
     12          1           0        2.977719   -2.373862   -0.934393
     13          1           0        2.550392   -2.005862    0.750208
     14          1           0        1.438811   -0.477191   -1.679195
     15          1           0        0.589101   -1.778091   -0.868574
     16          1           0        1.091467    1.882145    1.266941
     17          1           0        2.500507    0.834708    1.137868
     18          1           0        2.384100    2.832948   -0.396415
     19          1           0        2.632120    1.432522   -1.182624
     20          1           0       -1.033424    1.282210    0.466643
     21          1           0       -0.567000    0.938287   -1.218841
     22          1           0       -2.787019    0.180054   -1.644764
     23          1           0       -3.268936   -1.351526   -0.892834
     24          1           0       -3.326497    1.399992    0.500362
     25          1           0       -4.727811    0.478736   -0.064321
     26          1           0       -3.732859   -0.146702    1.269114
     27          1           0       -0.294354   -1.161675    1.447099
 ---------------------------------------------------------------------

 SCF Done:  E(UB3LYP) =  -482.341002458     A.U. after   27 cycles

 The electronic state is 2-A.
 Alpha  occ. eigenvalues --  -19.02869 -19.01370 -14.18707 -10.12020 -10.11953
 Alpha  occ. eigenvalues --  -10.10816 -10.08381 -10.06207 -10.05941 -10.05471
 Alpha  occ. eigenvalues --   -0.94600  -0.91384  -0.77860  -0.68459  -0.65778
 Alpha  occ. eigenvalues --   -0.62103  -0.57117  -0.53068  -0.50335  -0.45301
 Alpha  occ. eigenvalues --   -0.40779  -0.40135  -0.39546  -0.36467  -0.35282
 Alpha  occ. eigenvalues --   -0.34673  -0.33244  -0.32124  -0.30832  -0.29379
 Alpha  occ. eigenvalues --   -0.28187  -0.27586  -0.27170  -0.26027  -0.24433
 Alpha  occ. eigenvalues --   -0.23677  -0.22307  -0.21653  -0.17210  -0.16522
 Alpha  occ. eigenvalues --   -0.13938   0.04637
 Alpha virt. eigenvalues --    0.06160   0.07489   0.08548   0.08949   0.09419
 Alpha virt. eigenvalues --    0.09865   0.10533   0.11455   0.11694   0.12335
 Alpha virt. eigenvalues --    0.12909   0.13548   0.14663   0.14704   0.15170

  Beta  occ. eigenvalues --  -19.02862 -19.01367 -14.18652 -10.12020 -10.11931
  Beta  occ. eigenvalues --  -10.10803 -10.08362 -10.06168 -10.05927 -10.05445
  Beta  occ. eigenvalues --   -0.94586  -0.91375  -0.77776  -0.68424  -0.65737
  Beta  occ. eigenvalues --   -0.62057  -0.57049  -0.53005  -0.50258  -0.45259
  Beta  occ. eigenvalues --   -0.40752  -0.40094  -0.39509  -0.36431  -0.35240
  Beta  occ. eigenvalues --   -0.34640  -0.33203  -0.32067  -0.30781  -0.29336
  Beta  occ. eigenvalues --   -0.28141  -0.27552  -0.27132  -0.25990  -0.24403
  Beta  occ. eigenvalues --   -0.23654  -0.22278  -0.21632  -0.17193  -0.16496
  Beta  occ. eigenvalues --   -0.13888
  Beta virt. eigenvalues --    0.06953   0.07460   0.08211   0.08837   0.09562
  Beta virt. eigenvalues --    0.09993   0.10256   0.10926   0.11928   0.12134
  Beta virt. eigenvalues --    0.12752   0.13167   0.13735   0.14754   0.15065

 Mulliken charges and spin densities:
               1          2
     1  C    0.326190  -0.876726
     2  C   -0.669856   0.414102
     3  C    1.114279  -0.725184
     4  C    1.143025  -1.692112
     5  N   -0.556094   0.206140
     6  C   -1.125732   0.374352
     7  O   -0.170151   0.041929
     8  C   -0.174483   0.085997
     9  C    0.891923  -1.304613
    10  O   -0.192251   0.020537
    11  H   -0.255241   0.393806
    12  H   -0.209337   0.342137
    13  H    0.096306   0.062247
    14  H    0.036419   0.104792
    15  H    0.073846   0.077193
    16  H   -0.253193   0.431469
    17  H    0.094502   0.079607
    18  H   -0.353197   0.603425
    19  H   -0.078662   0.305856
    20  H    0.350361  -0.187246
    21  H    0.118476   0.075676
    22  H    0.035871   0.070233
    23  H   -0.473536   0.633480
    24  H   -0.461638   0.603985
    25  H   -0.580339   0.730437
    26  H    0.041048   0.092094
    27  H    0.231464   0.036386
 Sum of Mulliken charges =  -1.00000   1.00000

 Dipole moment (field-independent basis, Debye):
    X=              0.6389    Y=             -3.2712    Z=              1.0186  Tot=              3.4852
 Quadrupole moment (field-independent basis, Debye-Ang):
   XX=           -145.9239   YY=           -106.0015   ZZ=            -92.8786
   XY=             -6.0556   XZ=              0.4342   YZ=              0.9199

 Summary of Natural Population Analysis:

                                       Natural Population
                Natural  -----------------------------------------------
    Atom  No    Charge         Core      Valence    Rydberg      Total
 -----------------------------------------------------------------------
      C    1   -0.28997      0.99966     2.28471    0.00560     3.28997
      C    2   -0.20632      0.99958     2.19642    0.01032     3.20632
      C    3    0.11942      0.99951     1.86357    0.01749     2.88058
      C    4   -0.09420      0.99956     2.08063    0.01401     3.09420
      N    5   -0.42575      0.99977     2.91476    0.01122     3.92575
      C    6   -0.01846      0.99950     2.00693    0.01203     3.01846
      O    7   -0.31368      0.99988     3.30439    0.00942     4.31368
      C    8   -0.00562      0.99960     1.99330    0.01272     3.00562
      C    9   -0.30074      0.99967     2.29623    0.00485     3.30074
      O   10   -0.38094      0.99989     3.37502    0.00603     4.38094
      H   11    0.09621      0.00000     0.40261    0.00118     0.40379
      H   12    0.09663      0.00000     0.40258    0.00079     0.40337
      H   13    0.10279      0.00000     0.39607    0.00115     0.39721
      H   14    0.10002      0.00000     0.39881    0.00118     0.39998
      H   15    0.10346      0.00000     0.39504    0.00150     0.39654
      H   16    0.09531      0.00000     0.40335    0.00133     0.40469
      H   17    0.08714      0.00000     0.41121    0.00165     0.41286
      H   18    0.18005      0.00000     0.31565    0.00430     0.31995
      H   19    0.17500      0.00000     0.32181    0.00319     0.32500
      H   20    0.08496      0.00000     0.41344    0.00160     0.41504
      H   21    0.09285      0.00000     0.40534    0.00180     0.40715
      H   22    0.07792      0.00000     0.42073    0.00135     0.42208
      H   23    0.08799      0.00000     0.41050    0.00152     0.41201
      H   24    0.09869      0.00000     0.39998    0.00133     0.40131
      H   25    0.10366      0.00000     0.39408    0.00226     0.39634
      H   26    0.09879      0.00000     0.40005    0.00116     0.40121
      H   27    0.23480      0.00000     0.26223    0.00297     0.26520
 =======================================================================
   * Total *    0.00000      9.99663    30.86945    0.13392    41.00000

 Normal termination of Gaussian 16 at Tue Dec  8 10:43:31 2020.
