 Gaussian 16, Revision A.03,

 -----------------------------------------------------------
 # opt freq B3LYP/6-31G(d) empiricaldispersion=gd3bj scf=xqc
 -----------------------------------------------------------

 ------------------------------
 CID_91347573_JID_3884_neutraal
 ------------------------------
 Symbolic Z-matrix:
 Charge =  0 Multiplicity = 1

 SCF Done:  E(RB3LYP) =  -613.635295877     A.U. after   14 cycles
 SCF Done:  E(RB3LYP) =  -613.642297347     A.U. after   12 cycles
 SCF Done:  E(RB3LYP) =  -613.644236644     A.U. after   11 cycles
 SCF Done:  E(RB3LYP) =  -613.644765167     A.U. after   11 cycles
 SCF Done:  E(RB3LYP) =  -613.644795615     A.U. after   10 cycles
 SCF Done:  E(RB3LYP) =  -613.644827694     A.U. after   10 cycles
 SCF Done:  E(RB3LYP) =  -613.644841629     A.U. after    9 cycles
 SCF Done:  E(RB3LYP) =  -613.644850652     A.U. after   10 cycles
 SCF Done:  E(RB3LYP) =  -613.644855562     A.U. after    9 cycles
 SCF Done:  E(RB3LYP) =  -613.644858296     A.U. after    9 cycles
 SCF Done:  E(RB3LYP) =  -613.644858488     A.U. after    7 cycles
 SCF Done:  E(RB3LYP) =  -613.644858468     A.U. after    7 cycles
 SCF Done:  E(RB3LYP) =  -613.644858452     A.U. after    7 cycles
 SCF Done:  E(RB3LYP) =  -613.644858441     A.U. after    7 cycles
 SCF Done:  E(RB3LYP) =  -613.644858438     A.U. after    7 cycles
 Optimization completed.
    -- Stationary point found.
 Normal termination of Gaussian 16 at Sun Dec 13 12:22:51 2020.

 --------------------------------------------------------------------
 #N Geom=AllCheck Guess=TCheck SCRF=Check GenChk RB3LYP/6-31G(d) Freq
 --------------------------------------------------------------------

 Structure from the checkpoint file:  "JID_3884.chk"
 ------------------------------
 CID_91347573_JID_3884_neutraal
 ------------------------------
 Charge =  0 Multiplicity = 1

 SCF Done:  E(RB3LYP) =  -613.644858438     A.U. after    1 cycles

  Exact polarizability: 156.741  -3.744 104.560  -6.827   2.820  90.048
 Approx polarizability: 182.134  -9.489 160.218 -14.899   7.597 138.240

                      1                      2                      3
                      A                      A                      A
 Frequencies --     17.7519                46.0460                56.2998
 Red. masses --      4.3514                 3.8226                 4.3940
 Frc consts  --      0.0008                 0.0048                 0.0082
 IR Inten    --      0.1650                 0.6901                 1.0777

                      4                      5                      6
                      A                      A                      A
 Frequencies --     67.8316                81.4454               104.0183
 Red. masses --      3.2113                 3.2794                 2.0613
 Frc consts  --      0.0087                 0.0128                 0.0131
 IR Inten    --      0.1206                 1.1120                 4.1339

                      7                      8                      9
                      A                      A                      A
 Frequencies --    106.2139               153.9931               166.6645
 Red. masses --      3.5416                 1.6379                 1.9885
 Frc consts  --      0.0235                 0.0229                 0.0325
 IR Inten    --      3.5434                24.6404                24.1476

                     10                     11                     12
                      A                      A                      A
 Frequencies --    191.2041               225.8721               274.8647
 Red. masses --      1.8858                 3.0887                 1.5685
 Frc consts  --      0.0406                 0.0928                 0.0698
 IR Inten    --      1.8506                 0.7401                 0.0292

                     13                     14                     15
                      A                      A                      A
 Frequencies --    298.1077               338.7583               359.1069
 Red. masses --      3.0154                 2.2635                 3.4131
 Frc consts  --      0.1579                 0.1530                 0.2593
 IR Inten    --      1.8588                 0.0395                 1.7499

                     16                     17                     18
                      A                      A                      A
 Frequencies --    385.9933               440.9941               488.2522
 Red. masses --      2.2307                 2.5854                 2.3915
 Frc consts  --      0.1958                 0.2962                 0.3359
 IR Inten    --      0.9402                 1.4637                 5.8492

                     19                     20                     21
                      A                      A                      A
 Frequencies --    535.2746               582.4599               643.0464
 Red. masses --      3.2738                 2.9152                 2.2467
 Frc consts  --      0.5527                 0.5827                 0.5474
 IR Inten    --     23.5312                13.7278                14.8047

                     22                     23                     24
                      A                      A                      A
 Frequencies --    745.3577               754.0363               782.2751
 Red. masses --      1.2515                 1.7124                 3.7922
 Frc consts  --      0.4097                 0.5736                 1.3673
 IR Inten    --     12.4888                27.0927                18.4418

                     25                     26                     27
                      A                      A                      A
 Frequencies --    783.7131               847.6570               857.5993
 Red. masses --      2.0358                 3.1548                 2.0804
 Frc consts  --      0.7367                 1.3355                 0.9015
 IR Inten    --      2.2678                43.7129                 9.5702

                     28                     29                     30
                      A                      A                      A
 Frequencies --    859.6470               897.1418               937.8105
 Red. masses --      2.3808                 2.0785                 2.7921
 Frc consts  --      1.0366                 0.9856                 1.4468
 IR Inten    --     17.8426                15.9197                 5.4718

                     31                     32                     33
                      A                      A                      A
 Frequencies --    943.3980               976.2598               998.9078
 Red. masses --      3.6033                 2.3178                 1.9204
 Frc consts  --      1.8895                 1.3016                 1.1290
 IR Inten    --      5.8163                25.0842                 2.6814

                     34                     35                     36
                      A                      A                      A
 Frequencies --   1007.0189              1026.7132              1040.4434
 Red. masses --      1.7318                 1.7097                 2.3006
 Frc consts  --      1.0347                 1.0619                 1.4673
 IR Inten    --     11.9967                 9.0615                18.3827

                     37                     38                     39
                      A                      A                      A
 Frequencies --   1052.5702              1083.7551              1095.8038
 Red. masses --      2.6395                 2.1270                 2.1847
 Frc consts  --      1.7230                 1.4719                 1.5456
 IR Inten    --     44.4147                45.3465                 8.4833

                     40                     41                     42
                      A                      A                      A
 Frequencies --   1109.5398              1115.9595              1139.1888
 Red. masses --      2.4027                 1.4705                 2.0619
 Frc consts  --      1.7427                 1.0790                 1.5765
 IR Inten    --      3.4618                 5.0143                 0.2788

                     43                     44                     45
                      A                      A                      A
 Frequencies --   1204.1502              1219.4549              1242.8977
 Red. masses --      1.3778                 1.9576                 1.3463
 Frc consts  --      1.1770                 1.7152                 1.2254
 IR Inten    --      0.7815                 7.3218                 1.9227

                     46                     47                     48
                      A                      A                      A
 Frequencies --   1254.8684              1265.4807              1296.5047
 Red. masses --      1.1231                 1.5321                 1.3449
 Frc consts  --      1.0420                 1.4456                 1.3319
 IR Inten    --      5.2038                90.9197                 2.3936

                     49                     50                     51
                      A                      A                      A
 Frequencies --   1308.6986              1337.2690              1340.7887
 Red. masses --      1.4699                 1.1311                 1.1739
 Frc consts  --      1.4833                 1.1917                 1.2434
 IR Inten    --      3.8843                 1.3475                 1.7779

                     52                     53                     54
                      A                      A                      A
 Frequencies --   1354.3876              1372.2115              1383.1690
 Red. masses --      1.6254                 1.2349                 1.3731
 Frc consts  --      1.7567                 1.3700                 1.5477
 IR Inten    --      4.9024                 1.1574                 2.7091

                     55                     56                     57
                      A                      A                      A
 Frequencies --   1388.0755              1414.4789              1415.4282
 Red. masses --      1.4286                 1.4247                 1.3982
 Frc consts  --      1.6218                 1.6795                 1.6504
 IR Inten    --     27.4921                 3.8145                 7.6582

                     58                     59                     60
                      A                      A                      A
 Frequencies --   1419.3132              1433.0527              1444.8680
 Red. masses --      1.4250                 1.4500                 1.2684
 Frc consts  --      1.6914                 1.7545                 1.5602
 IR Inten    --      2.3540                18.3551                 6.5524

                     61                     62                     63
                      A                      A                      A
 Frequencies --   1509.8049              1517.4687              1526.9676
 Red. masses --      1.0752                 1.0837                 1.0774
 Frc consts  --      1.4441                 1.4702                 1.4801
 IR Inten    --      2.1850                 6.6691                 2.8529

                     64                     65                     66
                      A                      A                      A
 Frequencies --   1528.7928              1531.3702              1535.9638
 Red. masses --      1.0637                 1.0839                 1.0629
 Frc consts  --      1.4647                 1.4977                 1.4774
 IR Inten    --      8.9247                 8.4532                 7.3650

                     67                     68                     69
                      A                      A                      A
 Frequencies --   1542.9398              1686.9394              1736.6340
 Red. masses --      1.0762                 1.0677                 7.4358
 Frc consts  --      1.5095                 1.7901                13.2129
 IR Inten    --      3.6688                10.6528                38.6972

                     70                     71                     72
                      A                      A                      A
 Frequencies --   3010.7924              3014.6538              3029.8354
 Red. masses --      1.0636                 1.0832                 1.0613
 Frc consts  --      5.6807                 5.8001                 5.7402
 IR Inten    --     48.3613                39.6534                20.2898

                     73                     74                     75
                      A                      A                      A
 Frequencies --   3034.4992              3045.7778              3049.8275
 Red. masses --      1.0654                 1.0444                 1.0571
 Frc consts  --      5.7802                 5.7084                 5.7931
 IR Inten    --     23.9827                14.6039                11.6772

                     76                     77                     78
                      A                      A                      A
 Frequencies --   3060.5986              3062.0671              3070.8393
 Red. masses --      1.0639                 1.0943                 1.1006
 Frc consts  --      5.8718                 6.0451                 6.1152
 IR Inten    --      4.8449                40.4824                51.1224

                     79                     80                     81
                      A                      A                      A
 Frequencies --   3071.1699              3088.3939              3102.6715
 Red. masses --      1.0991                 1.1016                 1.1035
 Frc consts  --      6.1080                 6.1907                 6.2587
 IR Inten    --     60.4590                61.7820                34.6050

                     82                     83                     84
                      A                      A                      A
 Frequencies --   3112.4911              3119.1347              3256.3945
 Red. masses --      1.1018                 1.1020                 1.0956
 Frc consts  --      6.2887                 6.3166                 6.8453
 IR Inten    --     49.0572                40.6567                 2.4374

                     85                     86                     87
                      A                      A                      A
 Frequencies --   3404.4644              3457.0124              3500.5124
 Red. masses --      1.0483                 1.0761                 1.0953
 Frc consts  --      7.1584                 7.5773                 7.9077
 IR Inten    --      5.7868                 0.7779                 0.9094

 - Thermochemistry -
 -------------------
 Temperature   298.150 Kelvin.  Pressure   1.00000 Atm.
 Atom     1 has atomic number  6 and mass  12.00000

 Molecular mass:   186.13683 amu.
 Principal axes and moments of inertia in atomic units:
                           1         2         3
     Eigenvalues --   763.718696398.414036690.77360
           X            0.99999  -0.00490  -0.00025
           Y            0.00491   0.99988   0.01485
           Z            0.00017  -0.01486   0.99989
 This molecule is an asymmetric top.
 Rotational symmetry number  1.
 Warning -- assumption of classical behavior for rotation
           may cause significant error
 Rotational temperatures (Kelvin)      0.11341     0.01354     0.01295
 Rotational constants (GHZ):           2.36310     0.28206     0.26974
 Zero-point vibrational energy     719686.0 (Joules/Mol)
                                  172.00909 (Kcal/Mol)
 Warning -- explicit consideration of  20 degrees of freedom as
           vibrations may cause significant error
 Vibrational temperatures:     25.54    66.25    81.00    97.59   117.18
          (Kelvin)            149.66   152.82   221.56   239.79   275.10
                              324.98   395.47   428.91   487.40   516.67
                              555.36   634.49   702.49   770.14   838.03
                              925.20  1072.40  1084.89  1125.52  1127.59
                             1219.59  1233.89  1236.84  1290.79  1349.30
                             1357.34  1404.62  1437.21  1448.88  1477.21
                             1496.97  1514.41  1559.28  1576.62  1596.38
                             1605.62  1639.04  1732.50  1754.52  1788.25
                             1805.48  1820.74  1865.38  1882.93  1924.03
                             1929.10  1948.66  1974.31  1990.07  1997.13
                             2035.12  2036.49  2042.08  2061.84  2078.84
                             2172.27  2183.30  2196.97  2199.59  2203.30
                             2209.91  2219.95  2427.13  2498.63  4331.86
                             4337.41  4359.26  4365.97  4382.19  4388.02
                             4403.52  4405.63  4418.25  4418.73  4443.51
                             4464.05  4478.18  4487.74  4685.23  4898.26
                             4973.87  5036.46

 Zero-point correction=                           0.274114 (Hartree/Particle)
 Thermal correction to Energy=                    0.289055
 Thermal correction to Enthalpy=                  0.289999
 Thermal correction to Gibbs Free Energy=         0.229965
 Sum of electronic and zero-point Energies=           -613.370745
 Sum of electronic and thermal Energies=              -613.355804
 Sum of electronic and thermal Enthalpies=            -613.354860
 Sum of electronic and thermal Free Energies=         -613.414893

                     E (Thermal)             CV                S
                      KCal/Mol        Cal/Mol-Kelvin    Cal/Mol-Kelvin
 Total                  181.384             53.458            126.351
 Electronic               0.000              0.000              0.000
 Translational            0.889              2.981             41.570
 Rotational               0.889              2.981             31.858
 Vibrational            179.607             47.497             52.923
 Vibration     1          0.593              1.986              6.871
 Vibration     2          0.595              1.979              4.980
 Vibration     3          0.596              1.975              4.583
 Vibration     4          0.598              1.970              4.215
 Vibration     5          0.600              1.962              3.856
 Vibration     6          0.605              1.946              3.378
 Vibration     7          0.605              1.944              3.337
 Vibration     8          0.620              1.898              2.622
 Vibration     9          0.624              1.883              2.473
 Vibration    10          0.634              1.852              2.216
 Vibration    11          0.650              1.802              1.912
 Vibration    12          0.677              1.720              1.565
 Vibration    13          0.691              1.677              1.428
 Vibration    14          0.719              1.598              1.218
 Vibration    15          0.734              1.557              1.126
 Vibration    16          0.755              1.500              1.016
 Vibration    17          0.801              1.381              0.823
 Vibration    18          0.844              1.276              0.688
 Vibration    19          0.890              1.172              0.576
 Vibration    20          0.939              1.069              0.481

                           ! Non-Optimized Parameters !
 Normal termination of Gaussian 16 at Sun Dec 13 12:29:31 2020.

 ----------------------------------------------------------------------
 # B3LYP/6-311++G(d,p) empiricaldispersion=gd3bj scf=xqc pop=npa geom=c
 heck
 ----------------------------------------------------------------------

 --------------------------------------
 CID_91347573_JID_3884_Energie_neutraal
 --------------------------------------
 Structure from the checkpoint file:  "JID_3884.chk"
 Charge =  0 Multiplicity = 1

 SCF Done:  E(RB3LYP) =  -613.833070773     A.U. after   15 cycles
 Normal termination of Gaussian 16 at Sun Dec 13 12:32:20 2020.

 ----------------------------------------------------------------------
 # B3LYP/6-311++G(d,p) empiricaldispersion=gd3bj scf=xqc pop=npa geom=c
 heck
 ----------------------------------------------------------------------

 ------------------------------------
 CID_91347573_JID_3884_Energie_kation
 ------------------------------------
 Structure from the checkpoint file:  "JID_3884.chk"
 Charge =  1 Multiplicity = 2

 SCF Done:  E(UB3LYP) =  -613.553092958     A.U. after   20 cycles
 Normal termination of Gaussian 16 at Sun Dec 13 12:37:19 2020.
 Gaussian 16:  ES64L-G16RevA.03 25-Dec-2016

 ----------------------------------------------------------------------
 # B3LYP/6-311++G(d,p) empiricaldispersion=gd3bj scf=xqc pop=npa geom=c
 heck
 ----------------------------------------------------------------------

 -----------------------------------
 CID_91347573_JID_3884_Energie_anion
 -----------------------------------
 Structure from the checkpoint file:  "JID_3884.chk"
 Charge = -1 Multiplicity = 2

                         Standard orientation:
 ---------------------------------------------------------------------
 Center     Atomic      Atomic             Coordinates (Angstroms)
 Number     Number       Type             X           Y           Z
 ---------------------------------------------------------------------
      1          6           0        4.833478   -0.791908   -0.676242
      2          6           0        3.570464   -1.148803    0.113169
      3          6           0        3.045191   -0.003574    0.994507
      4          6           0        2.661707    1.280478    0.244838
      5          6           0        1.558392    1.113552   -0.821951
      6          6           0        0.256747    0.612182   -0.266649
      7          6           0       -0.772676    1.285134    0.256415
      8          6           0       -1.846070    0.304478    0.643522
      9          8           0       -1.196974   -0.979284    0.507343
     10          7           0       -0.007119   -0.780314   -0.308000
     11          6           0       -3.074967    0.392675   -0.259381
     12          8           0       -4.066308   -0.463910    0.287128
     13          7           0       -5.222419   -0.434367   -0.575898
     14          1           0        4.644382    0.000828   -1.408517
     15          1           0        5.214524   -1.660717   -1.223656
     16          1           0        5.628869   -0.441748   -0.006888
     17          1           0        2.793089   -1.479543   -0.589177
     18          1           0        3.779063   -2.012831    0.757077
     19          1           0        2.179875   -0.353035    1.574474
     20          1           0        3.815884    0.247870    1.735704
     21          1           0        2.324363    2.025216    0.975696
     22          1           0        3.547735    1.703667   -0.244248
     23          1           0        1.385033    2.084520   -1.298210
     24          1           0        1.893494    0.433264   -1.613689
     25          1           0       -0.875541    2.360686    0.309261
     26          1           0       -2.178035    0.388218    1.689158
     27          1           0        0.705242   -1.319939    0.186683
     28          1           0       -3.440973    1.430393   -0.296087
     29          1           0       -2.803021    0.086426   -1.277796
     30          1           0       -5.302655   -1.404361   -0.892307
     31          1           0       -5.991901   -0.305884    0.084674
 ---------------------------------------------------------------------

 SCF Done:  E(UB3LYP) =  -613.819640966     A.U. after   33 cycles
 SCF Done:  E(UB3LYP) =  -613.819640966     a.u. after    1 cycles

 The electronic state is 2-A.
 Alpha  occ. eigenvalues --  -19.05638 -19.05515 -14.27314 -14.25725 -10.13622
 Alpha  occ. eigenvalues --  -10.11723 -10.11671 -10.08639 -10.07603 -10.07577
 Alpha  occ. eigenvalues --  -10.07449 -10.06872 -10.06380  -0.98537  -0.97019
 Alpha  occ. eigenvalues --   -0.77755  -0.74038  -0.71418  -0.69623  -0.65820
 Alpha  occ. eigenvalues --   -0.60311  -0.58257  -0.53814  -0.50277  -0.48849
 Alpha  occ. eigenvalues --   -0.46521  -0.42554  -0.41876  -0.40328  -0.38099
 Alpha  occ. eigenvalues --   -0.37571  -0.37104  -0.36215  -0.34645  -0.33226
 Alpha  occ. eigenvalues --   -0.31971  -0.31384  -0.30306  -0.29881  -0.28202
 Alpha  occ. eigenvalues --   -0.27505  -0.26505  -0.25576  -0.25035  -0.23789
 Alpha  occ. eigenvalues --   -0.23102  -0.22845  -0.18501  -0.18262  -0.17044
 Alpha  occ. eigenvalues --   -0.11241   0.04140
 Alpha virt. eigenvalues --    0.05355   0.06637   0.07239   0.07837   0.08670
 Alpha virt. eigenvalues --    0.09404   0.09522   0.09859   0.10628   0.10702
 Alpha virt. eigenvalues --    0.11106   0.11697   0.11983   0.12283   0.12888

  Beta  occ. eigenvalues --  -19.05636 -19.05502 -14.27308 -14.25679 -10.13620
  Beta  occ. eigenvalues --  -10.11713 -10.11664 -10.08621 -10.07589 -10.07552
  Beta  occ. eigenvalues --  -10.07435 -10.06849 -10.06336  -0.98526  -0.96984
  Beta  occ. eigenvalues --   -0.77733  -0.73966  -0.71379  -0.69582  -0.65776
  Beta  occ. eigenvalues --   -0.60261  -0.58216  -0.53742  -0.50258  -0.48801
  Beta  occ. eigenvalues --   -0.46464  -0.42516  -0.41826  -0.40282  -0.38059
  Beta  occ. eigenvalues --   -0.37549  -0.37069  -0.36190  -0.34610  -0.33179
  Beta  occ. eigenvalues --   -0.31938  -0.31348  -0.30273  -0.29855  -0.28154
  Beta  occ. eigenvalues --   -0.27463  -0.26471  -0.25556  -0.25013  -0.23753
  Beta  occ. eigenvalues --   -0.23065  -0.22804  -0.18461  -0.18220  -0.17008
  Beta  occ. eigenvalues --   -0.11206
  Beta virt. eigenvalues --    0.06221   0.06510   0.07452   0.07596   0.08379
  Beta virt. eigenvalues --    0.09011   0.09671   0.10027   0.10201   0.10820
  Beta virt. eigenvalues --    0.11024   0.11379   0.11827   0.12351   0.12519

 Mulliken charges and spin densities:
               1          2
     1  C    1.349913  -1.980066
     2  C   -0.842146   0.647407
     3  C   -0.295684   0.067764
     4  C    1.019479  -1.300920
     5  C    0.028880  -0.599830
     6  C   -0.101333   0.180579
     7  C   -0.263787   0.082397
     8  C    0.224396  -0.151760
     9  O    0.055362   0.004674
    10  N   -0.301403   0.017997
    11  C   -0.029458  -0.567867
    12  O   -0.185834   0.050495
    13  N   -0.119326  -0.227271
    14  H   -0.206808   0.352599
    15  H   -0.275453   0.412261
    16  H   -0.271080   0.411398
    17  H    0.174500  -0.071993
    18  H   -0.171808   0.326054
    19  H    0.122246   0.020820
    20  H   -0.292626   0.463398
    21  H   -0.106831   0.262792
    22  H   -0.160238   0.334570
    23  H   -0.166940   0.362994
    24  H   -0.041081   0.233124
    25  H   -0.449559   0.628858
    26  H    0.114707   0.100653
    27  H    0.206038   0.125759
    28  H   -0.006823   0.134585
    29  H    0.097475   0.080122
    30  H    0.032957   0.212105
    31  H   -0.137734   0.386303
 Sum of Mulliken charges =  -1.00000   1.00000

 Dipole moment (field-independent basis, Debye):
    X=             -1.8534    Y=             -0.7694    Z=              1.0123  Tot=              2.2476
 Quadrupole moment (field-independent basis, Debye-Ang):
   XX=           -201.8222   YY=           -117.8561   ZZ=           -110.3316
   XY=             -2.3396   XZ=              0.1082   YZ=              1.5305

 Summary of Natural Population Analysis:

                                       Natural Population
                Natural  -----------------------------------------------
    Atom  No    Charge         Core      Valence    Rydberg      Total
 -----------------------------------------------------------------------
      C    1   -0.28696      0.99967     2.28221    0.00508     3.28696
      C    2   -0.19492      0.99964     2.18646    0.00882     3.19492
      C    3   -0.19361      0.99962     2.18495    0.00903     3.19361
      C    4   -0.18403      0.99962     2.17578    0.00863     3.18403
      C    5   -0.21214      0.99958     2.20217    0.01040     3.21214
      C    6    0.08708      0.99948     1.89989    0.01355     2.91292
      C    7   -0.14941      0.99942     2.14021    0.00978     3.14941
      C    8    0.04431      0.99956     1.94060    0.01554     2.95569
      O    9   -0.22529      0.99990     3.21689    0.00850     4.22529
      N   10   -0.16317      0.99967     2.65136    0.01214     3.66317
      C   11   -0.01165      0.99956     1.99993    0.01216     3.01165
      O   12   -0.23810      0.99989     3.22612    0.01208     4.23810
      N   13   -0.25455      0.99977     2.74370    0.01108     3.75455
      H   14    0.09747      0.00000     0.40121    0.00132     0.40253
      H   15    0.09949      0.00000     0.39947    0.00105     0.40051
      H   16    0.09804      0.00000     0.40049    0.00148     0.40196
      H   17    0.09023      0.00000     0.40818    0.00159     0.40977
      H   18    0.09656      0.00000     0.40243    0.00101     0.40344
      H   19    0.09337      0.00000     0.40520    0.00143     0.40663
      H   20    0.10028      0.00000     0.39857    0.00114     0.39972
      H   21    0.09955      0.00000     0.39901    0.00144     0.40045
      H   22    0.10066      0.00000     0.39770    0.00164     0.39934
      H   23    0.11198      0.00000     0.38669    0.00133     0.38802
      H   24    0.10581      0.00000     0.39263    0.00156     0.39419
      H   25    0.10994      0.00000     0.38910    0.00096     0.39006
      H   26    0.09289      0.00000     0.40525    0.00186     0.40711
      H   27    0.17811      0.00000     0.31899    0.00290     0.32189
      H   28    0.08256      0.00000     0.41553    0.00191     0.41744
      H   29    0.08757      0.00000     0.41077    0.00166     0.41243
      H   30    0.16777      0.00000     0.32989    0.00234     0.33223
      H   31    0.17015      0.00000     0.32612    0.00373     0.32985
 =======================================================================
   * Total *   -0.00000     12.99537    37.83750    0.16713    51.00000

 Normal termination of Gaussian 16 at Sun Dec 13 12:45:33 2020.
