 Gaussian 16, Revision A.03,

 -----------------------------------------------------------
 # opt freq B3LYP/6-31G(d) empiricaldispersion=gd3bj scf=xqc
 -----------------------------------------------------------

 --------------------------------
 CID_128731813_JID_10409_neutraal
 --------------------------------
 Symbolic Z-matrix:
 Charge =  0 Multiplicity = 1

 SCF Done:  E(RB3LYP) =  -877.878722735     A.U. after   15 cycles
 SCF Done:  E(RB3LYP) =  -877.888013578     A.U. after   13 cycles
 SCF Done:  E(RB3LYP) =  -877.888799418     A.U. after   11 cycles
 SCF Done:  E(RB3LYP) =  -877.888336021     A.U. after   11 cycles
 SCF Done:  E(RB3LYP) =  -877.889121772     A.U. after   11 cycles
 SCF Done:  E(RB3LYP) =  -877.889191201     A.U. after   10 cycles
 SCF Done:  E(RB3LYP) =  -877.889203546     A.U. after   10 cycles
 SCF Done:  E(RB3LYP) =  -877.889206845     A.U. after    9 cycles
 SCF Done:  E(RB3LYP) =  -877.889208689     A.U. after    9 cycles
 SCF Done:  E(RB3LYP) =  -877.889215728     A.U. after   11 cycles
 SCF Done:  E(RB3LYP) =  -877.910041228     A.U. after   10 cycles
 SCF Done:  E(RB3LYP) =  -877.910059915     A.U. after   10 cycles
 SCF Done:  E(RB3LYP) =  -877.910063835     A.U. after    9 cycles
 SCF Done:  E(RB3LYP) =  -877.910064413     A.U. after    8 cycles
 SCF Done:  E(RB3LYP) =  -877.910064431     A.U. after    8 cycles
 SCF Done:  E(RB3LYP) =  -877.910064417     A.U. after    7 cycles
 Optimization completed.
    -- Stationary point found.
 Normal termination of Gaussian 16 at Mon Dec 14 14:09:00 2020.

 --------------------------------------------------------------------
 #N Geom=AllCheck Guess=TCheck SCRF=Check GenChk RB3LYP/6-31G(d) Freq
 --------------------------------------------------------------------

 Structure from the checkpoint file:  "JID_10409.chk"
 --------------------------------
 CID_128731813_JID_10409_neutraal
 --------------------------------
 Charge =  0 Multiplicity = 1

 SCF Done:  E(RB3LYP) =  -877.910064417     A.U. after    1 cycles

  Exact polarizability: 231.279   2.378 179.791  16.773  12.765 134.318
 Approx polarizability: 309.098  10.890 289.511  36.741  36.252 209.546

                      1                      2                      3
                      A                      A                      A
 Frequencies --     23.5300                38.0412                51.6013
 Red. masses --      4.9792                 3.2653                 5.0350
 Frc consts  --      0.0016                 0.0028                 0.0079
 IR Inten    --      0.5340                 0.5688                 1.8562

                      4                      5                      6
                      A                      A                      A
 Frequencies --     76.5873                79.6839               114.5359
 Red. masses --      5.2305                 3.8720                 4.7185
 Frc consts  --      0.0181                 0.0145                 0.0365
 IR Inten    --      2.5544                 1.7303                 1.8602

                      7                      8                      9
                      A                      A                      A
 Frequencies --    147.9038               160.9976               166.1771
 Red. masses --      7.4998                 2.8670                 5.5853
 Frc consts  --      0.0967                 0.0438                 0.0909
 IR Inten    --      5.4182                 1.3140                 1.5903

                     10                     11                     12
                      A                      A                      A
 Frequencies --    194.0913               209.8815               241.7785
 Red. masses --      3.3129                 3.8219                 1.1324
 Frc consts  --      0.0735                 0.0992                 0.0390
 IR Inten    --      1.5597                 2.5065                 0.1962

                     13                     14                     15
                      A                      A                      A
 Frequencies --    262.4482               278.6240               301.4857
 Red. masses --      1.3761                 2.3971                 2.8035
 Frc consts  --      0.0558                 0.1096                 0.1501
 IR Inten    --      1.8198                 2.2643                 0.8515

                     16                     17                     18
                      A                      A                      A
 Frequencies --    302.2135               313.0139               336.6716
 Red. masses --      2.2352                 2.9564                 2.8237
 Frc consts  --      0.1203                 0.1707                 0.1886
 IR Inten    --      0.2747                 9.3078                 3.3676

                     19                     20                     21
                      A                      A                      A
 Frequencies --    376.2066               394.5518               426.9882
 Red. masses --      2.3481                 9.4176                 2.1358
 Frc consts  --      0.1958                 0.8638                 0.2294
 IR Inten    --      0.1971                 1.5908                 2.0906

                     22                     23                     24
                      A                      A                      A
 Frequencies --    451.0418               465.3136               477.2889
 Red. masses --      2.5460                 5.4540                 2.8489
 Frc consts  --      0.3052                 0.6958                 0.3824
 IR Inten    --      3.6937                 0.6674                 2.6251

                     25                     26                     27
                      A                      A                      A
 Frequencies --    481.2608               492.8110               510.8815
 Red. masses --      3.7367                 5.4234                 2.9879
 Frc consts  --      0.5099                 0.7760                 0.4595
 IR Inten    --      3.9171                 3.6677                 0.8948

                     28                     29                     30
                      A                      A                      A
 Frequencies --    555.8708               609.8635               615.4701
 Red. masses --      4.9146                 2.5400                 4.6040
 Frc consts  --      0.8947                 0.5566                 1.0275
 IR Inten    --      1.2199                 8.1062                 5.6023

                     31                     32                     33
                      A                      A                      A
 Frequencies --    694.2361               703.9814               746.4963
 Red. masses --      4.1250                 6.2064                 4.7167
 Frc consts  --      1.1714                 1.8122                 1.5486
 IR Inten    --      3.7113                 4.9362                 4.2749

                     34                     35                     36
                      A                      A                      A
 Frequencies --    802.7976               825.3760               827.1950
 Red. masses --      3.2178                 1.7841                 1.6753
 Frc consts  --      1.2219                 0.7161                 0.6754
 IR Inten    --      3.3461                13.8613                 7.5865

                     37                     38                     39
                      A                      A                      A
 Frequencies --    832.4208               858.1980               870.4029
 Red. masses --      3.0725                 2.9230                 3.2596
 Frc consts  --      1.2544                 1.2684                 1.4550
 IR Inten    --     19.5435                 3.7937                 9.3403

                     40                     41                     42
                      A                      A                      A
 Frequencies --    894.2651               914.1719               944.0957
 Red. masses --      2.0135                 3.0475                 1.4375
 Frc consts  --      0.9487                 1.5006                 0.7549
 IR Inten    --      2.4591                 3.3902                 2.1321

                     43                     44                     45
                      A                      A                      A
 Frequencies --    949.6654               978.8460               987.4629
 Red. masses --      1.8151                 1.5037                 3.9978
 Frc consts  --      0.9645                 0.8488                 2.2967
 IR Inten    --     11.7407                 0.9781                 9.9790

                     46                     47                     48
                      A                      A                      A
 Frequencies --    992.8786               994.7440              1006.6709
 Red. masses --      1.5702                 1.4801                 2.7344
 Frc consts  --      0.9120                 0.8629                 1.6326
 IR Inten    --      1.5358                 1.4765                22.4128

                     49                     50                     51
                      A                      A                      A
 Frequencies --   1019.5060              1029.4442              1062.2342
 Red. masses --      3.1897                 2.0492                 1.5840
 Frc consts  --      1.9534                 1.2795                 1.0531
 IR Inten    --      1.4904                12.2282                 7.1603

                     52                     53                     54
                      A                      A                      A
 Frequencies --   1097.9965              1108.2865              1125.1577
 Red. masses --      2.7171                 1.8996                 1.7866
 Frc consts  --      1.9300                 1.3747                 1.3326
 IR Inten    --      7.9052                10.9557                14.0717

                     55                     56                     57
                      A                      A                      A
 Frequencies --   1141.5599              1157.7298              1158.8147
 Red. masses --      2.8812                 2.5205                 2.3720
 Frc consts  --      2.2122                 1.9905                 1.8767
 IR Inten    --     21.3739                28.5520                 1.0631

                     58                     59                     60
                      A                      A                      A
 Frequencies --   1176.7001              1182.5408              1202.9700
 Red. masses --      2.2357                 1.6685                 4.3937
 Frc consts  --      1.8239                 1.3747                 3.7462
 IR Inten    --     13.0240                 1.8524                 7.9989

                     61                     62                     63
                      A                      A                      A
 Frequencies --   1216.7070              1219.7809              1248.0042
 Red. masses --      1.7413                 1.4616                 1.8235
 Frc consts  --      1.5188                 1.2813                 1.6734
 IR Inten    --      4.3529                 4.2834                 5.4781

                     64                     65                     66
                      A                      A                      A
 Frequencies --   1256.9210              1274.4758              1287.0442
 Red. masses --      2.7956                 1.4145                 4.2632
 Frc consts  --      2.6022                 1.3536                 4.1607
 IR Inten    --     35.3663                27.7540                14.0652

                     67                     68                     69
                      A                      A                      A
 Frequencies --   1311.5850              1315.6398              1334.7712
 Red. masses --      1.5458                 1.6028                 1.3059
 Frc consts  --      1.5668                 1.6346                 1.3708
 IR Inten    --     24.9834                 3.7145                18.1651

                     70                     71                     72
                      A                      A                      A
 Frequencies --   1344.3232              1354.7863              1373.9690
 Red. masses --      1.3523                 1.4454                 1.4344
 Frc consts  --      1.4399                 1.5631                 1.5954
 IR Inten    --     11.2185                14.3350                15.7840

                     73                     74                     75
                      A                      A                      A
 Frequencies --   1378.4304              1388.3960              1401.7019
 Red. masses --      1.4699                 2.2363                 1.2440
 Frc consts  --      1.6455                 2.5398                 1.4400
 IR Inten    --     12.5721                10.7864                 8.9722

                     76                     77                     78
                      A                      A                      A
 Frequencies --   1405.6328              1424.0255              1429.4536
 Red. masses --      1.6215                 1.2692                 1.2776
 Frc consts  --      1.8876                 1.5164                 1.5381
 IR Inten    --      1.3105                 6.5449                 7.3109

                     79                     80                     81
                      A                      A                      A
 Frequencies --   1442.7908              1451.1046              1476.5287
 Red. masses --      1.3271                 1.2350                 2.7900
 Frc consts  --      1.6277                 1.5322                 3.5838
 IR Inten    --     24.1405                 7.1374                47.7307

                     82                     83                     84
                      A                      A                      A
 Frequencies --   1502.8155              1515.8367              1518.6615
 Red. masses --      1.0881                 1.0866                 1.0602
 Frc consts  --      1.4479                 1.4710                 1.4407
 IR Inten    --      4.6184                10.5693                 4.7905

                     85                     86                     87
                      A                      A                      A
 Frequencies --   1520.2273              1527.4525              1528.7682
 Red. masses --      1.0695                 1.0718                 1.1005
 Frc consts  --      1.4562                 1.4734                 1.5154
 IR Inten    --      5.3232                 2.7782                47.1683

                     88                     89                     90
                      A                      A                      A
 Frequencies --   1539.8006              1540.3382              1547.8463
 Red. masses --      1.1514                 1.1411                 1.0569
 Frc consts  --      1.6084                 1.5952                 1.4919
 IR Inten    --     71.0686                80.6566                18.7720

                     91                     92                     93
                      A                      A                      A
 Frequencies --   1561.9360              1590.7705              1632.9480
 Red. masses --      4.2300                 6.2950                 6.6949
 Frc consts  --      6.0803                 9.3856                10.5181
 IR Inten    --    439.4469               158.0542               591.5459

                     94                     95                     96
                      A                      A                      A
 Frequencies --   2364.8979              2986.2379              3022.3036
 Red. masses --     12.6896                 1.0715                 1.0687
 Frc consts  --     41.8141                 5.6300                 5.7515
 IR Inten    --      0.2395                39.5937                43.9626

                     97                     98                     99
                      A                      A                      A
 Frequencies --   3039.1731              3040.3034              3045.9217
 Red. masses --      1.0625                 1.0724                 1.0686
 Frc consts  --      5.7821                 5.8402                 5.8410
 IR Inten    --     11.7701                13.0597                10.2139

                    100                    101                    102
                      A                      A                      A
 Frequencies --   3048.2862              3054.1255              3056.4532
 Red. masses --      1.0450                 1.0763                 1.0601
 Frc consts  --      5.7213                 5.9152                 5.8349
 IR Inten    --     18.3044                44.4024                53.3583

                    103                    104                    105
                      A                      A                      A
 Frequencies --   3059.4538              3083.4843              3090.5941
 Red. masses --      1.0382                 1.1037                 1.0981
 Frc consts  --      5.7258                 6.1826                 6.1797
 IR Inten    --     22.1544                40.9458                36.2973

                    106                    107                    108
                      A                      A                      A
 Frequencies --   3106.2283              3110.9993              3113.7631
 Red. masses --      1.1083                 1.0953                 1.0941
 Frc consts  --      6.3004                 6.2456                 6.2501
 IR Inten    --     18.6223                61.5287                60.7279

                    109                    110                    111
                      A                      A                      A
 Frequencies --   3115.5164              3122.1785              3125.0815
 Red. masses --      1.1004                 1.1014                 1.1007
 Frc consts  --      6.2932                 6.3256                 6.3335
 IR Inten    --     14.3157                13.9331                48.6396

                    112                    113                    114
                      A                      A                      A
 Frequencies --   3148.2579              3177.6851              3249.7566
 Red. masses --      1.1021                 1.0912                 1.0946
 Frc consts  --      6.4357                 6.4917                 6.8108
 IR Inten    --     17.5709                29.4840                 0.3884

 - Thermochemistry -
 -------------------
 Temperature   298.150 Kelvin.  Pressure   1.00000 Atm.
 Atom     1 has atomic number  6 and mass  12.00000

 Molecular mass:   272.16371 amu.
 Principal axes and moments of inertia in atomic units:
                           1         2         3
     Eigenvalues --  2887.749888795.149469804.55249
           X            0.99992  -0.01210  -0.00299
           Y            0.01196   0.99904  -0.04209
           Z            0.00349   0.04205   0.99911
 This molecule is an asymmetric top.
 Rotational symmetry number  1.
 Warning -- assumption of classical behavior for rotation
           may cause significant error
 Rotational temperatures (Kelvin)      0.02999     0.00985     0.00883
 Rotational constants (GHZ):           0.62496     0.20520     0.18407
 Zero-point vibrational energy     894016.2 (Joules/Mol)
                                  213.67500 (Kcal/Mol)
 Warning -- explicit consideration of  30 degrees of freedom as
           vibrations may cause significant error
 Vibrational temperatures:     33.85    54.73    74.24   110.19   114.65
          (Kelvin)            164.79   212.80   231.64   239.09   279.25
                              301.97   347.87   377.60   400.88   433.77
                              434.82   450.36   484.40   541.28   567.67
                              614.34   648.95   669.48   686.71   692.43
                              709.05   735.04   799.77   877.46   885.52
                              998.85  1012.87  1074.04  1155.05  1187.53
                             1190.15  1197.67  1234.76  1252.32  1286.65
                             1315.29  1358.34  1366.36  1408.34  1420.74
                             1428.53  1431.21  1448.37  1466.84  1481.14
                             1528.32  1579.77  1594.58  1618.85  1642.45
                             1665.72  1667.28  1693.01  1701.41  1730.81
                             1750.57  1754.99  1795.60  1808.43  1833.69
                             1851.77  1887.08  1892.91  1920.44  1934.18
                             1949.24  1976.83  1983.25  1997.59  2016.74
                             2022.39  2048.86  2056.66  2075.85  2087.82
                             2124.40  2162.22  2180.95  2185.02  2187.27
                             2197.66  2199.56  2215.43  2216.20  2227.01
                             2247.28  2288.76  2349.45  3402.56  4296.53
                             4348.42  4372.69  4374.32  4382.40  4385.80
                             4394.21  4397.55  4401.87  4436.45  4446.68
                             4469.17  4476.03  4480.01  4482.53  4492.12
                             4496.30  4529.64  4571.98  4675.67

 Zero-point correction=                           0.340513 (Hartree/Particle)
 Thermal correction to Energy=                    0.358741
 Thermal correction to Enthalpy=                  0.359686
 Thermal correction to Gibbs Free Energy=         0.293544
 Sum of electronic and zero-point Energies=           -877.569552
 Sum of electronic and thermal Energies=              -877.551323
 Sum of electronic and thermal Enthalpies=            -877.550379
 Sum of electronic and thermal Free Energies=         -877.616521

                     E (Thermal)             CV                S
                      KCal/Mol        Cal/Mol-Kelvin    Cal/Mol-Kelvin
 Total                  225.114             70.714            139.208
 Electronic               0.000              0.000              0.000
 Translational            0.889              2.981             42.702
 Rotational               0.889              2.981             33.876
 Vibrational            223.336             64.752             62.630
 Vibration     1          0.593              1.985              6.311
 Vibration     2          0.594              1.982              5.359
 Vibration     3          0.596              1.977              4.755
 Vibration     4          0.599              1.965              3.976
 Vibration     5          0.600              1.963              3.899
 Vibration     6          0.607              1.937              3.191
 Vibration     7          0.617              1.905              2.699
 Vibration     8          0.622              1.890              2.538
 Vibration     9          0.624              1.884              2.478
 Vibration    10          0.635              1.848              2.188
 Vibration    11          0.642              1.826              2.045
 Vibration    12          0.658              1.776              1.790
 Vibration    13          0.670              1.742              1.645
 Vibration    14          0.679              1.713              1.542
 Vibration    15          0.693              1.671              1.409
 Vibration    16          0.694              1.670              1.405
 Vibration    17          0.701              1.649              1.346
 Vibration    18          0.717              1.602              1.228
 Vibration    19          0.747              1.521              1.054
 Vibration    20          0.762              1.482              0.983
 Vibration    21          0.789              1.412              0.869
 Vibration    22          0.810              1.359              0.793
 Vibration    23          0.823              1.327              0.751
 Vibration    24          0.834              1.300              0.717
 Vibration    25          0.838              1.292              0.707
 Vibration    26          0.849              1.266              0.676
 Vibration    27          0.866              1.226              0.631
 Vibration    28          0.911              1.127              0.532
 Vibration    29          0.969              1.011              0.433
 Vibration    30          0.975              0.999              0.424

                           ! Non-Optimized Parameters !
 Normal termination of Gaussian 16 at Mon Dec 14 14:30:20 2020.

 ----------------------------------------------------------------------
 # B3LYP/6-311++G(d,p) empiricaldispersion=gd3bj scf=xqc pop=npa geom=c
 heck
 ----------------------------------------------------------------------

 ----------------------------------------
 CID_128731813_JID_10409_Energie_neutraal
 ----------------------------------------
 Structure from the checkpoint file:  "JID_10409.chk"
 Charge =  0 Multiplicity = 1

 SCF Done:  E(RB3LYP) =  -878.141284212     A.U. after   16 cycles
 Normal termination of Gaussian 16 at Mon Dec 14 14:39:19 2020.

 ----------------------------------------------------------------------
 # B3LYP/6-311++G(d,p) empiricaldispersion=gd3bj scf=xqc pop=npa geom=c
 heck
 ----------------------------------------------------------------------

 --------------------------------------
 CID_128731813_JID_10409_Energie_kation
 --------------------------------------
 Structure from the checkpoint file:  "JID_10409.chk"
 Charge =  1 Multiplicity = 2

 SCF Done:  E(UB3LYP) =  -877.844753341     A.U. after   25 cycles
 Normal termination of Gaussian 16 at Mon Dec 14 14:58:05 2020.
 Gaussian 16:  ES64L-G16RevA.03 25-Dec-2016

 ----------------------------------------------------------------------
 # B3LYP/6-311++G(d,p) empiricaldispersion=gd3bj scf=xqc pop=npa geom=c
 heck
 ----------------------------------------------------------------------

 -------------------------------------
 CID_128731813_JID_10409_Energie_anion
 -------------------------------------
 Structure from the checkpoint file:  "JID_10409.chk"
 Charge = -1 Multiplicity = 2

                         Standard orientation:
 ---------------------------------------------------------------------
 Center     Atomic      Atomic             Coordinates (Angstroms)
 Number     Number       Type             X           Y           Z
 ---------------------------------------------------------------------
      1          6           0       -0.326885   -2.057924    1.788739
      2          6           0        0.921923   -1.650958    0.995479
      3          6           0        1.357681   -2.799698    0.074898
      4          6           0        0.707456   -0.366078    0.164584
      5          6           0        1.805557    0.782537    0.138120
      6          6           0        2.156217    1.217683   -1.290635
      7          6           0        3.198556    0.282872   -1.903032
      8          8           0        4.383580    0.251981   -1.119313
      9          6           0        4.137447   -0.235893    0.192739
     10          6           0        3.103803    0.617295    0.932068
     11          6           0        0.756728    1.709009    0.810857
     12          7           0       -0.227593    0.628236    0.729008
     13          6           0       -1.532982    0.785591    0.406341
     14          7           0       -2.084988    1.994497    0.677972
     15          6           0       -3.373578    2.128009    0.383279
     16          6           0       -4.144252    1.105565   -0.176764
     17          6           0       -3.459494   -0.085315   -0.430666
     18          7           0       -2.164489   -0.267272   -0.156390
     19          6           0       -4.153294   -1.202810   -1.028758
     20          7           0       -4.734911   -2.085484   -1.509942
     21          1           0       -1.166338   -2.263622    1.119105
     22          1           0       -0.632270   -1.266309    2.479344
     23          1           0       -0.118455   -2.960708    2.373979
     24          1           0        1.721642   -1.467722    1.723474
     25          1           0        0.540610   -3.069204   -0.605247
     26          1           0        2.226911   -2.538224   -0.537728
     27          1           0        1.616254   -3.690051    0.658043
     28          1           0        0.387210   -0.654197   -0.844466
     29          1           0        2.572780    2.232972   -1.265201
     30          1           0        1.254761    1.248407   -1.916238
     31          1           0        3.500172    0.624344   -2.897129
     32          1           0        2.784437   -0.734792   -2.005957
     33          1           0        3.807392   -1.284705    0.146903
     34          1           0        5.101008   -0.211009    0.709689
     35          1           0        3.527382    1.619810    1.079908
     36          1           0        2.915836    0.204577    1.929821
     37          1           0        0.987532    2.002540    1.841492
     38          1           0        0.471639    2.600567    0.242827
     39          1           0       -3.817627    3.097819    0.601541
     40          1           0       -5.194957    1.224507   -0.407675
 ---------------------------------------------------------------------

 SCF Done:  E(UB3LYP) =  -878.165878947     A.U. after   25 cycles

 The electronic state is 2-A.
 Alpha  occ. eigenvalues --  -19.04860 -14.20458 -14.14042 -14.13944 -14.13594
 Alpha  occ. eigenvalues --  -10.14068 -10.13840 -10.11724 -10.10386 -10.09849
 Alpha  occ. eigenvalues --  -10.09578 -10.09075 -10.08613 -10.07880 -10.07020
 Alpha  occ. eigenvalues --  -10.05713 -10.04967 -10.04674 -10.04016 -10.02335
 Alpha  occ. eigenvalues --   -0.96331  -0.87006  -0.81065  -0.74729  -0.72660
 Alpha  occ. eigenvalues --   -0.72099  -0.70050  -0.68914  -0.64700  -0.59141
 Alpha  occ. eigenvalues --   -0.58718  -0.58150  -0.56482  -0.53156  -0.52314
 Alpha  occ. eigenvalues --   -0.48690  -0.47235  -0.44104  -0.42840  -0.40746
 Alpha  occ. eigenvalues --   -0.40157  -0.38568  -0.38005  -0.37191  -0.36072
 Alpha  occ. eigenvalues --   -0.34533  -0.33969  -0.33077  -0.32442  -0.31678
 Alpha  occ. eigenvalues --   -0.30804  -0.30669  -0.28867  -0.28399  -0.27891
 Alpha  occ. eigenvalues --   -0.27688  -0.27321  -0.26245  -0.25917  -0.24153
 Alpha  occ. eigenvalues --   -0.23644  -0.23180  -0.22231  -0.21202  -0.21009
 Alpha  occ. eigenvalues --   -0.20977  -0.18035  -0.17708  -0.16815  -0.16035
 Alpha  occ. eigenvalues --   -0.15053  -0.09727  -0.08731   0.03889
 Alpha virt. eigenvalues --    0.06053   0.07352   0.07555   0.08409   0.09646
 Alpha virt. eigenvalues --    0.09776   0.09979   0.10593   0.10943   0.11557
 Alpha virt. eigenvalues --    0.12134   0.12595   0.12883   0.13026   0.13636

  Beta  occ. eigenvalues --  -19.04860 -14.20473 -14.13647 -14.13567 -14.13108
  Beta  occ. eigenvalues --  -10.14068 -10.13840 -10.11795 -10.10385 -10.09849
  Beta  occ. eigenvalues --  -10.09578 -10.09075 -10.08612 -10.07881 -10.07020
  Beta  occ. eigenvalues --  -10.05212 -10.04737 -10.04672 -10.04055 -10.02404
  Beta  occ. eigenvalues --   -0.96331  -0.86865  -0.80572  -0.74082  -0.72033
  Beta  occ. eigenvalues --   -0.71800  -0.70031  -0.68913  -0.64389  -0.59017
  Beta  occ. eigenvalues --   -0.58597  -0.58117  -0.56482  -0.53045  -0.51377
  Beta  occ. eigenvalues --   -0.48630  -0.47159  -0.44013  -0.42757  -0.40667
  Beta  occ. eigenvalues --   -0.40152  -0.38469  -0.38002  -0.37031  -0.35990
  Beta  occ. eigenvalues --   -0.34462  -0.33871  -0.33035  -0.32396  -0.31655
  Beta  occ. eigenvalues --   -0.30719  -0.30399  -0.28731  -0.28236  -0.27627
  Beta  occ. eigenvalues --   -0.27497  -0.26639  -0.26221  -0.25773  -0.24085
  Beta  occ. eigenvalues --   -0.23523  -0.23031  -0.22139  -0.21020  -0.20364
  Beta  occ. eigenvalues --   -0.19636  -0.17973  -0.17487  -0.15763  -0.15459
  Beta  occ. eigenvalues --   -0.12683  -0.09216  -0.07675
  Beta virt. eigenvalues --    0.06045   0.07337   0.07540   0.08399   0.09627
  Beta virt. eigenvalues --    0.09754   0.09953   0.10571   0.10906   0.11155
  Beta virt. eigenvalues --    0.11566   0.12113   0.12597   0.12863   0.13358

 Mulliken charges and spin densities:
               1          2
     1  C   -0.698560  -0.000965
     2  C    0.718516   0.011616
     3  C   -0.741592  -0.000561
     4  C   -0.897886   0.005917
     5  C    0.382748  -0.027673
     6  C   -0.213981   0.010923
     7  C   -0.510731  -0.003927
     8  O   -0.122809   0.000080
     9  C   -0.519385   0.001283
    10  C   -0.402122  -0.008644
    11  C   -0.223656  -0.006276
    12  N    0.354527  -0.000830
    13  C   -0.507728  -0.035520
    14  N   -0.134724   0.215435
    15  C    0.060518   0.200449
    16  C   -0.479626  -0.004156
    17  C    0.958454   0.369767
    18  N   -0.036104   0.184434
    19  C   -0.722806  -0.128749
    20  N   -0.376759   0.210171
    21  H    0.206265  -0.001391
    22  H    0.154766   0.000041
    23  H    0.118537   0.002432
    24  H    0.134658  -0.000079
    25  H    0.168701   0.000492
    26  H    0.065597   0.000169
    27  H    0.137861   0.000479
    28  H    0.254965   0.013874
    29  H    0.170528   0.001723
    30  H    0.154654   0.003497
    31  H    0.190188   0.000851
    32  H    0.136198  -0.000814
    33  H    0.146162  -0.000033
    34  H    0.186227  -0.000007
    35  H    0.164493   0.000067
    36  H    0.134690  -0.000536
    37  H    0.158571   0.003972
    38  H    0.162816  -0.004999
    39  H    0.137606  -0.017514
    40  H    0.130223   0.005000
 Sum of Mulliken charges =  -1.00000   1.00000

 Dipole moment (field-independent basis, Debye):
    X=             13.4647    Y=              1.7632    Z=              2.3951  Tot=             13.7893
 Quadrupole moment (field-independent basis, Debye-Ang):
   XX=           -202.7024   YY=           -147.6005   ZZ=           -133.9871
   XY=            -16.4580   XZ=             -8.0494   YZ=            -10.2953

 Summary of Natural Population Analysis:

                                       Natural Population
                Natural  -----------------------------------------------
    Atom  No    Charge         Core      Valence    Rydberg      Total
 -----------------------------------------------------------------------
      C    1   -0.28647      0.99965     2.28161    0.00520     3.28647
      C    2   -0.12141      0.99959     2.11394    0.00787     3.12141
      C    3   -0.28380      0.99966     2.27921    0.00493     3.28380
      C    4    0.01492      0.99956     1.96923    0.01629     2.98508
      C    5   -0.04435      0.99952     2.03138    0.01345     3.04435
      C    6   -0.20170      0.99959     2.19419    0.00792     3.20170
      C    7   -0.01074      0.99959     2.00013    0.01103     3.01074
      O    8   -0.30382      0.99989     3.29386    0.01007     4.30382
      C    9   -0.00991      0.99958     1.99935    0.01098     3.00991
      C   10   -0.20580      0.99958     2.19841    0.00780     3.20580
      C   11   -0.06392      0.99961     2.05488    0.00943     3.06392
      N   12   -0.26342      0.99961     2.74951    0.01429     3.76342
      C   13    0.28621      0.99956     1.69553    0.01870     2.71379
      N   14   -0.21486      0.99967     2.70593    0.00926     3.71486
      C   15    0.07797      0.99962     1.90792    0.01449     2.92203
      C   16   -0.16126      0.99953     2.15461    0.00712     3.16126
      C   17    0.12904      0.99945     1.85649    0.01502     2.87096
      N   18   -0.21993      0.99965     2.71053    0.00976     3.71993
      C   19    0.13803      0.99964     1.84349    0.01884     2.86197
      N   20   -0.15142      0.99978     2.64005    0.01159     3.65142
      H   21    0.11762      0.00000     0.38143    0.00096     0.38238
      H   22    0.10470      0.00000     0.39440    0.00090     0.39530
      H   23    0.08875      0.00000     0.41047    0.00078     0.41125
      H   24    0.08584      0.00000     0.41224    0.00193     0.41416
      H   25    0.10398      0.00000     0.39518    0.00084     0.39602
      H   26    0.09105      0.00000     0.40794    0.00101     0.40895
      H   27    0.09542      0.00000     0.40380    0.00078     0.40458
      H   28    0.10019      0.00000     0.39862    0.00119     0.39981
      H   29    0.09814      0.00000     0.40068    0.00118     0.40186
      H   30    0.10837      0.00000     0.39067    0.00096     0.39163
      H   31    0.08919      0.00000     0.40973    0.00108     0.41081
      H   32    0.07949      0.00000     0.41931    0.00120     0.42051
      H   33    0.07954      0.00000     0.41921    0.00125     0.42046
      H   34    0.08731      0.00000     0.41161    0.00108     0.41269
      H   35    0.09974      0.00000     0.39914    0.00113     0.40026
      H   36    0.10377      0.00000     0.39519    0.00104     0.39623
      H   37    0.08812      0.00000     0.41072    0.00116     0.41188
      H   38    0.10019      0.00000     0.39852    0.00129     0.39981
      H   39    0.07542      0.00000     0.42331    0.00127     0.42458
      H   40    0.09979      0.00000     0.39928    0.00093     0.40021
 =======================================================================
   * Total *   -0.00000     19.99233    52.76170    0.24597    73.00000

 Normal termination of Gaussian 16 at Mon Dec 14 15:16:34 2020.
