 Gaussian 16, Revision A.03,

 -----------------------------------------------------------
 # opt freq B3LYP/6-31G(d) empiricaldispersion=gd3bj scf=xqc
 -----------------------------------------------------------

 -------------------------------
 CID_151538358_JID_9613_neutraal
 -------------------------------
 Symbolic Z-matrix:
 Charge =  0 Multiplicity = 1

 SCF Done:  E(RB3LYP) =  -1747.08064527     A.U. after   15 cycles
 SCF Done:  E(RB3LYP) =  -1747.08677613     A.U. after   12 cycles
 SCF Done:  E(RB3LYP) =  -1747.08824516     A.U. after   13 cycles
 SCF Done:  E(RB3LYP) =  -1747.08897904     A.U. after   13 cycles
 SCF Done:  E(RB3LYP) =  -1747.08963353     A.U. after   12 cycles
 SCF Done:  E(RB3LYP) =  -1747.09000260     A.U. after   13 cycles
 SCF Done:  E(RB3LYP) =  -1747.09045814     A.U. after   12 cycles
 SCF Done:  E(RB3LYP) =  -1747.09085346     A.U. after   11 cycles
 SCF Done:  E(RB3LYP) =  -1747.09145320     A.U. after   13 cycles
 SCF Done:  E(RB3LYP) =  -1747.09160538     A.U. after   12 cycles
 SCF Done:  E(RB3LYP) =  -1747.09276845     A.U. after   11 cycles
 SCF Done:  E(RB3LYP) =  -1747.09277026     A.U. after   11 cycles
 SCF Done:  E(RB3LYP) =  -1747.09277086     A.U. after    9 cycles
 SCF Done:  E(RB3LYP) =  -1747.09277095     A.U. after    8 cycles
 SCF Done:  E(RB3LYP) =  -1747.09277099     A.U. after    8 cycles
 Optimization completed.
    -- Stationary point found.
 Normal termination of Gaussian 16 at Sun Dec 13 20:40:08 2020.

 --------------------------------------------------------------------
 #N Geom=AllCheck Guess=TCheck SCRF=Check GenChk RB3LYP/6-31G(d) Freq
 --------------------------------------------------------------------

 Structure from the checkpoint file:  "JID_9613.chk"
 -------------------------------
 CID_151538358_JID_9613_neutraal
 -------------------------------
 Charge =  0 Multiplicity = 1

 SCF Done:  E(RB3LYP) =  -1747.09277099     A.U. after    1 cycles

  Exact polarizability: 203.325  11.671 117.676  -3.928  11.314 127.857
 Approx polarizability: 263.958  26.105 191.850  -4.775  30.773 242.649

                      1                      2                      3
                      A                      A                      A
 Frequencies --      9.9044                29.0121                36.0846
 Red. masses --      8.5425                 5.8244                 6.8098
 Frc consts  --      0.0005                 0.0029                 0.0052
 IR Inten    --      5.6424                 2.0053                 1.9842

                      4                      5                      6
                      A                      A                      A
 Frequencies --     43.9348                61.1303                75.4265
 Red. masses --      5.3963                 7.7242                11.7199
 Frc consts  --      0.0061                 0.0170                 0.0393
 IR Inten    --      1.2024                 0.6762                 0.8550

                      7                      8                      9
                      A                      A                      A
 Frequencies --     91.2305               135.9378               172.9960
 Red. masses --      9.7614                 8.9782                 7.7835
 Frc consts  --      0.0479                 0.0978                 0.1372
 IR Inten    --      0.6928                 0.8224                 7.6907

                     10                     11                     12
                      A                      A                      A
 Frequencies --    188.9197               193.2862               214.4489
 Red. masses --      1.1614                 4.2166                 4.7631
 Frc consts  --      0.0244                 0.0928                 0.1291
 IR Inten    --      0.4671                 1.7751                 3.3442

                     13                     14                     15
                      A                      A                      A
 Frequencies --    244.7242               275.8971               289.3031
 Red. masses --      7.0167                 5.6398                 6.2753
 Frc consts  --      0.2476                 0.2529                 0.3094
 IR Inten    --      7.5366                 1.2539                 4.3652

                     16                     17                     18
                      A                      A                      A
 Frequencies --    307.1816               324.5040               360.9588
 Red. masses --      9.2441                 6.2719                 7.2167
 Frc consts  --      0.5139                 0.3891                 0.5540
 IR Inten    --      1.9503                 1.1583                 2.5373

                     19                     20                     21
                      A                      A                      A
 Frequencies --    369.6701               423.4986               435.7487
 Red. masses --      4.9585                 3.0707                 8.0758
 Frc consts  --      0.3992                 0.3245                 0.9035
 IR Inten    --      1.9463                 0.6318                 5.7801

                     22                     23                     24
                      A                      A                      A
 Frequencies --    451.2333               464.4948               478.0944
 Red. masses --      6.5838                 6.7222                 7.5824
 Frc consts  --      0.7898                 0.8545                 1.0211
 IR Inten    --      9.8152                40.8363                27.6041

                     25                     26                     27
                      A                      A                      A
 Frequencies --    486.4876               508.2588               561.9590
 Red. masses --      7.7798                 5.4620                 3.2311
 Frc consts  --      1.0848                 0.8313                 0.6012
 IR Inten    --     15.0320                 3.5055                51.3911

                     28                     29                     30
                      A                      A                      A
 Frequencies --    570.4724               609.6157               633.6364
 Red. masses --      2.6165                 2.1866                 1.8026
 Frc consts  --      0.5017                 0.4788                 0.4264
 IR Inten    --     15.8870               160.5841               219.7955

                     31                     32                     33
                      A                      A                      A
 Frequencies --    651.9130               668.0773               684.4635
 Red. masses --      5.9861                 4.0485                 3.1868
 Frc consts  --      1.4989                 1.0646                 0.8796
 IR Inten    --      6.7761               180.5330                33.8445

                     34                     35                     36
                      A                      A                      A
 Frequencies --    727.4493               739.6703               766.9210
 Red. masses --      4.1263                 3.9660                 5.9016
 Frc consts  --      1.2865                 1.2784                 2.0451
 IR Inten    --     35.5109                37.4982                71.5300

                     37                     38                     39
                      A                      A                      A
 Frequencies --    776.5603               834.3010               836.5731
 Red. masses --      6.1856                 1.2664                 3.4566
 Frc consts  --      2.1978                 0.5194                 1.4253
 IR Inten    --     68.8097                 1.2917                35.7675

                     40                     41                     42
                      A                      A                      A
 Frequencies --    855.5998               874.9897               899.6060
 Red. masses --      4.9846                 3.3152                 4.3600
 Frc consts  --      2.1499                 1.4954                 2.0790
 IR Inten    --    188.6850                96.7094                17.2629

                     43                     44                     45
                      A                      A                      A
 Frequencies --    953.2909               961.4661               971.4449
 Red. masses --      1.8984                 1.6410                 1.6171
 Frc consts  --      1.0165                 0.8938                 0.8992
 IR Inten    --      7.4086                 2.3839                 3.2281

                     46                     47                     48
                      A                      A                      A
 Frequencies --   1004.9307              1008.7195              1044.6429
 Red. masses --      1.3297                 1.4258                 2.7679
 Frc consts  --      0.7912                 0.8548                 1.7796
 IR Inten    --      0.7407                60.1181                10.2973

                     49                     50                     51
                      A                      A                      A
 Frequencies --   1141.9109              1146.0177              1152.5803
 Red. masses --      2.6154                 1.7915                 8.7760
 Frc consts  --      2.0094                 1.3863                 6.8689
 IR Inten    --    121.9063                97.3573               124.3850

                     52                     53                     54
                      A                      A                      A
 Frequencies --   1189.2966              1202.2308              1217.7088
 Red. masses --      2.0946                 1.4948                 1.9030
 Frc consts  --      1.7456                 1.2729                 1.6625
 IR Inten    --    245.3719                31.1517                59.0978

                     55                     56                     57
                      A                      A                      A
 Frequencies --   1244.2143              1256.2421              1283.9250
 Red. masses --      2.8118                 1.7205                 1.4939
 Frc consts  --      2.5647                 1.5998                 1.4509
 IR Inten    --    122.8592                39.4694               113.2065

                     58                     59                     60
                      A                      A                      A
 Frequencies --   1290.4770              1345.5348              1354.5983
 Red. masses --      1.6161                 1.6756                 8.5893
 Frc consts  --      1.5857                 1.7874                 9.2860
 IR Inten    --     28.9917                 9.9344               172.3589

                     61                     62                     63
                      A                      A                      A
 Frequencies --   1367.7040              1385.6230              1391.9688
 Red. masses --      3.4725                 1.2106                 4.4128
 Frc consts  --      3.8272                 1.3694                 5.0376
 IR Inten    --      7.7441                12.3218               201.2605

                     64                     65                     66
                      A                      A                      A
 Frequencies --   1432.8041              1471.7744              1480.8507
 Red. masses --      2.9360                 2.7662                 1.0543
 Frc consts  --      3.5512                 3.5303                 1.3621
 IR Inten    --     98.5125                15.9964                 4.5805

                     67                     68                     69
                      A                      A                      A
 Frequencies --   1486.6388              1555.7293              1645.5154
 Red. masses --      1.0477                 2.4098                 6.9302
 Frc consts  --      1.3642                 3.4363                11.0560
 IR Inten    --      7.2987                85.3097                 0.9880

                     70                     71                     72
                      A                      A                      A
 Frequencies --   1664.7283              1799.9342              3097.6634
 Red. masses --      5.7397                 9.2528                 1.0292
 Frc consts  --      9.3719                17.6619                 5.8185
 IR Inten    --     19.1900               217.4561                 0.2944

                     73                     74                     75
                      A                      A                      A
 Frequencies --   3127.2704              3198.5432              3207.1893
 Red. masses --      1.0850                 1.1068                 1.0902
 Frc consts  --      6.2520                 6.6715                 6.6073
 IR Inten    --      0.6763                 0.0937                 5.7050

                     76                     77                     78
                      A                      A                      A
 Frequencies --   3209.4499              3225.4801              3239.9507
 Red. masses --      1.1087                 1.0888                 1.0940
 Frc consts  --      6.7288                 6.6742                 6.7659
 IR Inten    --      0.0364                 2.3720                 0.9843

                     79                     80                     81
                      A                      A                      A
 Frequencies --   3242.1616              3468.8886              3668.7503
 Red. masses --      1.0950                 1.0655                 1.0640
 Frc consts  --      6.7814                 7.5540                 8.4374
 IR Inten    --      0.8951               231.9729                83.7627

 - Thermochemistry -
 -------------------
 Temperature   298.150 Kelvin.  Pressure   1.00000 Atm.
 Atom     1 has atomic number  6 and mass  12.00000

 Molecular mass:   309.98171 amu.
 Principal axes and moments of inertia in atomic units:
                           1         2         3
     Eigenvalues --  2320.44961********************
           X            0.99995   0.00969  -0.00316
           Y           -0.00964   0.99983   0.01543
           Z            0.00331  -0.01540   0.99988
 This molecule is an asymmetric top.
 Rotational symmetry number  1.
 Warning -- assumption of classical behavior for rotation
           may cause significant error
 Rotational temperatures (Kelvin)      0.03733     0.00675     0.00638
 Rotational constants (GHZ):           0.77775     0.14059     0.13304
 Zero-point vibrational energy     529359.7 (Joules/Mol)
                                  126.52000 (Kcal/Mol)
 Warning -- explicit consideration of  29 degrees of freedom as
           vibrations may cause significant error
 Vibrational temperatures:     14.25    41.74    51.92    63.21    87.95
          (Kelvin)            108.52   131.26   195.58   248.90   271.81
                              278.10   308.54   352.10   396.95   416.24
                              441.97   466.89   519.34   531.87   609.32
                              626.95   649.22   668.30   687.87   699.95
                              731.27   808.53   820.78   877.10   911.66
                              937.96   961.21   984.79  1046.64  1064.22
                             1103.43  1117.30  1200.37  1203.64  1231.02
                             1258.92  1294.33  1371.57  1383.34  1397.69
                             1445.87  1451.32  1503.01  1642.96  1648.86
                             1658.31  1711.13  1729.74  1752.01  1790.15
                             1807.45  1847.28  1856.71  1935.92  1948.96
                             1967.82  1993.60  2002.73  2061.49  2117.56
                             2130.61  2138.94  2238.35  2367.53  2395.17
                             2589.70  4456.85  4499.44  4601.99  4614.43
                             4617.68  4640.75  4661.57  4664.75  4990.96
                             5278.51

 Zero-point correction=                           0.201622 (Hartree/Particle)
 Thermal correction to Energy=                    0.220108
 Thermal correction to Enthalpy=                  0.221052
 Thermal correction to Gibbs Free Energy=         0.151428
 Sum of electronic and zero-point Energies=          -1746.891149
 Sum of electronic and thermal Energies=             -1746.872663
 Sum of electronic and thermal Enthalpies=           -1746.871719
 Sum of electronic and thermal Free Energies=        -1746.941343

                     E (Thermal)             CV                S
                      KCal/Mol        Cal/Mol-Kelvin    Cal/Mol-Kelvin
 Total                  138.120             67.968            146.537
 Electronic               0.000              0.000              0.000
 Translational            0.889              2.981             43.090
 Rotational               0.889              2.981             34.357
 Vibrational            136.342             62.006             69.090
 Vibration     1          0.593              1.987              8.030
 Vibration     2          0.593              1.984              5.896
 Vibration     3          0.594              1.982              5.463
 Vibration     4          0.595              1.980              5.073
 Vibration     5          0.597              1.973              4.420
 Vibration     6          0.599              1.965              4.006
 Vibration     7          0.602              1.955              3.634
 Vibration     8          0.614              1.917              2.860
 Vibration     9          0.627              1.876              2.403
 Vibration    10          0.633              1.855              2.238
 Vibration    11          0.635              1.849              2.196
 Vibration    12          0.644              1.819              2.005
 Vibration    13          0.660              1.772              1.768
 Vibration    14          0.678              1.718              1.559
 Vibration    15          0.686              1.694              1.478
 Vibration    16          0.697              1.660              1.377
 Vibration    17          0.709              1.626              1.287
 Vibration    18          0.735              1.553              1.118
 Vibration    19          0.742              1.535              1.081
 Vibration    20          0.786              1.419              0.880
 Vibration    21          0.796              1.392              0.840
 Vibration    22          0.810              1.358              0.792
 Vibration    23          0.822              1.329              0.753
 Vibration    24          0.835              1.299              0.715
 Vibration    25          0.842              1.280              0.693
 Vibration    26          0.863              1.232              0.638
 Vibration    27          0.918              1.114              0.520
 Vibration    28          0.927              1.095              0.503
 Vibration    29          0.969              1.011              0.433

                           ! Non-Optimized Parameters !
 Normal termination of Gaussian 16 at Sun Dec 13 20:52:40 2020.

 ----------------------------------------------------------------------
 # B3LYP/6-311++G(d,p) empiricaldispersion=gd3bj scf=xqc pop=npa geom=c
 heck
 ----------------------------------------------------------------------

 ---------------------------------------
 CID_151538358_JID_9613_Energie_neutraal
 ---------------------------------------
 Structure from the checkpoint file:  "JID_9613.chk"
 Charge =  0 Multiplicity = 1

 SCF Done:  E(RB3LYP) =  -1747.43339798     A.U. after   16 cycles
 Normal termination of Gaussian 16 at Sun Dec 13 20:58:09 2020.

 ----------------------------------------------------------------------
 # B3LYP/6-311++G(d,p) empiricaldispersion=gd3bj scf=xqc pop=npa geom=c
 heck
 ----------------------------------------------------------------------

 -------------------------------------
 CID_151538358_JID_9613_Energie_kation
 -------------------------------------
 Structure from the checkpoint file:  "JID_9613.chk"
 Charge =  1 Multiplicity = 2

 SCF Done:  E(UB3LYP) =  -1747.09252367     A.U. after   29 cycles
 Normal termination of Gaussian 16 at Sun Dec 13 21:12:19 2020.
 Gaussian 16:  ES64L-G16RevA.03 25-Dec-2016

 ----------------------------------------------------------------------
 # B3LYP/6-311++G(d,p) empiricaldispersion=gd3bj scf=xqc pop=npa geom=c
 heck
 ----------------------------------------------------------------------

 ------------------------------------
 CID_151538358_JID_9613_Energie_anion
 ------------------------------------
 Structure from the checkpoint file:  "JID_9613.chk"
 Charge = -1 Multiplicity = 2

                         Standard orientation:
 ---------------------------------------------------------------------
 Center     Atomic      Atomic             Coordinates (Angstroms)
 Number     Number       Type             X           Y           Z
 ---------------------------------------------------------------------
      1          6           0       -5.662675   -0.704873    0.509265
      2         16           0       -4.238083    0.240883   -0.024814
      3          8           0       -4.236430    0.377906   -1.477311
      4          8           0       -4.059117    1.410265    0.829454
      5          8           0       -3.109530   -0.916794    0.405769
      6          6           0       -1.778817   -0.577561    0.133583
      7          6           0       -1.042869    0.108915    1.095069
      8          6           0        0.292994    0.403060    0.838400
      9          6           0        0.879082    0.025147   -0.375678
     10          6           0        0.117287   -0.661095   -1.328062
     11          6           0       -1.218232   -0.962805   -1.080648
     12          6           0        2.334092    0.299534   -0.668473
     13          6           0        2.783801    1.665627   -0.182340
     14          8           0        3.173476    1.913871    0.946144
     15          8           0        2.665216    2.593274   -1.134936
     16         16           0        3.453478   -0.979094    0.057125
     17          8           0        2.904748   -2.293082   -0.227544
     18          8           0        4.807258   -0.603926   -0.341144
     19          8           0        3.243708   -0.722782    1.646223
     20          1           0       -6.540343   -0.088819    0.304358
     21          1           0       -5.568436   -0.900709    1.577691
     22          1           0       -5.698338   -1.631966   -0.063402
     23          1           0       -1.518156    0.403357    2.023211
     24          1           0        0.876608    0.927529    1.586195
     25          1           0        0.572439   -0.965285   -2.265424
     26          1           0       -1.826303   -1.484354   -1.810295
     27          1           0        2.527700    0.225660   -1.741056
     28          1           0        2.937965    3.447167   -0.745265
     29          1           0        3.447944    0.233241    1.797069
 ---------------------------------------------------------------------

 SCF Done:  E(UB3LYP) =  -1747.45066756     A.U. after   33 cycles
 SCF Done:  E(UB3LYP) =  -1747.45066756     a.u. after    1 cycles

 The electronic state is 2-A.
 Alpha  occ. eigenvalues --  -88.97780 -88.95557 -19.07422 -19.07211 -19.05921
 Alpha  occ. eigenvalues --  -19.03504 -19.03476 -19.01408 -19.01360 -19.01131
 Alpha  occ. eigenvalues --  -10.19103 -10.13137 -10.11540 -10.11047 -10.06923
 Alpha  occ. eigenvalues --  -10.06484 -10.06240 -10.06231 -10.06159  -8.04067
 Alpha  occ. eigenvalues --   -8.01831  -6.00415  -6.00230  -6.00119  -5.98191
 Alpha  occ. eigenvalues --   -5.98012  -5.97839  -1.05119  -1.03860  -1.01524
 Alpha  occ. eigenvalues --   -0.95054  -0.93314  -0.92727  -0.92047  -0.90884
 Alpha  occ. eigenvalues --   -0.75530  -0.70964  -0.69090  -0.64189  -0.62112
 Alpha  occ. eigenvalues --   -0.55868  -0.55414  -0.51766  -0.50931  -0.48229
 Alpha  occ. eigenvalues --   -0.44540  -0.43708  -0.41987  -0.41518  -0.40038
 Alpha  occ. eigenvalues --   -0.39858  -0.39212  -0.38471  -0.36791  -0.36424
 Alpha  occ. eigenvalues --   -0.35556  -0.35331  -0.34796  -0.34529  -0.32453
 Alpha  occ. eigenvalues --   -0.31815  -0.31346  -0.30005  -0.27772  -0.27142
 Alpha  occ. eigenvalues --   -0.26739  -0.26059  -0.24965  -0.24801  -0.24222
 Alpha  occ. eigenvalues --   -0.23570  -0.23410  -0.23118  -0.21794  -0.21054
 Alpha  occ. eigenvalues --   -0.20052  -0.19975  -0.19071  -0.14925  -0.13957
 Alpha  occ. eigenvalues --    0.03198
 Alpha virt. eigenvalues --    0.05114   0.07295   0.08266   0.08841   0.09126
 Alpha virt. eigenvalues --    0.09626   0.09760   0.10439   0.10635   0.11931
 Alpha virt. eigenvalues --    0.12222   0.12682   0.13336   0.14403   0.14718

  Beta  occ. eigenvalues --  -88.97716 -88.95483 -19.07328 -19.07185 -19.05888
  Beta  occ. eigenvalues --  -19.03482 -19.03451 -19.01368 -19.01324 -19.00952
  Beta  occ. eigenvalues --  -10.18713 -10.13085 -10.11546 -10.10754 -10.06731
  Beta  occ. eigenvalues --  -10.06521 -10.06201 -10.06138 -10.06129  -8.03992
  Beta  occ. eigenvalues --   -8.01746  -6.00295  -6.00180  -6.00065  -5.98130
  Beta  occ. eigenvalues --   -5.97957  -5.97699  -1.04977  -1.03711  -1.01189
  Beta  occ. eigenvalues --   -0.94916  -0.93180  -0.92658  -0.91775  -0.90772
  Beta  occ. eigenvalues --   -0.75230  -0.70681  -0.68837  -0.63984  -0.61720
  Beta  occ. eigenvalues --   -0.55488  -0.55093  -0.51621  -0.50813  -0.47918
  Beta  occ. eigenvalues --   -0.44391  -0.43482  -0.41852  -0.41282  -0.39784
  Beta  occ. eigenvalues --   -0.39712  -0.38928  -0.38246  -0.36659  -0.36327
  Beta  occ. eigenvalues --   -0.35443  -0.35081  -0.34435  -0.34079  -0.32244
  Beta  occ. eigenvalues --   -0.31743  -0.31066  -0.29843  -0.27398  -0.26996
  Beta  occ. eigenvalues --   -0.26600  -0.25978  -0.24759  -0.24560  -0.24132
  Beta  occ. eigenvalues --   -0.23469  -0.23174  -0.22476  -0.21638  -0.20782
  Beta  occ. eigenvalues --   -0.19992  -0.19905  -0.18915  -0.14337  -0.12838
  Beta virt. eigenvalues --    0.05509   0.07294   0.07961   0.08997   0.09217
  Beta virt. eigenvalues --    0.09590   0.09642   0.10176   0.10616   0.11277
  Beta virt. eigenvalues --    0.12153   0.12200   0.13007   0.13372   0.14391

 Mulliken charges and spin densities:
               1          2
     1  C   -0.058339  -0.401746
     2  S   -0.091324   0.164872
     3  O   -0.179143   0.012322
     4  O   -0.178450   0.011745
     5  O   -0.147008  -0.006184
     6  C   -0.078904   0.152306
     7  C   -0.099790   0.056346
     8  C   -0.288598   0.075360
     9  C    0.663431   0.049027
    10  C   -0.300147   0.115232
    11  C   -0.202050  -0.070815
    12  C   -0.407472   0.015958
    13  C   -0.471073   0.213995
    14  O   -0.342658   0.063018
    15  O   -0.157023   0.016255
    16  S    0.188199   0.069658
    17  O   -0.220509   0.014302
    18  O   -0.160863   0.005464
    19  O   -0.158994   0.005115
    20  H   -0.022573   0.225141
    21  H    0.109331   0.101374
    22  H    0.107509   0.103493
    23  H    0.191092  -0.006952
    24  H    0.156345  -0.004890
    25  H    0.128074  -0.005075
    26  H    0.179026   0.000485
    27  H    0.335249   0.005086
    28  H    0.261467  -0.000862
    29  H    0.245195   0.019970
 Sum of Mulliken charges =  -1.00000   1.00000

 Dipole moment (field-independent basis, Debye):
    X=             -2.6182    Y=              1.2974    Z=             -0.0250  Tot=              2.9221
 Quadrupole moment (field-independent basis, Debye-Ang):
   XX=           -202.6749   YY=           -143.2215   ZZ=           -135.6688
   XY=             19.6296   XZ=             -5.6686   YZ=              0.4880

 Summary of Natural Population Analysis:

                                       Natural Population
                Natural  -----------------------------------------------
    Atom  No    Charge         Core      Valence    Rydberg      Total
 -----------------------------------------------------------------------
      C    1   -0.38993      0.99960     2.38303    0.00730     3.38993
      S    2    1.12768      4.99937     1.77408    0.09886     6.87232
      O    3   -0.44903      0.99990     3.44304    0.00609     4.44903
      O    4   -0.44872      0.99990     3.44275    0.00607     4.44872
      O    5   -0.36548      0.99988     3.35696    0.00864     4.36548
      C    6    0.17673      0.99935     1.81148    0.01244     2.82327
      C    7   -0.10915      0.99952     2.10162    0.00802     3.10915
      C    8   -0.08147      0.99952     2.07204    0.00991     3.08147
      C    9   -0.00989      0.99949     1.99934    0.01106     3.00989
      C   10   -0.06459      0.99953     2.05730    0.00777     3.06459
      C   11   -0.11902      0.99952     2.11134    0.00816     3.11902
      C   12   -0.24817      0.99945     2.22874    0.01998     3.24817
      C   13    0.46167      0.99969     1.51380    0.02484     2.53833
      O   14   -0.32557      0.99985     3.31863    0.00709     4.32557
      O   15   -0.33166      0.99987     3.32591    0.00589     4.33166
      S   16    1.14559      4.99938     1.75279    0.10224     6.85441
      O   17   -0.44814      0.99990     3.44181    0.00643     4.44814
      O   18   -0.46040      0.99990     3.45437    0.00612     4.46040
      O   19   -0.44297      0.99990     3.43639    0.00668     4.44297
      H   20    0.11692      0.00000     0.38172    0.00135     0.38308
      H   21    0.11853      0.00000     0.38060    0.00087     0.38147
      H   22    0.11837      0.00000     0.38075    0.00087     0.38163
      H   23    0.10504      0.00000     0.39402    0.00095     0.39496
      H   24    0.10462      0.00000     0.39408    0.00130     0.39538
      H   25    0.09594      0.00000     0.40283    0.00123     0.40406
      H   26    0.10462      0.00000     0.39438    0.00099     0.39538
      H   27    0.12503      0.00000     0.37378    0.00120     0.37497
      H   28    0.23703      0.00000     0.26046    0.00251     0.26297
      H   29    0.25640      0.00000     0.23954    0.00406     0.24360
 =======================================================================
   * Total *    0.00000     26.99353    52.62757    0.37890    80.00000

 Normal termination of Gaussian 16 at Sun Dec 13 21:28:16 2020.
