 Gaussian 16, Revision A.03,

 -----------------------------------------------------------
 # opt freq B3LYP/6-31G(d) empiricaldispersion=gd3bj scf=xqc
 -----------------------------------------------------------

 ------------------------------
 CID_12174893_JID_3826_neutraal
 ------------------------------
 Symbolic Z-matrix:
 Charge =  0 Multiplicity = 1

 SCF Done:  E(RB3LYP) =  -539.772953986     A.U. after   14 cycles
 SCF Done:  E(RB3LYP) =  -539.777377878     A.U. after   12 cycles
 SCF Done:  E(RB3LYP) =  -539.777752643     A.U. after   11 cycles
 SCF Done:  E(RB3LYP) =  -539.777859795     A.U. after   10 cycles
 SCF Done:  E(RB3LYP) =  -539.777982676     A.U. after   11 cycles
 SCF Done:  E(RB3LYP) =  -539.777998310     A.U. after   11 cycles
 SCF Done:  E(RB3LYP) =  -539.778050628     A.U. after    9 cycles
 SCF Done:  E(RB3LYP) =  -539.778349262     A.U. after   12 cycles
 SCF Done:  E(RB3LYP) =  -539.778409598     A.U. after    9 cycles
 SCF Done:  E(RB3LYP) =  -539.778454002     A.U. after   10 cycles
 SCF Done:  E(RB3LYP) =  -539.778460144     A.U. after    7 cycles
 SCF Done:  E(RB3LYP) =  -539.778460227     A.U. after    7 cycles
 SCF Done:  E(RB3LYP) =  -539.778460298     A.U. after    7 cycles
 SCF Done:  E(RB3LYP) =  -539.778460341     A.U. after    7 cycles
 SCF Done:  E(RB3LYP) =  -539.778460352     A.U. after    7 cycles
 Optimization completed.
    -- Stationary point found.
 Normal termination of Gaussian 16 at Sun Dec 13 20:01:06 2020.

 --------------------------------------------------------------------
 #N Geom=AllCheck Guess=TCheck SCRF=Check GenChk RB3LYP/6-31G(d) Freq
 --------------------------------------------------------------------

 Structure from the checkpoint file:  "JID_3826.chk"
 ------------------------------
 CID_12174893_JID_3826_neutraal
 ------------------------------
 Charge =  0 Multiplicity = 1

 SCF Done:  E(RB3LYP) =  -539.778460352     A.U. after    1 cycles

  Exact polarizability: 184.145   8.708 144.662  -4.006   5.792  56.192
 Approx polarizability: 300.513  14.075 237.789 -11.638  17.544  87.698

                      1                      2                      3
                      A                      A                      A
 Frequencies --     47.4461                90.9501                99.7479
 Red. masses --      2.7589                 1.4904                 1.7594
 Frc consts  --      0.0037                 0.0073                 0.0103
 IR Inten    --      3.1718                 0.5737                 0.2608

                      4                      5                      6
                      A                      A                      A
 Frequencies --    146.9064               169.1531               193.6320
 Red. masses --      3.1757                 1.1528                 3.6745
 Frc consts  --      0.0404                 0.0194                 0.0812
 IR Inten    --      2.1208                 0.1217                 0.6582

                      7                      8                      9
                      A                      A                      A
 Frequencies --    228.1514               269.9904               346.2871
 Red. masses --      3.1165                 3.5276                 3.7622
 Frc consts  --      0.0956                 0.1515                 0.2658
 IR Inten    --      4.6443                 1.2023                 0.1865

                     10                     11                     12
                      A                      A                      A
 Frequencies --    359.5320               427.5948               451.0247
 Red. masses --      3.5962                 4.7821                 3.3918
 Frc consts  --      0.2739                 0.5152                 0.4065
 IR Inten    --      2.1969                 2.7977                 4.1654

                     13                     14                     15
                      A                      A                      A
 Frequencies --    497.8229               515.9860               539.0520
 Red. masses --      4.3851                 3.5055                 6.6203
 Frc consts  --      0.6403                 0.5499                 1.1334
 IR Inten    --      0.7979                 0.9578                 0.5502

                     16                     17                     18
                      A                      A                      A
 Frequencies --    551.8977               602.3356               687.9954
 Red. masses --      5.4598                 3.3101                 3.9768
 Frc consts  --      0.9798                 0.7076                 1.1091
 IR Inten    --      3.1193                 3.3640                 0.9203

                     19                     20                     21
                      A                      A                      A
 Frequencies --    714.4156               734.7367               763.5245
 Red. masses --      5.2516                 5.6442                 1.4986
 Frc consts  --      1.5792                 1.7952                 0.5147
 IR Inten    --      0.4360                 7.7622                13.6763

                     22                     23                     24
                      A                      A                      A
 Frequencies --    806.7252               845.3500               875.5331
 Red. masses --      1.9161                 1.7183                 4.2022
 Frc consts  --      0.7347                 0.7235                 1.8979
 IR Inten    --      1.4923                43.5100                 4.6845

                     25                     26                     27
                      A                      A                      A
 Frequencies --    908.8454               918.2642               925.4480
 Red. masses --      1.4627                 1.5014                 3.4569
 Frc consts  --      0.7119                 0.7459                 1.7444
 IR Inten    --      0.6120                 4.1757                 2.2078

                     28                     29                     30
                      A                      A                      A
 Frequencies --    962.4551               971.7548              1021.9109
 Red. masses --      1.2673                 1.2952                 2.9442
 Frc consts  --      0.6917                 0.7206                 1.8115
 IR Inten    --      0.1098                 0.8898                17.0285

                     31                     32                     33
                      A                      A                      A
 Frequencies --   1038.5859              1078.0496              1082.6194
 Red. masses --      1.8333                 1.5205                 2.2746
 Frc consts  --      1.1651                 1.0411                 1.5708
 IR Inten    --     20.6295                 6.1162                24.7184

                     34                     35                     36
                      A                      A                      A
 Frequencies --   1117.8219              1186.1676              1187.4767
 Red. masses --      2.6843                 1.2907                 1.2700
 Frc consts  --      1.9762                 1.0700                 1.0551
 IR Inten    --     65.0000                 1.2065                 3.0190

                     37                     38                     39
                      A                      A                      A
 Frequencies --   1190.8852              1214.9009              1238.7516
 Red. masses --      1.1882                 1.4807                 2.3334
 Frc consts  --      0.9929                 1.2876                 2.1096
 IR Inten    --      0.5192                 7.7703                28.8327

                     40                     41                     42
                      A                      A                      A
 Frequencies --   1252.6556              1274.9112              1300.2146
 Red. masses --      2.1562                 2.0896                 2.0148
 Frc consts  --      1.9934                 2.0011                 2.0068
 IR Inten    --      4.9893                50.0315                57.2106

                     43                     44                     45
                      A                      A                      A
 Frequencies --   1372.6199              1420.0062              1425.5197
 Red. masses --      3.0468                 4.1157                 3.4904
 Frc consts  --      3.3821                 4.8896                 4.1790
 IR Inten    --      9.3654                13.0607                16.9169

                     46                     47                     48
                      A                      A                      A
 Frequencies --   1442.7403              1481.4540              1498.2037
 Red. masses --      1.2683                 1.8802                 1.8245
 Frc consts  --      1.5554                 2.4313                 2.4128
 IR Inten    --      0.4651                31.1547                 2.7777

                     49                     50                     51
                      A                      A                      A
 Frequencies --   1511.0327              1513.5171              1515.8294
 Red. masses --      1.4550                 1.0458                 1.0649
 Frc consts  --      1.9573                 1.4115                 1.4417
 IR Inten    --     18.7617                 5.2815                 3.2758

                     52                     53                     54
                      A                      A                      A
 Frequencies --   1529.7490              1535.1453              1562.5893
 Red. masses --      1.4456                 1.0565                 3.0582
 Frc consts  --      1.9931                 1.4670                 4.3995
 IR Inten    --      2.3815                 5.8359                 6.5341

                     55                     56                     57
                      A                      A                      A
 Frequencies --   1632.7158              1662.7229              1692.7314
 Red. masses --      6.6679                 5.5490                 6.3149
 Frc consts  --     10.4728                 9.0387                10.6608
 IR Inten    --     18.3559                27.9465                 3.2351

                     58                     59                     60
                      A                      A                      A
 Frequencies --   3024.9205              3040.5737              3083.8576
 Red. masses --      1.0328                 1.0379                 1.1066
 Frc consts  --      5.5681                 5.6534                 6.2004
 IR Inten    --     55.4921                39.9327                36.0209

                     61                     62                     63
                      A                      A                      A
 Frequencies --   3090.4550              3128.6332              3148.6733
 Red. masses --      1.1007                 1.1004                 1.1013
 Frc consts  --      6.1937                 6.3460                 6.4330
 IR Inten    --     21.7189                16.2281                37.7978

                     64                     65                     66
                      A                      A                      A
 Frequencies --   3173.6444              3183.3148              3192.6059
 Red. masses --      1.0862                 1.0866                 1.0949
 Frc consts  --      6.4457                 6.4874                 6.5753
 IR Inten    --      7.1723                 0.4659                27.7213

                     67                     68                     69
                      A                      A                      A
 Frequencies --   3199.2979              3209.9377              3212.8432
 Red. masses --      1.0917                 1.0900                 1.0952
 Frc consts  --      6.5835                 6.6169                 6.6607
 IR Inten    --     30.2212                 9.6661                15.5649

 - Thermochemistry -
 -------------------
 Temperature   298.150 Kelvin.  Pressure   1.00000 Atm.
 Atom     1 has atomic number  6 and mass  12.00000

 Molecular mass:   172.08882 amu.
 Principal axes and moments of inertia in atomic units:
                           1         2         3
     Eigenvalues --  1526.713552503.739613892.90826
           X            0.99986   0.01550   0.00705
           Y           -0.01543   0.99983  -0.00974
           Z           -0.00720   0.00963   0.99993
 This molecule is an asymmetric top.
 Rotational symmetry number  1.
 Warning -- assumption of classical behavior for rotation
           may cause significant error
 Rotational temperatures (Kelvin)      0.05673     0.03459     0.02225
 Rotational constants (GHZ):           1.18211     0.72082     0.46360
 Zero-point vibrational energy     546231.9 (Joules/Mol)
                                  130.55256 (Kcal/Mol)
 Warning -- explicit consideration of  17 degrees of freedom as
           vibrations may cause significant error
 Vibrational temperatures:     68.26   130.86   143.51   211.37   243.37
          (Kelvin)            278.59   328.26   388.46   498.23   517.29
                              615.21   648.92   716.26   742.39   775.58
                              794.06   866.63   989.87  1027.88  1057.12
                             1098.54  1160.70  1216.27  1259.70  1307.63
                             1321.18  1331.51  1384.76  1398.14  1470.30
                             1494.29  1551.07  1557.65  1608.30  1706.63
                             1708.51  1713.42  1747.97  1782.29  1802.29
                             1834.31  1870.72  1974.89  2043.07  2051.00
                             2075.78  2131.48  2155.58  2174.04  2177.61
                             2180.94  2200.97  2208.73  2248.22  2349.11
                             2392.29  2435.46  4352.19  4374.71  4436.98
                             4446.48  4501.41  4530.24  4566.17  4580.08
                             4593.45  4603.08  4618.38  4622.56

 Zero-point correction=                           0.208049 (Hartree/Particle)
 Thermal correction to Energy=                    0.219446
 Thermal correction to Enthalpy=                  0.220391
 Thermal correction to Gibbs Free Energy=         0.170430
 Sum of electronic and zero-point Energies=           -539.570412
 Sum of electronic and thermal Energies=              -539.559014
 Sum of electronic and thermal Enthalpies=            -539.558070
 Sum of electronic and thermal Free Energies=         -539.608031

                     E (Thermal)             CV                S
                      KCal/Mol        Cal/Mol-Kelvin    Cal/Mol-Kelvin
 Total                  137.705             43.994            105.151
 Electronic               0.000              0.000              0.000
 Translational            0.889              2.981             41.336
 Rotational               0.889              2.981             31.076
 Vibrational            135.927             38.032             32.739
 Vibration     1          0.595              1.979              4.921
 Vibration     2          0.602              1.956              3.640
 Vibration     3          0.604              1.949              3.459
 Vibration     4          0.617              1.906              2.712
 Vibration     5          0.625              1.880              2.445
 Vibration     6          0.635              1.849              2.193
 Vibration     7          0.651              1.798              1.893
 Vibration     8          0.674              1.728              1.596
 Vibration     9          0.724              1.583              1.183
 Vibration    10          0.734              1.556              1.124
 Vibration    11          0.789              1.410              0.867
 Vibration    12          0.810              1.359              0.793
 Vibration    13          0.853              1.255              0.664
 Vibration    14          0.871              1.215              0.619
 Vibration    15          0.894              1.164              0.567
 Vibration    16          0.907              1.136              0.540
 Vibration    17          0.961              1.027              0.446

 Optimization completed.
    -- Stationary point found.
 Normal termination of Gaussian 16 at Sun Dec 13 20:07:14 2020.

 ----------------------------------------------------------------------
 # B3LYP/6-311++G(d,p) empiricaldispersion=gd3bj scf=xqc pop=npa geom=c
 heck
 ----------------------------------------------------------------------

 --------------------------------------
 CID_12174893_JID_3826_Energie_neutraal
 --------------------------------------
 Structure from the checkpoint file:  "JID_3826.chk"
 Charge =  0 Multiplicity = 1

 SCF Done:  E(RB3LYP) =  -539.917511079     A.U. after   14 cycles
 Normal termination of Gaussian 16 at Sun Dec 13 20:09:41 2020.

 ----------------------------------------------------------------------
 # B3LYP/6-311++G(d,p) empiricaldispersion=gd3bj scf=xqc pop=npa geom=c
 heck
 ----------------------------------------------------------------------

 ------------------------------------
 CID_12174893_JID_3826_Energie_kation
 ------------------------------------
 Structure from the checkpoint file:  "JID_3826.chk"
 Charge =  1 Multiplicity = 2

 SCF Done:  E(UB3LYP) =  -539.636819417     A.U. after   20 cycles
 Normal termination of Gaussian 16 at Sun Dec 13 20:14:38 2020.
 Gaussian 16:  ES64L-G16RevA.03 25-Dec-2016

 ----------------------------------------------------------------------
 # B3LYP/6-311++G(d,p) empiricaldispersion=gd3bj scf=xqc pop=npa geom=c
 heck
 ----------------------------------------------------------------------

 -----------------------------------
 CID_12174893_JID_3826_Energie_anion
 -----------------------------------
 Structure from the checkpoint file:  "JID_3826.chk"
 Charge = -1 Multiplicity = 2

                         Standard orientation:
 ---------------------------------------------------------------------
 Center     Atomic      Atomic             Coordinates (Angstroms)
 Number     Number       Type             X           Y           Z
 ---------------------------------------------------------------------
      1          6           0       -3.467262   -1.370690   -0.116073
      2          6           0       -2.291603   -0.428751   -0.049468
      3          6           0       -0.997084   -0.878701   -0.199170
      4          6           0        0.106878    0.010159   -0.138076
      5          6           0       -0.122918    1.406881    0.068467
      6          6           0        0.981155    2.296870    0.113733
      7          6           0        2.265553    1.827146   -0.043620
      8          6           0        2.504531    0.447669   -0.241974
      9          6           0        1.450780   -0.437913   -0.284957
     10          8           0        1.683528   -1.783327   -0.495495
     11          6           0        1.945683   -2.511797    0.702233
     12          6           0       -1.464680    1.847827    0.220276
     13          6           0       -2.511473    0.960026    0.166790
     14          1           0       -3.143340   -2.400653   -0.292593
     15          1           0       -4.044678   -1.353436    0.816996
     16          1           0       -4.156073   -1.091045   -0.923140
     17          1           0       -0.800124   -1.929567   -0.385021
     18          1           0        0.794779    3.356134    0.269906
     19          1           0        3.106431    2.514105   -0.015056
     20          1           0        3.514501    0.070352   -0.369481
     21          1           0        1.097042   -2.452073    1.396534
     22          1           0        2.103140   -3.551473    0.406262
     23          1           0        2.844648   -2.134259    1.206971
     24          1           0       -1.650630    2.907301    0.378406
     25          1           0       -3.531277    1.318861    0.285206
 ---------------------------------------------------------------------

 SCF Done:  E(UB3LYP) =  -539.907430613     A.U. after   33 cycles
 SCF Done:  E(UB3LYP) =  -539.907430613     a.u. after    1 cycles

 The electronic state is 2-A.
 Alpha  occ. eigenvalues --  -19.00364 -10.09239 -10.06989 -10.04951 -10.03953
 Alpha  occ. eigenvalues --  -10.03885 -10.03787 -10.03241 -10.02697 -10.02520
 Alpha  occ. eigenvalues --  -10.02252 -10.01991 -10.01764  -0.91851  -0.72964
 Alpha  occ. eigenvalues --   -0.68577  -0.63502  -0.62112  -0.59111  -0.56624
 Alpha  occ. eigenvalues --   -0.54347  -0.48220  -0.46344  -0.44678  -0.38796
 Alpha  occ. eigenvalues --   -0.36995  -0.35851  -0.33732  -0.33139  -0.32273
 Alpha  occ. eigenvalues --   -0.30664  -0.30100  -0.28708  -0.28565  -0.26199
 Alpha  occ. eigenvalues --   -0.25683  -0.24926  -0.23816  -0.22320  -0.20593
 Alpha  occ. eigenvalues --   -0.19432  -0.18322  -0.14403  -0.14145  -0.10609
 Alpha  occ. eigenvalues --   -0.07904   0.05691
 Alpha virt. eigenvalues --    0.07821   0.08268   0.09028   0.09945   0.10672
 Alpha virt. eigenvalues --    0.10929   0.11293   0.12052   0.12475   0.12942
 Alpha virt. eigenvalues --    0.13703   0.14076   0.14660   0.15335   0.16690

  Beta  occ. eigenvalues --  -19.00375 -10.09179 -10.06729 -10.04948 -10.04014
  Beta  occ. eigenvalues --  -10.03845 -10.03841 -10.03218 -10.02610 -10.02448
  Beta  occ. eigenvalues --  -10.02013 -10.01740 -10.01551  -0.91765  -0.72733
  Beta  occ. eigenvalues --   -0.68283  -0.63200  -0.61873  -0.58817  -0.56439
  Beta  occ. eigenvalues --   -0.54149  -0.47835  -0.46152  -0.44424  -0.38677
  Beta  occ. eigenvalues --   -0.36764  -0.35709  -0.33584  -0.32915  -0.32203
  Beta  occ. eigenvalues --   -0.30588  -0.29973  -0.28554  -0.28450  -0.26088
  Beta  occ. eigenvalues --   -0.25601  -0.24534  -0.23578  -0.22096  -0.20464
  Beta  occ. eigenvalues --   -0.19290  -0.17472  -0.14378  -0.13077  -0.10019
  Beta  occ. eigenvalues --   -0.06497
  Beta virt. eigenvalues --    0.07953   0.08627   0.09046   0.09970   0.10333
  Beta virt. eigenvalues --    0.10774   0.10888   0.11538   0.12257   0.12519
  Beta virt. eigenvalues --    0.12929   0.13671   0.14362   0.14913   0.15383

 Mulliken charges and spin densities:
               1          2
     1  C   -0.042123  -0.434434
     2  C   -0.090260   0.445090
     3  C   -0.310095   0.143214
     4  C    0.854600  -0.240888
     5  C    0.510247  -0.060908
     6  C   -0.662844   0.215350
     7  C   -0.232335   0.029833
     8  C   -0.047222  -0.004901
     9  C   -0.725587   0.193904
    10  O   -0.194067   0.027197
    11  C    0.511099  -0.785333
    12  C   -0.249272   0.219609
    13  C   -0.472462   0.074161
    14  H   -0.024025   0.161168
    15  H    0.080655   0.047567
    16  H    0.092667   0.035817
    17  H    0.073716   0.020375
    18  H    0.075690  -0.016775
    19  H    0.094624   0.015144
    20  H    0.037393   0.092067
    21  H    0.033316   0.084598
    22  H   -0.450857   0.591973
    23  H   -0.010504   0.122679
    24  H    0.072823  -0.001072
    25  H    0.074821   0.024564
 Sum of Mulliken charges =  -1.00000   1.00000

 Dipole moment (field-independent basis, Debye):
    X=             -1.8328    Y=              2.7962    Z=              0.9410  Tot=              3.4732
 Quadrupole moment (field-independent basis, Debye-Ang):
   XX=           -108.7373   YY=           -113.0056   ZZ=            -94.0749
   XY=              6.8184   XZ=              0.8869   YZ=             -0.1063

 Summary of Natural Population Analysis:

                                       Natural Population
                Natural  -----------------------------------------------
    Atom  No    Charge         Core      Valence    Rydberg      Total
 -----------------------------------------------------------------------
      C    1   -0.28836      0.99964     2.28374    0.00498     3.28836
      C    2   -0.01795      0.99952     2.01036    0.00806     3.01795
      C    3   -0.06328      0.99949     2.05461    0.00918     3.06328
      C    4   -0.05010      0.99945     2.04184    0.00880     3.05010
      C    5   -0.03707      0.99950     2.02982    0.00776     3.03707
      C    6   -0.05971      0.99954     2.05136    0.00881     3.05971
      C    7   -0.10585      0.99958     2.09582    0.01045     3.10585
      C    8   -0.11814      0.99951     2.10962    0.00901     3.11814
      C    9    0.19772      0.99932     1.78879    0.01417     2.80228
      O   10   -0.29853      0.99987     3.28725    0.01142     4.29853
      C   11   -0.09160      0.99959     2.08265    0.00936     3.09160
      C   12   -0.05103      0.99954     2.04279    0.00870     3.05103
      C   13   -0.09551      0.99953     2.08684    0.00914     3.09551
      H   14    0.09900      0.00000     0.40010    0.00090     0.40100
      H   15    0.09552      0.00000     0.40306    0.00142     0.40448
      H   16    0.09579      0.00000     0.40267    0.00154     0.40421
      H   17    0.09671      0.00000     0.40138    0.00191     0.40329
      H   18    0.08688      0.00000     0.41178    0.00134     0.41312
      H   19    0.09046      0.00000     0.40859    0.00095     0.40954
      H   20    0.09617      0.00000     0.40281    0.00102     0.40383
      H   21    0.08100      0.00000     0.41788    0.00112     0.41900
      H   22    0.08705      0.00000     0.41060    0.00235     0.41295
      H   23    0.07760      0.00000     0.42109    0.00132     0.42240
      H   24    0.08641      0.00000     0.41208    0.00151     0.41359
      H   25    0.08681      0.00000     0.41175    0.00143     0.41319
 =======================================================================
   * Total *   -0.00000     12.99406    32.86928    0.13666    46.00000

 Normal termination of Gaussian 16 at Sun Dec 13 20:22:52 2020.
