 Gaussian 16, Revision A.03,

 -----------------------------------------------------------
 # opt freq B3LYP/6-31G(d) empiricaldispersion=gd3bj scf=xqc
 -----------------------------------------------------------

 -------------------------------
 CID_137309838_JID_7743_neutraal
 -------------------------------
 Symbolic Z-matrix:
 Charge =  0 Multiplicity = 1

 SCF Done:  E(RB3LYP) =  -814.445599635     A.U. after   15 cycles
 SCF Done:  E(RB3LYP) =  -814.450321044     A.U. after   13 cycles
 SCF Done:  E(RB3LYP) =  -814.450939238     A.U. after   12 cycles
 SCF Done:  E(RB3LYP) =  -814.451229828     A.U. after   12 cycles
 SCF Done:  E(RB3LYP) =  -814.451358204     A.U. after   11 cycles
 SCF Done:  E(RB3LYP) =  -814.451391896     A.U. after   11 cycles
 SCF Done:  E(RB3LYP) =  -814.451406504     A.U. after   10 cycles
 SCF Done:  E(RB3LYP) =  -814.451409989     A.U. after    9 cycles
 SCF Done:  E(RB3LYP) =  -814.451411248     A.U. after    8 cycles
 SCF Done:  E(RB3LYP) =  -814.451412955     A.U. after    9 cycles
 SCF Done:  E(RB3LYP) =  -814.452237971     A.U. after   11 cycles
 SCF Done:  E(RB3LYP) =  -814.452314314     A.U. after   11 cycles
 SCF Done:  E(RB3LYP) =  -814.452322735     A.U. after    9 cycles
 SCF Done:  E(RB3LYP) =  -814.452327815     A.U. after    9 cycles
 SCF Done:  E(RB3LYP) =  -814.452328190     A.U. after    8 cycles
 SCF Done:  E(RB3LYP) =  -814.452328260     A.U. after    7 cycles
 Optimization completed.
    -- Stationary point found.
 Normal termination of Gaussian 16 at Fri Dec 11 13:14:27 2020.

 --------------------------------------------------------------------
 #N Geom=AllCheck Guess=TCheck SCRF=Check GenChk RB3LYP/6-31G(d) Freq
 --------------------------------------------------------------------

 Structure from the checkpoint file:  "JID_7743.chk"
 -------------------------------
 CID_137309838_JID_7743_neutraal
 -------------------------------
 Charge =  0 Multiplicity = 1

 SCF Done:  E(RB3LYP) =  -814.452328260     A.U. after    1 cycles

  Exact polarizability: 243.701   1.776 133.310  -5.739   1.787  65.459
 Approx polarizability: 345.397  -0.136 250.761 -12.068   1.091 107.208

                      1                      2                      3
                      A                      A                      A
 Frequencies --     41.9247                55.3670                91.6721
 Red. masses --      5.8873                 5.2795                 4.7433
 Frc consts  --      0.0061                 0.0095                 0.0235
 IR Inten    --      0.2543                 0.8681                 2.0855

                      4                      5                      6
                      A                      A                      A
 Frequencies --     95.8271               136.4793               208.9003
 Red. masses --      4.7787                 4.7752                 6.3507
 Frc consts  --      0.0259                 0.0524                 0.1633
 IR Inten    --      3.8492                 1.4216                 3.5173

                      7                      8                      9
                      A                      A                      A
 Frequencies --    238.8847               241.3676               263.3964
 Red. masses --      4.5227                 4.8566                 6.8838
 Frc consts  --      0.1521                 0.1667                 0.2814
 IR Inten    --      4.4001                 0.7164                 3.5838

                     10                     11                     12
                      A                      A                      A
 Frequencies --    305.7539               324.1328               352.4022
 Red. masses --      4.4339                 1.3944                 4.4312
 Frc consts  --      0.2442                 0.0863                 0.3242
 IR Inten    --      4.0015                89.4353                 5.6590

                     13                     14                     15
                      A                      A                      A
 Frequencies --    388.2734               418.4766               439.7737
 Red. masses --      1.4322                 2.5597                 4.2037
 Frc consts  --      0.1272                 0.2641                 0.4790
 IR Inten    --     85.7861                26.6129                 2.7889

                     16                     17                     18
                      A                      A                      A
 Frequencies --    442.4130               470.2330               515.8904
 Red. masses --      5.2606                 4.1342                 7.1034
 Frc consts  --      0.6067                 0.5386                 1.1139
 IR Inten    --     11.7538                 0.6378                 3.1331

                     19                     20                     21
                      A                      A                      A
 Frequencies --    541.9684               548.0742               591.3205
 Red. masses --      4.6067                 6.1566                 4.2688
 Frc consts  --      0.7972                 1.0896                 0.8794
 IR Inten    --      0.5329                10.6112                19.9071

                     22                     23                     24
                      A                      A                      A
 Frequencies --    630.2672               668.9135               698.7489
 Red. masses --      3.3673                 5.5653                 5.3335
 Frc consts  --      0.7881                 1.4672                 1.5343
 IR Inten    --     49.8133                12.4693                 8.8856

                     25                     26                     27
                      A                      A                      A
 Frequencies --    719.1312               751.0535               756.0653
 Red. masses --      5.2634                 3.0293                 3.4043
 Frc consts  --      1.6037                 1.0068                 1.1466
 IR Inten    --     19.9132                71.5836                38.6511

                     28                     29                     30
                      A                      A                      A
 Frequencies --    765.4758               777.4245               812.7915
 Red. masses --      2.1269                 2.2196                 4.6872
 Frc consts  --      0.7343                 0.7904                 1.8244
 IR Inten    --     82.7376                30.1204                45.8256

                     31                     32                     33
                      A                      A                      A
 Frequencies --    830.7799               878.6083               924.9040
 Red. masses --      5.1123                 1.4271                11.0579
 Frc consts  --      2.0789                 0.6491                 5.5734
 IR Inten    --     37.9996                 1.3569                11.1604

                     34                     35                     36
                      A                      A                      A
 Frequencies --    947.7544               962.5026               979.9449
 Red. masses --      1.3489                11.6012                 1.2518
 Frc consts  --      0.7139                 6.3322                 0.7082
 IR Inten    --      2.6023               153.7058                 0.0253

                     37                     38                     39
                      A                      A                      A
 Frequencies --    990.6674              1024.9884              1051.7254
 Red. masses --      6.8170                 8.7143                 1.9233
 Frc consts  --      3.9419                 5.3941                 1.2534
 IR Inten    --      4.8101                44.1192                 5.6386

                     40                     41                     42
                      A                      A                      A
 Frequencies --   1067.0847              1102.1315              1134.7578
 Red. masses --      1.9757                 4.1430                 1.8645
 Frc consts  --      1.3255                 2.9651                 1.4145
 IR Inten    --     19.0036                 8.4888                38.6936

                     43                     44                     45
                      A                      A                      A
 Frequencies --   1164.7542              1189.6568              1215.1765
 Red. masses --      1.6087                 1.1664                 3.0000
 Frc consts  --      1.2859                 0.9726                 2.6101
 IR Inten    --      8.7739                 5.4079                27.1576

                     46                     47                     48
                      A                      A                      A
 Frequencies --   1251.5363              1265.6736              1320.0462
 Red. masses --      2.5739                 1.1847                 1.6374
 Frc consts  --      2.3754                 1.1182                 1.6810
 IR Inten    --     22.2118                21.4873                 0.5882

                     49                     50                     51
                      A                      A                      A
 Frequencies --   1331.4252              1357.5167              1367.2455
 Red. masses --      2.9775                 6.7649                 3.3095
 Frc consts  --      3.1098                 7.3451                 3.6451
 IR Inten    --    159.9521                14.0403                 1.8475

                     52                     53                     54
                      A                      A                      A
 Frequencies --   1405.8875              1429.1129              1487.5325
 Red. masses --      1.8216                 1.7205                 4.0283
 Frc consts  --      2.1213                 2.0704                 5.2518
 IR Inten    --      3.8083                14.1306                92.6839

                     55                     56                     57
                      A                      A                      A
 Frequencies --   1503.5289              1533.5614              1547.6713
 Red. masses --      2.6322                 1.2236                 2.9850
 Frc consts  --      3.5059                 1.6954                 4.2126
 IR Inten    --     51.3488                 5.0753                33.6007

                     58                     59                     60
                      A                      A                      A
 Frequencies --   1561.2838              1621.7907              1658.3465
 Red. masses --      6.2311                 5.7438                 1.5115
 Frc consts  --      8.9491                 8.9010                 2.4491
 IR Inten    --     20.3808                17.8179                50.0440

                     61                     62                     63
                      A                      A                      A
 Frequencies --   1659.0306              1690.8334              1732.6971
 Red. masses --      3.2093                 8.3909                 5.6701
 Frc consts  --      5.2043                14.1338                10.0296
 IR Inten    --     27.0105               109.8856                64.8807

                     64                     65                     66
                      A                      A                      A
 Frequencies --   2993.2008              3137.5697              3195.3726
 Red. masses --      1.0744                 1.0910                 1.0863
 Frc consts  --      5.6712                 6.3280                 6.5350
 IR Inten    --     77.1237                13.3438                 2.1609

                     67                     68                     69
                      A                      A                      A
 Frequencies --   3207.3407              3219.3269              3225.0543
 Red. masses --      1.0898                 1.0941                 1.0960
 Frc consts  --      6.6050                 6.6808                 6.7164
 IR Inten    --      9.3518                14.2496                11.7451

                     70                     71                     72
                      A                      A                      A
 Frequencies --   3547.2457              3649.8577              3780.3560
 Red. masses --      1.0470                 1.0986                 1.0679
 Frc consts  --      7.7622                 8.6228                 8.9918
 IR Inten    --     26.3567                26.9106               116.4750

 - Thermochemistry -
 -------------------
 Temperature   298.150 Kelvin.  Pressure   1.00000 Atm.
 Atom     1 has atomic number  6 and mass  12.00000

 Molecular mass:   231.06439 amu.
 Principal axes and moments of inertia in atomic units:
                           1         2         3
     Eigenvalues --  1284.129947114.348748183.81831
           X            0.99997   0.00737   0.00177
           Y           -0.00738   0.99992   0.00991
           Z           -0.00169  -0.00992   0.99995
 This molecule is an asymmetric top.
 Rotational symmetry number  1.
 Warning -- assumption of classical behavior for rotation
           may cause significant error
 Rotational temperatures (Kelvin)      0.06745     0.01217     0.01058
 Rotational constants (GHZ):           1.40542     0.25368     0.22053
 Zero-point vibrational energy     511032.0 (Joules/Mol)
                                  122.13959 (Kcal/Mol)
 Warning -- explicit consideration of  21 degrees of freedom as
           vibrations may cause significant error
 Vibrational temperatures:     60.32    79.66   131.90   137.87   196.36
          (Kelvin)            300.56   343.70   347.27   378.97   439.91
                              466.35   507.03   558.64   602.09   632.74
                              636.53   676.56   742.25   779.77   788.56
                              850.78   906.81   962.42  1005.34  1034.67
                             1080.60  1087.81  1101.35  1118.54  1169.43
                             1195.31  1264.12  1330.73  1363.61  1384.83
                             1409.92  1425.35  1474.73  1513.20  1535.30
                             1585.72  1632.66  1675.82  1711.65  1748.37
                             1800.68  1821.02  1899.25  1915.62  1953.16
                             1967.16  2022.76  2056.17  2140.23  2163.24
                             2206.45  2226.75  2246.34  2333.40  2385.99
                             2386.98  2432.73  2492.96  4306.55  4514.26
                             4597.43  4614.65  4631.89  4640.13  5103.70
                             5251.33  5439.09

 Zero-point correction=                           0.194642 (Hartree/Particle)
 Thermal correction to Energy=                    0.208224
 Thermal correction to Enthalpy=                  0.209168
 Thermal correction to Gibbs Free Energy=         0.153850
 Sum of electronic and zero-point Energies=           -814.257686
 Sum of electronic and thermal Energies=              -814.244104
 Sum of electronic and thermal Enthalpies=            -814.243160
 Sum of electronic and thermal Free Energies=         -814.298478

                     E (Thermal)             CV                S
                      KCal/Mol        Cal/Mol-Kelvin    Cal/Mol-Kelvin
 Total                  130.662             53.259            116.427
 Electronic               0.000              0.000              0.000
 Translational            0.889              2.981             42.215
 Rotational               0.889              2.981             32.680
 Vibrational            128.885             47.297             41.532
 Vibration     1          0.595              1.980              5.166
 Vibration     2          0.596              1.975              4.616
 Vibration     3          0.602              1.955              3.624
 Vibration     4          0.603              1.952              3.537
 Vibration     5          0.614              1.917              2.853
 Vibration     6          0.642              1.827              2.053
 Vibration     7          0.657              1.781              1.811
 Vibration     8          0.658              1.777              1.793
 Vibration     9          0.670              1.740              1.639
 Vibration    10          0.696              1.663              1.385
 Vibration    11          0.709              1.627              1.289
 Vibration    12          0.729              1.570              1.155
 Vibration    13          0.756              1.495              1.007
 Vibration    14          0.781              1.430              0.897
 Vibration    15          0.800              1.383              0.827
 Vibration    16          0.802              1.378              0.819
 Vibration    17          0.827              1.316              0.737
 Vibration    18          0.871              1.215              0.620
 Vibration    19          0.897              1.157              0.561
 Vibration    20          0.903              1.144              0.548
 Vibration    21          0.949              1.050              0.465

 Optimization completed.
    -- Stationary point found.
 Normal termination of Gaussian 16 at Fri Dec 11 13:23:59 2020.

 ----------------------------------------------------------------------
 # B3LYP/6-311++G(d,p) empiricaldispersion=gd3bj scf=xqc pop=npa geom=c
 heck
 ----------------------------------------------------------------------

 ---------------------------------------
 CID_137309838_JID_7743_Energie_neutraal
 ---------------------------------------
 Structure from the checkpoint file:  "JID_7743.chk"
 Charge =  0 Multiplicity = 1

 SCF Done:  E(RB3LYP) =  -814.683151604     A.U. after   16 cycles
 Normal termination of Gaussian 16 at Fri Dec 11 13:28:05 2020.

 ----------------------------------------------------------------------
 # B3LYP/6-311++G(d,p) empiricaldispersion=gd3bj scf=xqc pop=npa geom=c
 heck
 ----------------------------------------------------------------------

 -------------------------------------
 CID_137309838_JID_7743_Energie_kation
 -------------------------------------
 Structure from the checkpoint file:  "JID_7743.chk"
 Charge =  1 Multiplicity = 2

 SCF Done:  E(UB3LYP) =  -814.391214409     A.U. after   28 cycles
 Normal termination of Gaussian 16 at Fri Dec 11 13:38:09 2020.
 Gaussian 16:  ES64L-G16RevA.03 25-Dec-2016

 ----------------------------------------------------------------------
 # B3LYP/6-311++G(d,p) empiricaldispersion=gd3bj scf=xqc pop=npa geom=c
 heck
 ----------------------------------------------------------------------

 ------------------------------------
 CID_137309838_JID_7743_Energie_anion
 ------------------------------------
 Structure from the checkpoint file:  "JID_7743.chk"
 Charge = -1 Multiplicity = 2

                         Standard orientation:
 ---------------------------------------------------------------------
 Center     Atomic      Atomic             Coordinates (Angstroms)
 Number     Number       Type             X           Y           Z
 ---------------------------------------------------------------------
      1          6           0        0.063246    1.658629    0.170150
      2          6           0        0.458024    0.217779    0.119002
      3          6           0       -0.500645   -0.749862    0.091552
      4          6           0       -1.913326   -0.468633    0.050480
      5          6           0       -2.943667   -1.405935    0.180230
      6          6           0       -4.271624   -1.000449    0.087592
      7          6           0       -4.569635    0.346515   -0.141428
      8          6           0       -3.553864    1.292999   -0.272379
      9          6           0       -2.221802    0.894502   -0.172295
     10          8           0       -1.261225    1.846561   -0.373412
     11          8           0        0.064734   -1.970311    0.056684
     12          7           0        1.463485   -1.821744    0.069031
     13          6           0        1.678022   -0.515783    0.091354
     14          6           0        3.038606    0.045684    0.105418
     15          7           0        3.946557   -0.520633   -0.613712
     16          8           0        5.174536    0.171298   -0.444435
     17          7           0        3.202340    1.221431    0.827570
     18          1           0        0.720668    2.292969   -0.426723
     19          1           0        0.069082    2.045049    1.201721
     20          1           0       -2.688109   -2.447216    0.349547
     21          1           0       -5.070338   -1.727915    0.190198
     22          1           0       -5.604836    0.666810   -0.214967
     23          1           0       -3.772687    2.339750   -0.454190
     24          1           0        5.768299   -0.335341   -1.017658
     25          1           0        2.711417    1.245735    1.713344
     26          1           0        4.175470    1.493733    0.909743
 ---------------------------------------------------------------------

 SCF Done:  E(UB3LYP) =  -814.696415344     A.U. after   30 cycles

 The electronic state is 2-A.
 Alpha  occ. eigenvalues --  -19.05382 -19.04309 -19.02722 -14.22473 -14.22190
 Alpha  occ. eigenvalues --  -14.19169 -10.12467 -10.11738 -10.10134 -10.07831
 Alpha  occ. eigenvalues --  -10.06856 -10.04340 -10.04104 -10.03794 -10.03720
 Alpha  occ. eigenvalues --  -10.03630 -10.03550  -0.98518  -0.97020  -0.94112
 Alpha  occ. eigenvalues --   -0.82703  -0.73628  -0.72431  -0.70375  -0.68258
 Alpha  occ. eigenvalues --   -0.63281  -0.61297  -0.55940  -0.53240  -0.50253
 Alpha  occ. eigenvalues --   -0.48105  -0.44117  -0.42650  -0.42190  -0.40928
 Alpha  occ. eigenvalues --   -0.40017  -0.36816  -0.35971  -0.34704  -0.34611
 Alpha  occ. eigenvalues --   -0.33455  -0.32125  -0.30818  -0.30341  -0.30052
 Alpha  occ. eigenvalues --   -0.27585  -0.26356  -0.25317  -0.24423  -0.22874
 Alpha  occ. eigenvalues --   -0.21893  -0.21178  -0.19211  -0.17505  -0.16880
 Alpha  occ. eigenvalues --   -0.15899  -0.15493  -0.11818  -0.11407  -0.08270
 Alpha  occ. eigenvalues --    0.04184
 Alpha virt. eigenvalues --    0.06867   0.08396   0.08660   0.10006   0.10409
 Alpha virt. eigenvalues --    0.10777   0.11426   0.11926   0.12269   0.13196
 Alpha virt. eigenvalues --    0.13635   0.15382   0.16021   0.16492   0.16926

  Beta  occ. eigenvalues --  -19.05369 -19.03941 -19.02702 -14.22391 -14.22166
  Beta  occ. eigenvalues --  -14.18530 -10.12439 -10.11727 -10.10046 -10.07649
  Beta  occ. eigenvalues --  -10.06868 -10.04250 -10.04193 -10.03786 -10.03732
  Beta  occ. eigenvalues --  -10.03428 -10.03276  -0.97840  -0.96955  -0.94040
  Beta  occ. eigenvalues --   -0.82618  -0.73254  -0.72181  -0.69999  -0.67866
  Beta  occ. eigenvalues --   -0.63025  -0.60924  -0.55732  -0.53005  -0.49739
  Beta  occ. eigenvalues --   -0.47958  -0.44028  -0.42489  -0.42035  -0.40810
  Beta  occ. eigenvalues --   -0.39835  -0.36650  -0.35850  -0.34554  -0.34496
  Beta  occ. eigenvalues --   -0.33203  -0.31269  -0.30413  -0.30059  -0.29623
  Beta  occ. eigenvalues --   -0.27453  -0.25949  -0.25058  -0.24226  -0.22687
  Beta  occ. eigenvalues --   -0.21657  -0.20830  -0.18915  -0.17345  -0.15603
  Beta  occ. eigenvalues --   -0.15047  -0.14198  -0.11306  -0.10464  -0.06928
  Beta virt. eigenvalues --    0.06834   0.08365   0.08634   0.09778   0.09976
  Beta virt. eigenvalues --    0.10721   0.11300   0.11783   0.12089   0.12473
  Beta virt. eigenvalues --    0.13155   0.13625   0.15386   0.16181   0.16656

 Mulliken charges and spin densities:
               1          2
     1  C   -0.638807  -0.058169
     2  C    0.237954   0.014424
     3  C   -0.216282   0.117479
     4  C    1.240446   0.015783
     5  C    0.050350   0.204428
     6  C   -0.264682  -0.062690
     7  C   -0.343564   0.219454
     8  C   -0.407968  -0.006307
     9  C   -1.674218   0.037465
    10  O   -0.129986   0.005512
    11  O    0.145365   0.085272
    12  N   -0.457106   0.292435
    13  C    0.710854  -0.004080
    14  C    0.011449   0.026678
    15  N   -0.323129   0.031745
    16  O   -0.129963   0.001436
    17  N   -0.297712  -0.030432
    18  H    0.218693   0.000003
    19  H    0.121264   0.024356
    20  H    0.136033  -0.011948
    21  H    0.112511   0.004635
    22  H    0.104289  -0.017388
    23  H    0.133825  -0.001274
    24  H    0.248742   0.016798
    25  H    0.180403   0.029649
    26  H    0.231238   0.064735
 Sum of Mulliken charges =  -1.00000   1.00000

 Dipole moment (field-independent basis, Debye):
    X=              1.6499    Y=              3.6387    Z=              1.6517  Tot=              4.3232
 Quadrupole moment (field-independent basis, Debye-Ang):
   XX=           -139.2706   YY=           -117.7456   ZZ=           -104.2371
   XY=              7.2419   XZ=              1.2142   YZ=              2.1194

 Summary of Natural Population Analysis:

                                       Natural Population
                Natural  -----------------------------------------------
    Atom  No    Charge         Core      Valence    Rydberg      Total
 -----------------------------------------------------------------------
      C    1   -0.00054      0.99954     1.99023    0.01077     3.00054
      C    2   -0.09849      0.99939     2.09071    0.00839     3.09849
      C    3    0.19584      0.99933     1.79140    0.01343     2.80416
      C    4   -0.06389      0.99937     2.05622    0.00830     3.06389
      C    5   -0.04281      0.99944     2.03463    0.00874     3.04281
      C    6   -0.14601      0.99960     2.13621    0.01021     3.14601
      C    7   -0.05177      0.99958     2.04287    0.00931     3.05177
      C    8   -0.13541      0.99953     2.12653    0.00936     3.13541
      C    9    0.19044      0.99936     1.79806    0.01214     2.80956
      O   10   -0.28116      0.99986     3.27147    0.00983     4.28116
      O   11   -0.13624      0.99985     3.12622    0.01017     4.13624
      N   12    0.02254      0.99967     2.46540    0.01238     3.47746
      C   13    0.02730      0.99950     1.95758    0.01561     2.97270
      C   14    0.18862      0.99960     1.79411    0.01767     2.81138
      N   15   -0.10312      0.99962     2.58884    0.01466     3.60312
      O   16   -0.31339      0.99990     3.30644    0.00705     4.31339
      N   17   -0.40602      0.99972     2.89723    0.00907     3.90602
      H   18    0.09440      0.00000     0.40359    0.00202     0.40560
      H   19    0.07343      0.00000     0.42392    0.00266     0.42657
      H   20    0.09752      0.00000     0.40063    0.00185     0.40248
      H   21    0.09196      0.00000     0.40694    0.00110     0.40804
      H   22    0.08733      0.00000     0.41159    0.00108     0.41267
      H   23    0.09694      0.00000     0.40151    0.00155     0.40306
      H   24    0.23219      0.00000     0.26451    0.00329     0.26781
      H   25    0.18696      0.00000     0.31045    0.00259     0.31304
      H   26    0.19337      0.00000     0.30453    0.00209     0.30663
 =======================================================================
   * Total *    0.00001     16.99288    42.80180    0.20532    59.99999

 Normal termination of Gaussian 16 at Fri Dec 11 13:48:55 2020.
