 Gaussian 16, Revision A.03,

 -----------------------------------------------------------
 # opt freq B3LYP/6-31G(d) empiricaldispersion=gd3bj scf=xqc
 -----------------------------------------------------------

 -------------------------------
 CID_116915782_JID_3834_neutraal
 -------------------------------
 Symbolic Z-matrix:
 Charge =  0 Multiplicity = 1

 SCF Done:  E(RB3LYP) =  -574.258152310     A.U. after   15 cycles
 SCF Done:  E(RB3LYP) =  -574.261897973     A.U. after   13 cycles
 SCF Done:  E(RB3LYP) =  -574.260934553     A.U. after   13 cycles
 SCF Done:  E(RB3LYP) =  -574.262486401     A.U. after   12 cycles
 SCF Done:  E(RB3LYP) =  -574.262818370     A.U. after   12 cycles
 SCF Done:  E(RB3LYP) =  -574.262979739     A.U. after   12 cycles
 SCF Done:  E(RB3LYP) =  -574.263014444     A.U. after   11 cycles
 SCF Done:  E(RB3LYP) =  -574.263024602     A.U. after   10 cycles
 SCF Done:  E(RB3LYP) =  -574.263028984     A.U. after   10 cycles
 SCF Done:  E(RB3LYP) =  -574.263030374     A.U. after    9 cycles
 SCF Done:  E(RB3LYP) =  -574.263031061     A.U. after    8 cycles
 SCF Done:  E(RB3LYP) =  -574.263031123     A.U. after    7 cycles
 SCF Done:  E(RB3LYP) =  -574.263031148     A.U. after    7 cycles
 Optimization completed.
    -- Stationary point found.
 Normal termination of Gaussian 16 at Sun Dec 13 12:23:37 2020.

 --------------------------------------------------------------------
 #N Geom=AllCheck Guess=TCheck SCRF=Check GenChk RB3LYP/6-31G(d) Freq
 --------------------------------------------------------------------

 Structure from the checkpoint file:  "JID_3834.chk"
 -------------------------------
 CID_116915782_JID_3834_neutraal
 -------------------------------
 Charge =  0 Multiplicity = 1

 SCF Done:  E(RB3LYP) =  -574.263031148     A.U. after    1 cycles

  Exact polarizability: 142.072   5.425 119.239 -12.265  11.043  82.415
 Approx polarizability: 194.355  16.485 208.290 -24.307  24.854 129.596

                      1                      2                      3
                      A                      A                      A
 Frequencies --     31.6755                41.7366                77.1823
 Red. masses --      4.4414                 3.2850                 3.7776
 Frc consts  --      0.0026                 0.0034                 0.0133
 IR Inten    --      1.2892                 0.1648                 0.1993

                      4                      5                      6
                      A                      A                      A
 Frequencies --    144.6177               188.0835               204.2582
 Red. masses --      5.9251                 5.0785                 3.5984
 Frc consts  --      0.0730                 0.1058                 0.0885
 IR Inten    --     13.6428                 0.5617                 3.6509

                      7                      8                      9
                      A                      A                      A
 Frequencies --    258.9175               270.5601               294.2466
 Red. masses --      1.1476                 1.7610                 1.5714
 Frc consts  --      0.0453                 0.0760                 0.0802
 IR Inten    --      0.2200                 4.7273                15.0658

                     10                     11                     12
                      A                      A                      A
 Frequencies --    299.7317               332.0163               389.0413
 Red. masses --      1.1648                 2.1452                 3.1191
 Frc consts  --      0.0617                 0.1393                 0.2781
 IR Inten    --     13.7858                 5.2552                 1.8930

                     13                     14                     15
                      A                      A                      A
 Frequencies --    390.3377               411.7634               427.4349
 Red. masses --      2.5990                 2.2988                 3.8242
 Frc consts  --      0.2333                 0.2296                 0.4116
 IR Inten    --      0.0491                 2.6527                 2.8531

                     16                     17                     18
                      A                      A                      A
 Frequencies --    456.2667               487.3757               500.6803
 Red. masses --      2.6279                 3.0588                 3.1808
 Frc consts  --      0.3223                 0.4281                 0.4698
 IR Inten    --      4.6928                 1.2464                15.6192

                     19                     20                     21
                      A                      A                      A
 Frequencies --    604.9002               684.5471               685.9638
 Red. masses --      4.2936                 5.6623                 5.1978
 Frc consts  --      0.9256                 1.5633                 1.4410
 IR Inten    --     27.8843                 9.1803                17.2981

                     22                     23                     24
                      A                      A                      A
 Frequencies --    749.7952               773.5772               791.2678
 Red. masses --      4.3374                 3.9530                 2.1089
 Frc consts  --      1.4367                 1.3938                 0.7779
 IR Inten    --      1.3217                 1.3068                17.0361

                     25                     26                     27
                      A                      A                      A
 Frequencies --    859.4679               882.6948               899.7964
 Red. masses --      1.9377                 1.6046                 1.2635
 Frc consts  --      0.8433                 0.7366                 0.6027
 IR Inten    --     26.0186                98.2662                 2.1545

                     28                     29                     30
                      A                      A                      A
 Frequencies --    917.0023               940.2271               964.7973
 Red. masses --      2.0079                 1.5966                 1.7214
 Frc consts  --      0.9948                 0.8316                 0.9441
 IR Inten    --      0.4095                 7.8968                 4.9676

                     31                     32                     33
                      A                      A                      A
 Frequencies --    983.0488               989.9066              1002.5839
 Red. masses --      1.3584                 1.7373                 1.4241
 Frc consts  --      0.7735                 1.0030                 0.8434
 IR Inten    --      0.4327                 2.4863                 0.5835

                     34                     35                     36
                      A                      A                      A
 Frequencies --   1015.3502              1026.2117              1066.0635
 Red. masses --      5.6072                 1.8464                 1.9241
 Frc consts  --      3.4059                 1.1456                 1.2884
 IR Inten    --      1.3313                19.9153                 2.7893

                     37                     38                     39
                      A                      A                      A
 Frequencies --   1099.2611              1121.8349              1126.9115
 Red. masses --      1.8014                 1.5888                 1.5125
 Frc consts  --      1.2825                 1.1781                 1.1317
 IR Inten    --      6.3567                 2.4133                 4.8876

                     40                     41                     42
                      A                      A                      A
 Frequencies --   1176.1958              1202.7401              1253.5081
 Red. masses --      1.6275                 2.2692                 1.3164
 Frc consts  --      1.3266                 1.9340                 1.2187
 IR Inten    --      2.9850                23.5034                 8.1102

                     43                     44                     45
                      A                      A                      A
 Frequencies --   1281.1793              1304.3575              1332.8609
 Red. masses --      3.0663                11.0722                 2.2582
 Frc consts  --      2.9654                11.0989                 2.3637
 IR Inten    --    147.2413                 2.0676                60.2628

                     46                     47                     48
                      A                      A                      A
 Frequencies --   1347.4455              1366.4247              1369.2747
 Red. masses --      1.4789                 1.4570                 1.7393
 Frc consts  --      1.5820                 1.6029                 1.9213
 IR Inten    --     25.0164                16.6621                25.9522

                     49                     50                     51
                      A                      A                      A
 Frequencies --   1427.2652              1447.4374              1455.4017
 Red. masses --      1.2586                 1.2451                 1.9358
 Frc consts  --      1.5106                 1.5370                 2.4159
 IR Inten    --      5.9285                 5.0887                25.8790

                     52                     53                     54
                      A                      A                      A
 Frequencies --   1507.5212              1514.0230              1520.4485
 Red. masses --      1.0830                 1.0574                 1.0874
 Frc consts  --      1.4502                 1.4281                 1.4810
 IR Inten    --      2.4647                 3.1650                 6.1204

                     55                     56                     57
                      A                      A                      A
 Frequencies --   1532.6568              1539.4277              1540.9976
 Red. masses --      1.0647                 1.0557                 2.0240
 Frc consts  --      1.4736                 1.4740                 2.8318
 IR Inten    --      2.9300                10.1767                 5.4432

                     58                     59                     60
                      A                      A                      A
 Frequencies --   1615.2185              1650.6996              1691.8126
 Red. masses --      7.2881                 5.3031                 1.1048
 Frc consts  --     11.2028                 8.5136                 1.8630
 IR Inten    --     22.6239                 3.9044                55.5762

                     61                     62                     63
                      A                      A                      A
 Frequencies --   1775.2079              3035.8160              3051.2795
 Red. masses --     10.4350                 1.0349                 1.0392
 Frc consts  --     19.3750                 5.6197                 5.7007
 IR Inten    --    119.7961                23.7963                22.6024

                     64                     65                     66
                      A                      A                      A
 Frequencies --   3074.7509              3101.5723              3109.6905
 Red. masses --      1.0589                 1.1023                 1.1028
 Frc consts  --      5.8984                 6.2474                 6.2834
 IR Inten    --     10.8545                 5.8419                22.0867

                     67                     68                     69
                      A                      A                      A
 Frequencies --   3111.1808              3121.6688              3158.5319
 Red. masses --      1.1018                 1.1042                 1.0990
 Frc consts  --      6.2832                 6.3397                 6.4596
 IR Inten    --     51.0955                30.9622                18.7528

                     70                     71                     72
                      A                      A                      A
 Frequencies --   3175.7311              3181.3243              3227.5634
 Red. masses --      1.0889                 1.0912                 1.0918
 Frc consts  --      6.4700                 6.5071                 6.7010
 IR Inten    --     29.7517                23.8380                11.0159

                     73                     74                     75
                      A                      A                      A
 Frequencies --   3237.1894              3460.6244              3550.6123
 Red. masses --      1.0926                 1.0490                 1.0934
 Frc consts  --      6.7461                 7.4016                 8.1212
 IR Inten    --      3.7964                 0.8355                 0.4549

 - Thermochemistry -
 -------------------
 Temperature   298.150 Kelvin.  Pressure   1.00000 Atm.
 Atom     1 has atomic number  6 and mass  12.00000

 Molecular mass:   178.11061 amu.
 Principal axes and moments of inertia in atomic units:
                           1         2         3
     Eigenvalues --  1148.542553671.341754204.75363
           X            0.99987  -0.01592  -0.00175
           Y            0.01596   0.99949   0.02777
           Z            0.00131  -0.02779   0.99961
 This molecule is an asymmetric top.
 Rotational symmetry number  1.
 Warning -- assumption of classical behavior for rotation
           may cause significant error
 Rotational temperatures (Kelvin)      0.07541     0.02359     0.02060
 Rotational constants (GHZ):           1.57133     0.49158     0.42921
 Zero-point vibrational energy     603161.8 (Joules/Mol)
                                  144.15913 (Kcal/Mol)
 Warning -- explicit consideration of  19 degrees of freedom as
           vibrations may cause significant error
 Vibrational temperatures:     45.57    60.05   111.05   208.07   270.61
          (Kelvin)            293.88   372.52   389.28   423.36   431.25
                              477.70   559.74   561.61   592.44   614.98
                              656.47   701.22   720.37   870.32   984.91
                              986.95  1078.79  1113.01  1138.46  1236.58
                             1270.00  1294.61  1319.36  1352.78  1388.13
                             1414.39  1424.25  1442.49  1460.86  1476.49
                             1533.83  1581.59  1614.07  1621.37  1692.28
                             1730.47  1803.52  1843.33  1876.68  1917.69
                             1938.67  1965.98  1970.08  2053.52  2082.54
                             2094.00  2168.99  2178.34  2187.59  2205.15
                             2214.89  2217.15  2323.94  2374.99  2434.14
                             2554.13  4367.86  4390.11  4423.88  4462.47
                             4474.15  4476.30  4491.39  4544.42  4569.17
                             4577.22  4643.74  4657.59  4979.07  5108.54

 Zero-point correction=                           0.229732 (Hartree/Particle)
 Thermal correction to Energy=                    0.242368
 Thermal correction to Enthalpy=                  0.243312
 Thermal correction to Gibbs Free Energy=         0.190276
 Sum of electronic and zero-point Energies=           -574.033299
 Sum of electronic and thermal Energies=              -574.020663
 Sum of electronic and thermal Enthalpies=            -574.019719
 Sum of electronic and thermal Free Energies=         -574.072755

                     E (Thermal)             CV                S
                      KCal/Mol        Cal/Mol-Kelvin    Cal/Mol-Kelvin
 Total                  152.088             48.625            111.623
 Electronic               0.000              0.000              0.000
 Translational            0.889              2.981             41.439
 Rotational               0.889              2.981             31.250
 Vibrational            150.311             42.664             38.934
 Vibration     1          0.594              1.983              5.722
 Vibration     2          0.594              1.981              5.175
 Vibration     3          0.599              1.964              3.961
 Vibration     4          0.616              1.908              2.742
 Vibration     5          0.633              1.856              2.247
 Vibration     6          0.640              1.834              2.094
 Vibration     7          0.668              1.748              1.669
 Vibration     8          0.674              1.727              1.593
 Vibration     9          0.689              1.684              1.449
 Vibration    10          0.692              1.674              1.418
 Vibration    11          0.714              1.612              1.250
 Vibration    12          0.757              1.494              1.004
 Vibration    13          0.758              1.491              0.999
 Vibration    14          0.776              1.445              0.920
 Vibration    15          0.789              1.411              0.867
 Vibration    16          0.814              1.347              0.777
 Vibration    17          0.843              1.278              0.690
 Vibration    18          0.856              1.249              0.656
 Vibration    19          0.963              1.021              0.441

 Optimization completed.
    -- Stationary point found.
 Normal termination of Gaussian 16 at Sun Dec 13 12:30:22 2020.

 ----------------------------------------------------------------------
 # B3LYP/6-311++G(d,p) empiricaldispersion=gd3bj scf=xqc pop=npa geom=c
 heck
 ----------------------------------------------------------------------

 ---------------------------------------
 CID_116915782_JID_3834_Energie_neutraal
 ---------------------------------------
 Structure from the checkpoint file:  "JID_3834.chk"
 Charge =  0 Multiplicity = 1

 SCF Done:  E(RB3LYP) =  -574.427572259     A.U. after   16 cycles
 Normal termination of Gaussian 16 at Sun Dec 13 12:33:32 2020.

 ----------------------------------------------------------------------
 # B3LYP/6-311++G(d,p) empiricaldispersion=gd3bj scf=xqc pop=npa geom=c
 heck
 ----------------------------------------------------------------------

 -------------------------------------
 CID_116915782_JID_3834_Energie_kation
 -------------------------------------
 Structure from the checkpoint file:  "JID_3834.chk"
 Charge =  1 Multiplicity = 2

 SCF Done:  E(UB3LYP) =  -574.105469027     A.U. after   29 cycles
 Normal termination of Gaussian 16 at Sun Dec 13 12:41:43 2020.
 Gaussian 16:  ES64L-G16RevA.03 25-Dec-2016

 ----------------------------------------------------------------------
 # B3LYP/6-311++G(d,p) empiricaldispersion=gd3bj scf=xqc pop=npa geom=c
 heck
 ----------------------------------------------------------------------

 ------------------------------------
 CID_116915782_JID_3834_Energie_anion
 ------------------------------------
 Structure from the checkpoint file:  "JID_3834.chk"
 Charge = -1 Multiplicity = 2

                         Standard orientation:
 ---------------------------------------------------------------------
 Center     Atomic      Atomic             Coordinates (Angstroms)
 Number     Number       Type             X           Y           Z
 ---------------------------------------------------------------------
      1          6           0        1.618885   -1.622465    0.731250
      2          6           0        2.244682   -0.332900    0.182459
      3          6           0        3.670701   -0.631225   -0.320073
      4          6           0        1.427725    0.248111   -1.010394
      5          6           0        0.210930    1.049769   -0.575750
      6          8           0        0.296259    2.261961   -0.454946
      7          6           0       -1.094927    0.365144   -0.291182
      8          6           0       -2.086685    1.081625    0.388345
      9          6           0       -3.306939    0.464322    0.644814
     10          7           0       -3.602806   -0.787738    0.265447
     11          6           0       -2.654663   -1.462577   -0.392894
     12          6           0       -1.394849   -0.940894   -0.690603
     13          7           0        2.211973    0.661638    1.267091
     14          1           0        2.225703   -2.007278    1.559765
     15          1           0        1.575798   -2.401906   -0.038044
     16          1           0        0.612036   -1.439659    1.111708
     17          1           0        3.669242   -1.346589   -1.151758
     18          1           0        4.160999    0.287167   -0.663137
     19          1           0        4.276509   -1.060131    0.487590
     20          1           0        2.059878    0.954830   -1.556967
     21          1           0        1.167416   -0.563827   -1.696579
     22          1           0       -1.885320    2.099111    0.703255
     23          1           0       -4.090281    0.997137    1.180127
     24          1           0       -2.912199   -2.474851   -0.698887
     25          1           0       -0.676383   -1.550622   -1.226145
     26          1           0        2.884265    0.401940    1.987935
     27          1           0        2.488929    1.578225    0.917108
 ---------------------------------------------------------------------

 SCF Done:  E(UB3LYP) =  -574.448300397     A.U. after   25 cycles

 The electronic state is 2-A.
 Alpha  occ. eigenvalues --  -18.91559 -14.17538 -14.13392 -10.09599 -10.06112
 Alpha  occ. eigenvalues --  -10.05885 -10.04406 -10.04385 -10.04229 -10.03429
 Alpha  occ. eigenvalues --  -10.01760 -10.01141 -10.00757  -0.85923  -0.77959
 Alpha  occ. eigenvalues --   -0.77774  -0.65610  -0.64195  -0.59989  -0.58445
 Alpha  occ. eigenvalues --   -0.58062  -0.48554  -0.46967  -0.44312  -0.40104
 Alpha  occ. eigenvalues --   -0.37512  -0.36388  -0.33153  -0.32985  -0.32015
 Alpha  occ. eigenvalues --   -0.31199  -0.29860  -0.29067  -0.27244  -0.27068
 Alpha  occ. eigenvalues --   -0.25803  -0.25476  -0.24443  -0.23654  -0.23282
 Alpha  occ. eigenvalues --   -0.21453  -0.19994  -0.19517  -0.12830  -0.12718
 Alpha  occ. eigenvalues --   -0.11008  -0.10158  -0.07942   0.04260
 Alpha virt. eigenvalues --    0.07167   0.09481   0.09754   0.10402   0.11209
 Alpha virt. eigenvalues --    0.11582   0.11812   0.12716   0.13551   0.13634
 Alpha virt. eigenvalues --    0.14147   0.14624   0.15421   0.16218   0.16443

  Beta  occ. eigenvalues --  -18.90990 -14.17538 -14.12927 -10.09559 -10.05880
  Beta  occ. eigenvalues --  -10.05786 -10.04422 -10.04387 -10.04270 -10.03459
  Beta  occ. eigenvalues --  -10.01651 -10.00935 -10.00613  -0.84900  -0.77922
  Beta  occ. eigenvalues --   -0.77179  -0.65464  -0.63656  -0.59699  -0.58279
  Beta  occ. eigenvalues --   -0.58011  -0.47702  -0.46816  -0.44197  -0.39716
  Beta  occ. eigenvalues --   -0.37426  -0.36250  -0.33040  -0.32800  -0.31805
  Beta  occ. eigenvalues --   -0.31054  -0.29629  -0.29022  -0.27069  -0.26969
  Beta  occ. eigenvalues --   -0.25578  -0.24991  -0.23721  -0.23114  -0.22592
  Beta  occ. eigenvalues --   -0.21232  -0.19723  -0.17638  -0.12749  -0.10651
  Beta  occ. eigenvalues --   -0.10022  -0.09613  -0.07389
  Beta virt. eigenvalues --    0.07124   0.09339   0.09672   0.10317   0.10969
  Beta virt. eigenvalues --    0.11254   0.11554   0.11801   0.12717   0.13564
  Beta virt. eigenvalues --    0.13817   0.14111   0.14632   0.15792   0.16210

 Mulliken charges and spin densities:
               1          2
     1  C   -0.789345  -0.006330
     2  C    0.349726  -0.003959
     3  C   -0.503919  -0.007610
     4  C   -0.102474   0.039877
     5  C   -0.731587   0.136293
     6  O   -0.389727   0.205796
     7  C    0.402392   0.051202
     8  C    0.566382   0.218870
     9  C   -0.612388  -0.039760
    10  N   -0.138735   0.215635
    11  C   -0.756476  -0.057480
    12  C    0.029693   0.176500
    13  N   -0.287179  -0.015267
    14  H    0.101094  -0.000084
    15  H    0.132608  -0.003771
    16  H    0.214805  -0.002741
    17  H    0.115236   0.018623
    18  H    0.123485   0.005042
    19  H    0.109004  -0.001432
    20  H    0.140339   0.051715
    21  H    0.110171   0.012815
    22  H    0.187489  -0.008981
    23  H    0.108930  -0.000612
    24  H    0.109680  -0.003356
    25  H    0.070445   0.022729
    26  H    0.210680  -0.001530
    27  H    0.229675  -0.002184
 Sum of Mulliken charges =  -1.00000   1.00000

 Dipole moment (field-independent basis, Debye):
    X=              7.0750    Y=             -2.8920    Z=              0.2706  Tot=              7.6480
 Quadrupole moment (field-independent basis, Debye-Ang):
   XX=           -116.7891   YY=            -99.3655   ZZ=            -88.5835
   XY=             -6.3199   XZ=              2.8639   YZ=              3.8413

 Summary of Natural Population Analysis:

                                       Natural Population
                Natural  -----------------------------------------------
    Atom  No    Charge         Core      Valence    Rydberg      Total
 -----------------------------------------------------------------------
      C    1   -0.28838      0.99962     2.28261    0.00615     3.28838
      C    2    0.05415      0.99960     1.93409    0.01215     2.94585
      C    3   -0.28873      0.99963     2.28369    0.00542     3.28873
      C    4   -0.23212      0.99956     2.22071    0.01185     3.23212
      C    5    0.31369      0.99962     1.66531    0.02138     2.68631
      O    6   -0.24817      0.99988     3.24204    0.00626     4.24817
      C    7   -0.01584      0.99946     2.00451    0.01187     3.01584
      C    8   -0.07517      0.99952     2.06781    0.00783     3.07517
      C    9    0.00079      0.99960     1.98452    0.01510     2.99921
      N   10   -0.18392      0.99971     2.67093    0.01328     3.68392
      C   11    0.00611      0.99961     1.97949    0.01479     2.99389
      C   12   -0.10478      0.99953     2.09353    0.01173     3.10478
      N   13   -0.41792      0.99975     2.90834    0.00984     3.91792
      H   14    0.08848      0.00000     0.41064    0.00088     0.41152
      H   15    0.09436      0.00000     0.40492    0.00072     0.40564
      H   16    0.11786      0.00000     0.38132    0.00082     0.38214
      H   17    0.09621      0.00000     0.40293    0.00086     0.40379
      H   18    0.09646      0.00000     0.40255    0.00099     0.40354
      H   19    0.09049      0.00000     0.40853    0.00098     0.40951
      H   20    0.10127      0.00000     0.39689    0.00184     0.39873
      H   21    0.09944      0.00000     0.39897    0.00159     0.40056
      H   22    0.10580      0.00000     0.39306    0.00114     0.39420
      H   23    0.07764      0.00000     0.42103    0.00134     0.42236
      H   24    0.07669      0.00000     0.42185    0.00145     0.42331
      H   25    0.09142      0.00000     0.40743    0.00115     0.40858
      H   26    0.16412      0.00000     0.33441    0.00147     0.33588
      H   27    0.18007      0.00000     0.31836    0.00157     0.31993
 =======================================================================
   * Total *   -0.00000     12.99509    34.84046    0.16444    48.00000

 Normal termination of Gaussian 16 at Sun Dec 13 12:48:55 2020.
