 Gaussian 16, Revision A.03,

 -----------------------------------------------------------
 # opt freq B3LYP/6-31G(d) empiricaldispersion=gd3bj scf=xqc
 -----------------------------------------------------------

 ------------------------------
 CID_17963408_JID_4100_neutraal
 ------------------------------
 Symbolic Z-matrix:
 Charge =  0 Multiplicity = 1

 SCF Done:  E(RB3LYP) =  -899.610125254     A.U. after   15 cycles
 SCF Done:  E(RB3LYP) =  -899.614010738     A.U. after   12 cycles
 SCF Done:  E(RB3LYP) =  -899.614791131     A.U. after   12 cycles
 SCF Done:  E(RB3LYP) =  -899.614891776     A.U. after   11 cycles
 SCF Done:  E(RB3LYP) =  -899.614930724     A.U. after   11 cycles
 SCF Done:  E(RB3LYP) =  -899.614945038     A.U. after   10 cycles
 SCF Done:  E(RB3LYP) =  -899.614947412     A.U. after    9 cycles
 SCF Done:  E(RB3LYP) =  -899.614947571     A.U. after    8 cycles
 Optimization completed.
    -- Stationary point found.
 Normal termination of Gaussian 16 at Thu Dec 10 09:13:34 2020.

 --------------------------------------------------------------------
 #N Geom=AllCheck Guess=TCheck SCRF=Check GenChk RB3LYP/6-31G(d) Freq
 --------------------------------------------------------------------

 Structure from the checkpoint file:  "JID_4100.chk"
 ------------------------------
 CID_17963408_JID_4100_neutraal
 ------------------------------
 Charge =  0 Multiplicity = 1

 SCF Done:  E(RB3LYP) =  -899.614947571     A.U. after    1 cycles

  Exact polarizability: 265.828   6.409 144.531   4.001  -1.192  67.624
 Approx polarizability: 452.241  27.260 255.819   2.964  -5.651 111.266

                      1                      2                      3
                      A                      A                      A
 Frequencies --     56.5300                94.8555               158.3476
 Red. masses --      6.1421                 4.2620                 3.8201
 Frc consts  --      0.0116                 0.0226                 0.0564
 IR Inten    --      0.2201                 1.0596                 2.2240

                      4                      5                      6
                      A                      A                      A
 Frequencies --    204.8604               249.3387               309.9624
 Red. masses --      4.7189                 5.7254                 4.7772
 Frc consts  --      0.1167                 0.2097                 0.2704
 IR Inten    --      1.0704                 0.8058                 0.9407

                      7                      8                      9
                      A                      A                      A
 Frequencies --    314.4589               349.6466               411.6069
 Red. masses --      5.4978                 3.6682                 4.1092
 Frc consts  --      0.3203                 0.2642                 0.4102
 IR Inten    --      0.7538                 0.3169                 0.2970

                     10                     11                     12
                      A                      A                      A
 Frequencies --    419.5706               490.2177               523.4932
 Red. masses --      3.6586                 4.7359                 3.9154
 Frc consts  --      0.3795                 0.6706                 0.6322
 IR Inten    --      1.0018                 5.9007                 0.9507

                     13                     14                     15
                      A                      A                      A
 Frequencies --    548.1539               566.6766               587.0542
 Red. masses --      6.3149                 3.1849                 4.4309
 Frc consts  --      1.1180                 0.6026                 0.8997
 IR Inten    --      0.1265                 0.9477                11.8546

                     16                     17                     18
                      A                      A                      A
 Frequencies --    642.5364               663.8844               698.8750
 Red. masses --      4.9137                 3.5825                 5.2544
 Frc consts  --      1.1952                 0.9303                 1.5121
 IR Inten    --      5.7861                 1.6607                 4.7999

                     19                     20                     21
                      A                      A                      A
 Frequencies --    707.4455               739.5431               763.2699
 Red. masses --      2.3685                 1.5517                 1.7574
 Frc consts  --      0.6984                 0.5000                 0.6032
 IR Inten    --     15.2566                25.5670                33.4017

                     22                     23                     24
                      A                      A                      A
 Frequencies --    773.6262               795.0523               822.0070
 Red. masses --      2.0722                 2.3190                 3.5654
 Frc consts  --      0.7307                 0.8637                 1.4194
 IR Inten    --      2.3384                21.1064                33.9225

                     25                     26                     27
                      A                      A                      A
 Frequencies --    854.3675               871.8251               888.0000
 Red. masses --      3.9230                 1.4486                 3.2278
 Frc consts  --      1.6872                 0.6487                 1.4996
 IR Inten    --      8.8756                26.8817                 3.7168

                     28                     29                     30
                      A                      A                      A
 Frequencies --    897.0576               916.7920               923.3625
 Red. masses --      1.9065                 3.6776                 1.3285
 Frc consts  --      0.9039                 1.8212                 0.6674
 IR Inten    --     13.1975                 4.2750                 1.7166

                     31                     32                     33
                      A                      A                      A
 Frequencies --    953.3033               978.5100               986.4380
 Red. masses --      1.3706                 1.2882                 1.2778
 Frc consts  --      0.7339                 0.7267                 0.7326
 IR Inten    --      3.7816                 0.4104                 0.0135

                     34                     35                     36
                      A                      A                      A
 Frequencies --   1057.7833              1077.4396              1124.2122
 Red. masses --      3.2532                 2.4316                 1.2469
 Frc consts  --      2.1447                 1.6631                 0.9285
 IR Inten    --      0.5597                 2.6556                 6.5398

                     37                     38                     39
                      A                      A                      A
 Frequencies --   1145.2839              1194.8749              1198.6061
 Red. masses --      1.6807                 1.3909                 1.0960
 Frc consts  --      1.2989                 1.1700                 0.9277
 IR Inten    --      2.8959                 5.4462                 0.2481

                     40                     41                     42
                      A                      A                      A
 Frequencies --   1211.7161              1226.5959              1249.6834
 Red. masses --      1.3924                 2.1094                 1.8599
 Frc consts  --      1.2045                 1.8699                 1.7113
 IR Inten    --      1.9196                 0.8923                 4.6432

                     43                     44                     45
                      A                      A                      A
 Frequencies --   1275.2650              1291.8008              1306.2466
 Red. masses --      1.7079                 1.2347                 1.6076
 Frc consts  --      1.6364                 1.2140                 1.6161
 IR Inten    --      2.6915                 1.5932                 5.0533

                     46                     47                     48
                      A                      A                      A
 Frequencies --   1366.4825              1372.3028              1392.1330
 Red. masses --      3.2378                 2.7020                 1.6197
 Frc consts  --      3.5622                 2.9980                 1.8495
 IR Inten    --      2.9067                 1.8143                 0.1764

                     49                     50                     51
                      A                      A                      A
 Frequencies --   1433.4105              1486.7691              1529.7817
 Red. masses --      1.5259                 2.2304                 2.5892
 Frc consts  --      1.8472                 2.9049                 3.5701
 IR Inten    --      0.3100                 3.8488                26.3084

                     52                     53                     54
                      A                      A                      A
 Frequencies --   1601.8045              1609.8787              1661.5996
 Red. masses --      5.2547                 6.5989                 5.4088
 Frc consts  --      7.9436                10.0765                 8.7984
 IR Inten    --      7.3399                23.4098                 1.6211

                     55                     56                     57
                      A                      A                      A
 Frequencies --   1684.4959              1705.6730              3048.2679
 Red. masses --      7.5340                 7.4071                 1.0840
 Frc consts  --     12.5954                12.6966                 5.9345
 IR Inten    --     13.4819                 2.7061                 5.0693

                     58                     59                     60
                      A                      A                      A
 Frequencies --   3156.7630              3157.5989              3177.9073
 Red. masses --      1.0874                 1.0868                 1.0859
 Frc consts  --      6.3844                 6.3841                 6.4613
 IR Inten    --     16.0529                 4.0174                12.5337

                     61                     62                     63
                      A                      A                      A
 Frequencies --   3182.1737              3196.8614              3199.7750
 Red. masses --      1.0884                 1.0920                 1.0934
 Frc consts  --      6.4936                 6.5753                 6.5957
 IR Inten    --      0.8171                26.0548                12.4759

                     64                     65                     66
                      A                      A                      A
 Frequencies --   3211.2929              3212.1019              3249.2484
 Red. masses --      1.0970                 1.0895                 1.0979
 Frc consts  --      6.6650                 6.6231                 6.8296
 IR Inten    --     39.6839                 3.1965                 4.4949

 - Thermochemistry -
 -------------------
 Temperature   298.150 Kelvin.  Pressure   1.00000 Atm.
 Atom     1 has atomic number  6 and mass  12.00000

 Molecular mass:   198.05032 amu.
 Principal axes and moments of inertia in atomic units:
                           1         2         3
     Eigenvalues --  1069.020474666.974915487.47100
           X            0.99996  -0.00727   0.00570
           Y            0.00723   0.99995   0.00686
           Z           -0.00575  -0.00682   0.99996
 This molecule is an asymmetric top.
 Rotational symmetry number  1.
 Warning -- assumption of classical behavior for rotation
           may cause significant error
 Rotational temperatures (Kelvin)      0.08102     0.01856     0.01578
 Rotational constants (GHZ):           1.68822     0.38670     0.32888
 Zero-point vibrational energy     497386.3 (Joules/Mol)
                                  118.87818 (Kcal/Mol)
 Warning -- explicit consideration of  15 degrees of freedom as
           vibrations may cause significant error
 Vibrational temperatures:     81.33   136.48   227.83   294.75   358.74
          (Kelvin)            445.97   452.44   503.06   592.21   603.67
                              705.31   753.19   788.67   815.32   844.64
                              924.47   955.18  1005.53  1017.86  1064.04
                             1098.18  1113.08  1143.90  1182.68  1229.24
                             1254.36  1277.63  1290.67  1319.06  1328.51
                             1371.59  1407.86  1419.26  1521.91  1550.20
                             1617.49  1647.81  1719.16  1724.53  1743.39
                             1764.80  1798.02  1834.82  1858.61  1879.40
                             1966.06  1974.44  2002.97  2062.36  2139.13
                             2201.01  2304.64  2316.26  2390.67  2423.61
                             2454.08  4385.78  4541.88  4543.08  4572.30
                             4578.44  4599.57  4603.76  4620.33  4621.50
                             4674.94

 Zero-point correction=                           0.189444 (Hartree/Particle)
 Thermal correction to Energy=                    0.199890
 Thermal correction to Enthalpy=                  0.200834
 Thermal correction to Gibbs Free Energy=         0.152952
 Sum of electronic and zero-point Energies=           -899.425503
 Sum of electronic and thermal Energies=              -899.415058
 Sum of electronic and thermal Enthalpies=            -899.414114
 Sum of electronic and thermal Free Energies=         -899.461995

                     E (Thermal)             CV                S
                      KCal/Mol        Cal/Mol-Kelvin    Cal/Mol-Kelvin
 Total                  125.433             43.487            100.776
 Electronic               0.000              0.000              0.000
 Translational            0.889              2.981             41.755
 Rotational               0.889              2.981             31.682
 Vibrational            123.655             37.526             27.339
 Vibration     1          0.596              1.975              4.575
 Vibration     2          0.603              1.953              3.557
 Vibration     3          0.621              1.893              2.569
 Vibration     4          0.640              1.833              2.089
 Vibration     5          0.662              1.764              1.735
 Vibration     6          0.699              1.655              1.363
 Vibration     7          0.702              1.646              1.339
 Vibration     8          0.727              1.576              1.168
 Vibration     9          0.776              1.445              0.921
 Vibration    10          0.782              1.428              0.893
 Vibration    11          0.846              1.272              0.683
 Vibration    12          0.878              1.198              0.602
 Vibration    13          0.903              1.144              0.548
 Vibration    14          0.923              1.103              0.511
 Vibration    15          0.944              1.059              0.472

 Optimization completed.
    -- Stationary point found.
 Normal termination of Gaussian 16 at Thu Dec 10 09:20:12 2020.

 ----------------------------------------------------------------------
 # B3LYP/6-311++G(d,p) empiricaldispersion=gd3bj scf=xqc pop=npa geom=c
 heck
 ----------------------------------------------------------------------

 --------------------------------------
 CID_17963408_JID_4100_Energie_neutraal
 --------------------------------------
 Structure from the checkpoint file:  "JID_4100.chk"
 Charge =  0 Multiplicity = 1

 SCF Done:  E(RB3LYP) =  -899.765640593     A.U. after   17 cycles
 Normal termination of Gaussian 16 at Thu Dec 10 09:22:52 2020.

 ----------------------------------------------------------------------
 # B3LYP/6-311++G(d,p) empiricaldispersion=gd3bj scf=xqc pop=npa geom=c
 heck
 ----------------------------------------------------------------------

 ------------------------------------
 CID_17963408_JID_4100_Energie_kation
 ------------------------------------
 Structure from the checkpoint file:  "JID_4100.chk"
 Charge =  1 Multiplicity = 2

 SCF Done:  E(UB3LYP) =  -899.504873002     A.U. after   27 cycles
 Normal termination of Gaussian 16 at Thu Dec 10 09:29:12 2020.
 Gaussian 16:  ES64L-G16RevA.03 25-Dec-2016

 ----------------------------------------------------------------------
 # B3LYP/6-311++G(d,p) empiricaldispersion=gd3bj scf=xqc pop=npa geom=c
 heck
 ----------------------------------------------------------------------

 -----------------------------------
 CID_17963408_JID_4100_Energie_anion
 -----------------------------------
 Structure from the checkpoint file:  "JID_4100.chk"
 Charge = -1 Multiplicity = 2

                         Standard orientation:
 ---------------------------------------------------------------------
 Center     Atomic      Atomic             Coordinates (Angstroms)
 Number     Number       Type             X           Y           Z
 ---------------------------------------------------------------------
      1          6           0        3.950150   -0.430148    0.290758
      2          6           0        3.755167    0.951450    0.405152
      3          6           0        2.494187    1.484878    0.191066
      4          6           0        1.376348    0.675055   -0.106566
      5          6           0        0.111364    1.350800   -0.352706
      6          6           0       -1.138387    0.860815   -0.176144
      7          6           0       -2.369415    1.564867   -0.463900
      8          6           0       -3.491332    0.893162   -0.137624
      9         16           0       -3.237659   -0.702030    0.561355
     10          6           0       -1.391340   -0.517528    0.423382
     11          6           0       -0.776745   -1.603180   -0.423104
     12          6           0        0.542038   -1.671753   -0.657873
     13          6           0        1.578829   -0.730091   -0.231263
     14          6           0        2.877061   -1.243244   -0.041967
     15          1           0        4.934947   -0.861665    0.444067
     16          1           0        4.587701    1.605092    0.649257
     17          1           0        2.345048    2.559495    0.260187
     18          1           0        0.194253    2.384534   -0.684901
     19          1           0       -2.375756    2.552649   -0.913118
     20          1           0       -4.508463    1.240868   -0.274119
     21          1           0       -0.979490   -0.556344    1.439151
     22          1           0       -1.439647   -2.356610   -0.838601
     23          1           0        0.906962   -2.533139   -1.215445
     24          1           0        3.029439   -2.312915   -0.163436
 ---------------------------------------------------------------------

 SCF Done:  E(UB3LYP) =  -899.772957319     A.U. after   27 cycles

 The electronic state is 2-A.
 Alpha  occ. eigenvalues --  -88.71068 -10.07285 -10.04321 -10.03618 -10.03378
 Alpha  occ. eigenvalues --  -10.03260 -10.03199 -10.03152 -10.03107 -10.03038
 Alpha  occ. eigenvalues --  -10.02705 -10.02609 -10.02494 -10.00982  -7.79710
 Alpha  occ. eigenvalues --   -5.76067  -5.75721  -5.75160  -0.73146  -0.71319
 Alpha  occ. eigenvalues --   -0.65916  -0.63792  -0.61005  -0.59329  -0.57045
 Alpha  occ. eigenvalues --   -0.50794  -0.48622  -0.46387  -0.42431  -0.40885
 Alpha  occ. eigenvalues --   -0.39376  -0.36092  -0.34886  -0.32555  -0.31853
 Alpha  occ. eigenvalues --   -0.30121  -0.29592  -0.27918  -0.26898  -0.24688
 Alpha  occ. eigenvalues --   -0.23445  -0.22991  -0.22610  -0.20667  -0.20205
 Alpha  occ. eigenvalues --   -0.18678  -0.18570  -0.16010  -0.14612  -0.11251
 Alpha  occ. eigenvalues --   -0.09477  -0.05304   0.04714
 Alpha virt. eigenvalues --    0.08626   0.09271   0.09643   0.10150   0.10451
 Alpha virt. eigenvalues --    0.11034   0.11959   0.12179   0.12988   0.13484
 Alpha virt. eigenvalues --    0.14393   0.14482   0.14755   0.15516   0.16290

  Beta  occ. eigenvalues --  -88.71048 -10.07316 -10.03888 -10.03697 -10.03340
  Beta  occ. eigenvalues --  -10.03298 -10.03116 -10.03013 -10.02966 -10.02812
  Beta  occ. eigenvalues --  -10.02670 -10.02508 -10.02173 -10.00924  -7.79692
  Beta  occ. eigenvalues --   -5.76061  -5.75718  -5.75086  -0.72794  -0.71008
  Beta  occ. eigenvalues --   -0.65600  -0.63417  -0.60722  -0.58889  -0.56897
  Beta  occ. eigenvalues --   -0.50499  -0.48229  -0.46269  -0.41971  -0.40642
  Beta  occ. eigenvalues --   -0.39132  -0.35917  -0.34737  -0.32312  -0.31687
  Beta  occ. eigenvalues --   -0.29845  -0.29444  -0.27816  -0.26617  -0.24451
  Beta  occ. eigenvalues --   -0.22943  -0.22802  -0.22399  -0.20434  -0.19830
  Beta  occ. eigenvalues --   -0.18501  -0.17622  -0.15207  -0.13797  -0.10378
  Beta  occ. eigenvalues --   -0.08703  -0.04209
  Beta virt. eigenvalues --    0.08588   0.09228   0.09594   0.09917   0.10305
  Beta virt. eigenvalues --    0.10856   0.10999   0.11982   0.12175   0.12975
  Beta virt. eigenvalues --    0.13918   0.14372   0.14557   0.15494   0.15661

 Mulliken charges and spin densities:
               1          2
     1  C   -0.262594   0.159781
     2  C   -0.368832   0.032968
     3  C   -0.239857   0.032137
     4  C    0.599908   0.127290
     5  C   -0.860934   0.061263
     6  C   -0.352543   0.194155
     7  C    0.578955  -0.090966
     8  C   -0.609182   0.315083
     9  S   -0.248148   0.038256
    10  C    0.447719  -0.043685
    11  C   -0.331112   0.126086
    12  C   -1.362834  -0.000588
    13  C    1.207211   0.104847
    14  C   -0.478149  -0.065492
    15  H    0.108409  -0.013293
    16  H    0.104993  -0.002322
    17  H    0.100334   0.011056
    18  H    0.071471   0.011331
    19  H    0.105265   0.005669
    20  H    0.200459  -0.020435
    21  H    0.235652   0.004346
    22  H    0.135197   0.000292
    23  H    0.114147   0.007333
    24  H    0.104465   0.004886
 Sum of Mulliken charges =  -1.00000   1.00000

 Dipole moment (field-independent basis, Debye):
    X=              0.5772    Y=             -0.0110    Z=             -0.1600  Tot=              0.5991
 Quadrupole moment (field-independent basis, Debye-Ang):
   XX=           -132.5440   YY=            -99.6237   ZZ=           -102.2240
   XY=             -2.2999   XZ=              1.6228   YZ=              0.1392

 Summary of Natural Population Analysis:

                                       Natural Population
                Natural  -----------------------------------------------
    Atom  No    Charge         Core      Valence    Rydberg      Total
 -----------------------------------------------------------------------
      C    1   -0.08471      0.99957     2.07523    0.00991     3.08471
      C    2   -0.10890      0.99957     2.09987    0.00946     3.10890
      C    3   -0.09185      0.99954     2.08334    0.00897     3.09185
      C    4    0.00148      0.99949     1.99047    0.00856     2.99852
      C    5   -0.10826      0.99947     2.09983    0.00895     3.10826
      C    6    0.04893      0.99949     1.94226    0.00933     2.95107
      C    7   -0.15538      0.99947     2.14570    0.01020     3.15538
      C    8   -0.07859      0.99951     2.06884    0.01025     3.07859
      S    9    0.10172      4.99958     2.87632    0.02238     7.89828
      C   10   -0.17717      0.99950     2.16773    0.00994     3.17717
      C   11   -0.04345      0.99952     2.03287    0.01107     3.04345
      C   12   -0.11498      0.99952     2.10600    0.00946     3.11498
      C   13   -0.00470      0.99947     1.99642    0.00881     3.00470
      C   14   -0.11116      0.99954     2.10292    0.00870     3.11116
      H   15    0.08729      0.00000     0.41112    0.00159     0.41271
      H   16    0.08912      0.00000     0.40975    0.00112     0.41088
      H   17    0.09051      0.00000     0.40791    0.00158     0.40949
      H   18    0.08977      0.00000     0.40840    0.00183     0.41023
      H   19    0.09737      0.00000     0.40103    0.00160     0.40263
      H   20    0.09166      0.00000     0.40729    0.00105     0.40834
      H   21    0.10846      0.00000     0.38922    0.00232     0.39154
      H   22    0.09108      0.00000     0.40630    0.00262     0.40892
      H   23    0.09159      0.00000     0.40662    0.00179     0.40841
      H   24    0.09018      0.00000     0.40830    0.00153     0.40982
 =======================================================================
   * Total *    0.00000     17.99323    33.84374    0.16303    52.00000

 Normal termination of Gaussian 16 at Thu Dec 10 09:36:14 2020.
