 Gaussian 16, Revision A.03,

 -----------------------------------------------------------
 # opt freq B3LYP/6-31G(d) empiricaldispersion=gd3bj scf=xqc
 -----------------------------------------------------------

 ------------------------------
 CID_141794570_JID_892_neutraal
 ------------------------------
 Symbolic Z-matrix:
 Charge =  0 Multiplicity = 1

 SCF Done:  E(RB3LYP) =  -477.337136634     A.U. after   15 cycles
 SCF Done:  E(RB3LYP) =  -477.335366074     A.U. after   14 cycles
 SCF Done:  E(RB3LYP) =  -477.340378713     A.U. after   14 cycles
 SCF Done:  E(RB3LYP) =  -477.341204024     A.U. after   13 cycles
 SCF Done:  E(RB3LYP) =  -477.340981197     A.U. after   13 cycles
 SCF Done:  E(RB3LYP) =  -477.341910360     A.U. after   13 cycles
 SCF Done:  E(RB3LYP) =  -477.342471553     A.U. after   12 cycles
 SCF Done:  E(RB3LYP) =  -477.342626498     A.U. after   12 cycles
 SCF Done:  E(RB3LYP) =  -477.342719006     A.U. after   13 cycles
 SCF Done:  E(RB3LYP) =  -477.342814662     A.U. after   11 cycles
 SCF Done:  E(RB3LYP) =  -477.342977735     A.U. after   12 cycles
 SCF Done:  E(RB3LYP) =  -477.342994584     A.U. after   12 cycles
 SCF Done:  E(RB3LYP) =  -477.342994529     A.U. after   10 cycles
 SCF Done:  E(RB3LYP) =  -477.342996991     A.U. after    9 cycles
 SCF Done:  E(RB3LYP) =  -477.342997198     A.U. after    8 cycles
 SCF Done:  E(RB3LYP) =  -477.342997441     A.U. after    8 cycles
 Optimization completed.
    -- Stationary point found.
 Normal termination of Gaussian 16 at Tue Dec  8 13:34:32 2020.

 --------------------------------------------------------------------
 #N Geom=AllCheck Guess=TCheck SCRF=Check GenChk RB3LYP/6-31G(d) Freq
 --------------------------------------------------------------------

 Structure from the checkpoint file:  "JID_892.chk"
 ------------------------------
 CID_141794570_JID_892_neutraal
 ------------------------------
 Charge =  0 Multiplicity = 1

 SCF Done:  E(RB3LYP) =  -477.342997441     A.U. after    1 cycles

  Exact polarizability: 120.273  -4.724  75.909 -14.093  -4.305  62.417
 Approx polarizability: 207.650 -13.512 108.002 -42.254  -3.047 100.732

                      1                      2                      3
                      A                      A                      A
 Frequencies --     44.1727                90.9063               132.9818
 Red. masses --      4.5269                 4.5292                 2.4534
 Frc consts  --      0.0052                 0.0221                 0.0256
 IR Inten    --      1.2523                 1.5659                 2.9214

                      4                      5                      6
                      A                      A                      A
 Frequencies --    138.1703               162.0657               189.6817
 Red. masses --      5.0184                 1.6660                 2.4887
 Frc consts  --      0.0564                 0.0258                 0.0528
 IR Inten    --      2.5739                 4.5681                 0.8938

                      7                      8                      9
                      A                      A                      A
 Frequencies --    204.5412               228.5567               322.8779
 Red. masses --      5.8755                 2.7748                 3.2033
 Frc consts  --      0.1448                 0.0854                 0.1968
 IR Inten    --      3.8348                 3.7772                 7.3087

                     10                     11                     12
                      A                      A                      A
 Frequencies --    380.2572               422.5117               461.2357
 Red. masses --      2.7213                 2.1634                 4.1011
 Frc consts  --      0.2318                 0.2275                 0.5140
 IR Inten    --      6.0300                13.7200                17.4442

                     13                     14                     15
                      A                      A                      A
 Frequencies --    538.9412               584.7666               642.1936
 Red. masses --      3.8113                 1.7774                 1.7546
 Frc consts  --      0.6522                 0.3581                 0.4264
 IR Inten    --     37.0584                32.5111                48.6190

                     16                     17                     18
                      A                      A                      A
 Frequencies --    653.5290               730.0121               757.5897
 Red. masses --      3.5120                 1.5992                 3.9474
 Frc consts  --      0.8838                 0.5021                 1.3349
 IR Inten    --      3.2513                14.7263                 3.5650

                     19                     20                     21
                      A                      A                      A
 Frequencies --    780.3515               816.1877               916.0996
 Red. masses --      4.2700                 1.7788                 3.9508
 Frc consts  --      1.5320                 0.6981                 1.9535
 IR Inten    --     12.1710                47.5251                31.1677

                     22                     23                     24
                      A                      A                      A
 Frequencies --    966.0045               982.2643              1002.1070
 Red. masses --      1.3743                 1.5270                 1.2925
 Frc consts  --      0.7556                 0.8680                 0.7647
 IR Inten    --     30.7413                18.1117                 4.1786

                     25                     26                     27
                      A                      A                      A
 Frequencies --   1021.9627              1080.9890              1156.4758
 Red. masses --      1.7892                 1.7203                 1.2906
 Frc consts  --      1.1010                 1.1844                 1.0170
 IR Inten    --      0.8074                37.0450                 7.8260

                     28                     29                     30
                      A                      A                      A
 Frequencies --   1198.9363              1256.2486              1366.5339
 Red. masses --      2.3782                 1.3101                 2.1217
 Frc consts  --      2.0141                 1.2182                 2.3344
 IR Inten    --     13.4311                13.0493               102.2643

                     31                     32                     33
                      A                      A                      A
 Frequencies --   1388.5448              1409.8425              1440.0995
 Red. masses --      2.0714                 1.3416                 1.4020
 Frc consts  --      2.3530                 1.5712                 1.7131
 IR Inten    --     27.3129                16.3330                21.7067

                     34                     35                     36
                      A                      A                      A
 Frequencies --   1488.6149              1489.6415              1497.9932
 Red. masses --      1.2193                 1.5388                 1.4779
 Frc consts  --      1.5919                 2.0119                 1.9539
 IR Inten    --     10.0798                12.5549                31.0605

                     37                     38                     39
                      A                      A                      A
 Frequencies --   1519.2614              1554.3412              1663.1796
 Red. masses --      1.0540                 1.1340                 4.1484
 Frc consts  --      1.4333                 1.6141                 6.7610
 IR Inten    --      9.9923                26.7501                 5.2600

                     40                     41                     42
                      A                      A                      A
 Frequencies --   1714.3794              1776.1092              1811.8068
 Red. masses --      7.1086                 7.9972                10.2377
 Frc consts  --     12.3097                14.8637                19.8006
 IR Inten    --     18.2580               312.3953               155.2149

                     43                     44                     45
                      A                      A                      A
 Frequencies --   2909.2053              3026.3573              3099.3470
 Red. masses --      1.0839                 1.0500                 1.0897
 Frc consts  --      5.4051                 5.6662                 6.1674
 IR Inten    --    101.2408                53.1615                39.2823

                     46                     47                     48
                      A                      A                      A
 Frequencies --   3149.8629              3163.0047              3170.0372
 Red. masses --      1.0855                 1.0988                 1.0595
 Frc consts  --      6.3454                 6.4768                 6.2733
 IR Inten    --      8.4128                 9.3429                 2.5593

                     49                     50                     51
                      A                      A                      A
 Frequencies --   3185.3004              3252.7226              3595.8366
 Red. masses --      1.0904                 1.1167                 1.0755
 Frc consts  --      6.5183                 6.9613                 8.1936
 IR Inten    --      7.9625                 5.0755                27.6176

 - Thermochemistry -
 -------------------
 Temperature   298.150 Kelvin.  Pressure   1.00000 Atm.
 Atom     1 has atomic number  6 and mass  12.00000

 Molecular mass:   139.06333 amu.
 Principal axes and moments of inertia in atomic units:
                           1         2         3
     Eigenvalues --   899.513081797.382341855.76766
           X            0.99984   0.01678   0.00559
           Y           -0.01721   0.99569   0.09110
           Z           -0.00403  -0.09119   0.99583
 This molecule is an asymmetric top.
 Rotational symmetry number  1.
 Warning -- assumption of classical behavior for rotation
           may cause significant error
 Rotational temperatures (Kelvin)      0.09629     0.04819     0.04667
 Rotational constants (GHZ):           2.00635     1.00409     0.97250
 Zero-point vibrational energy     397965.5 (Joules/Mol)
                                   95.11604 (Kcal/Mol)
 Warning -- explicit consideration of  14 degrees of freedom as
           vibrations may cause significant error
 Vibrational temperatures:     63.55   130.79   191.33   198.80   233.18
          (Kelvin)            272.91   294.29   328.84   464.55   547.11
                              607.90   663.62   775.42   841.35   923.97
                              940.28  1050.32  1090.00  1122.75  1174.31
                             1318.06  1389.87  1413.26  1441.81  1470.38
                             1555.30  1663.91  1725.00  1807.46  1966.14
                             1997.81  2028.45  2071.98  2141.78  2143.26
                             2155.28  2185.88  2236.35  2392.94  2466.61
                             2555.42  2606.79  4185.70  4354.25  4459.27
                             4531.95  4550.86  4560.98  4582.94  4679.94
                             5173.61

 Zero-point correction=                           0.151577 (Hartree/Particle)
 Thermal correction to Energy=                    0.162209
 Thermal correction to Enthalpy=                  0.163153
 Thermal correction to Gibbs Free Energy=         0.115202
 Sum of electronic and zero-point Energies=           -477.191420
 Sum of electronic and thermal Energies=              -477.180789
 Sum of electronic and thermal Enthalpies=            -477.179845
 Sum of electronic and thermal Free Energies=         -477.227796

                     E (Thermal)             CV                S
                      KCal/Mol        Cal/Mol-Kelvin    Cal/Mol-Kelvin
 Total                  101.787             37.747            100.922
 Electronic               0.000              0.000              0.000
 Translational            0.889              2.981             40.701
 Rotational               0.889              2.981             29.485
 Vibrational            100.010             31.785             30.735
 Vibration     1          0.595              1.980              5.063
 Vibration     2          0.602              1.956              3.640
 Vibration     3          0.613              1.920              2.902
 Vibration     4          0.614              1.915              2.829
 Vibration     5          0.622              1.889              2.526
 Vibration     6          0.633              1.854              2.231
 Vibration     7          0.640              1.833              2.092
 Vibration     8          0.651              1.797              1.890
 Vibration     9          0.708              1.630              1.295
 Vibration    10          0.750              1.512              1.038
 Vibration    11          0.785              1.421              0.883
 Vibration    12          0.819              1.336              0.763
 Vibration    13          0.894              1.164              0.568
 Vibration    14          0.942              1.064              0.477

                           ! Non-Optimized Parameters !
 Normal termination of Gaussian 16 at Tue Dec  8 13:39:38 2020.

 ----------------------------------------------------------------------
 # B3LYP/6-311++G(d,p) empiricaldispersion=gd3bj scf=xqc pop=npa geom=c
 heck
 ----------------------------------------------------------------------

 --------------------------------------
 CID_141794570_JID_892_Energie_neutraal
 --------------------------------------
 Structure from the checkpoint file:  "JID_892.chk"
 Charge =  0 Multiplicity = 1

 SCF Done:  E(RB3LYP) =  -477.488712825     A.U. after   15 cycles
 Normal termination of Gaussian 16 at Tue Dec  8 13:41:56 2020.

 ----------------------------------------------------------------------
 # B3LYP/6-311++G(d,p) empiricaldispersion=gd3bj scf=xqc pop=npa geom=c
 heck
 ----------------------------------------------------------------------

 ------------------------------------
 CID_141794570_JID_892_Energie_kation
 ------------------------------------
 Structure from the checkpoint file:  "JID_892.chk"
 Charge =  1 Multiplicity = 2

 SCF Done:  E(UB3LYP) =  -477.166499053     A.U. after   31 cycles
 Normal termination of Gaussian 16 at Tue Dec  8 13:50:14 2020.
 Gaussian 16:  ES64L-G16RevA.03 25-Dec-2016

 ----------------------------------------------------------------------
 # B3LYP/6-311++G(d,p) empiricaldispersion=gd3bj scf=xqc pop=npa geom=c
 heck
 ----------------------------------------------------------------------

 -----------------------------------
 CID_141794570_JID_892_Energie_anion
 -----------------------------------
 Structure from the checkpoint file:  "JID_892.chk"
 Charge = -1 Multiplicity = 2

                         Standard orientation:
 ---------------------------------------------------------------------
 Center     Atomic      Atomic             Coordinates (Angstroms)
 Number     Number       Type             X           Y           Z
 ---------------------------------------------------------------------
      1          6           0        0.778126    1.456023    1.421337
      2          7           0        1.690075    0.809212    0.502924
      3          6           0        1.595196   -0.434203   -0.057888
      4          8           0        2.416374   -0.842400   -0.869963
      5          6           0        0.544340   -1.381484    0.441866
      6          6           0       -0.797729   -1.316181    0.441220
      7          6           0       -1.705912   -0.249407   -0.002510
      8          6           0       -2.967923   -0.171185    0.464445
      9          6           0       -1.337971    0.746472   -1.045544
     10          8           0       -0.294696    0.775634   -1.662374
     11          1           0        0.257101    0.701169    2.012245
     12          1           0        0.027348    2.073599    0.908278
     13          1           0        1.341649    2.098345    2.105519
     14          1           0        2.397866    1.380349    0.057334
     15          1           0        0.988079   -2.316757    0.776185
     16          1           0       -1.319824   -2.188289    0.833061
     17          1           0       -3.647214    0.605268    0.122687
     18          1           0       -3.357896   -0.874552    1.194363
     19          1           0       -2.139824    1.490300   -1.248992
 ---------------------------------------------------------------------

 SCF Done:  E(UB3LYP) =  -477.514015254     A.U. after   23 cycles

 The electronic state is 2-A.
 Alpha  occ. eigenvalues --  -18.93530 -18.92909 -14.19709 -10.12492 -10.07680
 Alpha  occ. eigenvalues --  -10.06798 -10.02859 -10.01771 -10.00530  -9.98931
 Alpha  occ. eigenvalues --   -0.88863  -0.86733  -0.78152  -0.65607  -0.60005
 Alpha  occ. eigenvalues --   -0.57469  -0.49228  -0.46274  -0.43039  -0.37515
 Alpha  occ. eigenvalues --   -0.35874  -0.33438  -0.31629  -0.30713  -0.28687
 Alpha  occ. eigenvalues --   -0.28005  -0.27058  -0.24613  -0.23802  -0.23041
 Alpha  occ. eigenvalues --   -0.22873  -0.20102  -0.15760  -0.12133  -0.11378
 Alpha  occ. eigenvalues --   -0.09199  -0.08315   0.04186
 Alpha virt. eigenvalues --    0.08833   0.10136   0.10957   0.11795   0.11996
 Alpha virt. eigenvalues --    0.12454   0.13551   0.13963   0.14972   0.15879
 Alpha virt. eigenvalues --    0.17068   0.17801   0.18077   0.19093   0.19663

  Beta  occ. eigenvalues --  -18.93483 -18.92544 -14.19708 -10.12476 -10.07679
  Beta  occ. eigenvalues --  -10.06610 -10.02802 -10.01642 -10.00478  -9.98242
  Beta  occ. eigenvalues --   -0.88778  -0.86083  -0.78126  -0.65115  -0.59418
  Beta  occ. eigenvalues --   -0.57396  -0.48898  -0.44969  -0.42772  -0.37315
  Beta  occ. eigenvalues --   -0.35830  -0.33244  -0.31513  -0.30453  -0.28329
  Beta  occ. eigenvalues --   -0.27800  -0.27020  -0.24340  -0.23524  -0.22621
  Beta  occ. eigenvalues --   -0.21233  -0.19866  -0.14548  -0.11623  -0.11217
  Beta  occ. eigenvalues --   -0.08106  -0.06967
  Beta virt. eigenvalues --    0.08752   0.10056   0.10745   0.11196   0.11873
  Beta virt. eigenvalues --    0.12378   0.13165   0.13770   0.14216   0.14952
  Beta virt. eigenvalues --    0.15798   0.17245   0.17842   0.18287   0.19302

 Mulliken charges and spin densities:
               1          2
     1  C   -0.362050  -0.036678
     2  N   -0.181585   0.000951
     3  C   -0.172693   0.023260
     4  O   -0.384577   0.016703
     5  C   -0.193565   0.124346
     6  C   -0.251116  -0.042824
     7  C    1.267664  -0.095045
     8  C   -1.064183   0.782723
     9  C   -0.518092   0.138193
    10  O   -0.302613   0.117856
    11  H    0.145783   0.026353
    12  H    0.178269   0.004751
    13  H    0.105539   0.001357
    14  H    0.255953   0.002983
    15  H    0.166791  -0.003344
    16  H    0.105944   0.019111
    17  H    0.086826  -0.035312
    18  H    0.107281  -0.031731
    19  H    0.010424  -0.013651
 Sum of Mulliken charges =  -1.00000   1.00000

 Dipole moment (field-independent basis, Debye):
    X=              1.0361    Y=              2.2131    Z=              3.9997  Tot=              4.6871
 Quadrupole moment (field-independent basis, Debye-Ang):
   XX=            -90.4408   YY=            -66.7777   ZZ=            -75.6622
   XY=              5.2848   XZ=              6.7780   YZ=             -0.3459

 Summary of Natural Population Analysis:

                                       Natural Population
                Natural  -----------------------------------------------
    Atom  No    Charge         Core      Valence    Rydberg      Total
 -----------------------------------------------------------------------
      C    1   -0.17923      0.99966     2.17280    0.00678     3.17923
      N    2   -0.31841      0.99967     2.80713    0.01162     3.81841
      C    3    0.34254      0.99964     1.63555    0.02227     2.65746
      O    4   -0.32878      0.99987     3.32219    0.00672     4.32878
      C    5   -0.12675      0.99950     2.11757    0.00968     3.12675
      C    6   -0.07246      0.99952     2.06303    0.00991     3.07246
      C    7   -0.11275      0.99946     2.10089    0.01239     3.11275
      C    8   -0.00186      0.99956     1.99159    0.01071     3.00186
      C    9    0.22278      0.99968     1.75693    0.02062     2.77722
      O   10   -0.25957      0.99988     3.25123    0.00846     4.25957
      H   11    0.10791      0.00000     0.39060    0.00149     0.39209
      H   12    0.09383      0.00000     0.40453    0.00164     0.40617
      H   13    0.08295      0.00000     0.41609    0.00097     0.41705
      H   14    0.18588      0.00000     0.31219    0.00193     0.31412
      H   15    0.09445      0.00000     0.40438    0.00116     0.40555
      H   16    0.08779      0.00000     0.41029    0.00192     0.41221
      H   17    0.07574      0.00000     0.42315    0.00110     0.42426
      H   18    0.07453      0.00000     0.42460    0.00088     0.42547
      H   19    0.03140      0.00000     0.46583    0.00277     0.46860
 =======================================================================
   * Total *    0.00000      9.99642    26.87055    0.13303    37.00000

 Normal termination of Gaussian 16 at Tue Dec  8 13:53:39 2020.
