 Gaussian 16, Revision A.03,

 -----------------------------------------------------------
 # opt freq B3LYP/6-31G(d) empiricaldispersion=gd3bj scf=xqc
 -----------------------------------------------------------

 -------------------------------
 CID_131149691_JID_4731_neutraal
 -------------------------------
 Symbolic Z-matrix:
 Charge =  0 Multiplicity = 1

 SCF Done:  E(RB3LYP) =  -617.129326841     A.U. after   13 cycles
 SCF Done:  E(RB3LYP) =  -617.143523061     A.U. after   11 cycles
 SCF Done:  E(RB3LYP) =  -617.143168576     A.U. after   11 cycles
 SCF Done:  E(RB3LYP) =  -617.146726390     A.U. after   10 cycles
 SCF Done:  E(RB3LYP) =  -617.147291274     A.U. after   10 cycles
 SCF Done:  E(RB3LYP) =  -617.147594954     A.U. after   10 cycles
 SCF Done:  E(RB3LYP) =  -617.147668157     A.U. after   10 cycles
 SCF Done:  E(RB3LYP) =  -617.147690086     A.U. after    9 cycles
 SCF Done:  E(RB3LYP) =  -617.147703434     A.U. after    9 cycles
 SCF Done:  E(RB3LYP) =  -617.147706625     A.U. after    8 cycles
 SCF Done:  E(RB3LYP) =  -617.147708293     A.U. after    7 cycles
 SCF Done:  E(RB3LYP) =  -617.147708744     A.U. after    7 cycles
 SCF Done:  E(RB3LYP) =  -617.147708760     A.U. after    6 cycles
 Optimization completed.
    -- Stationary point found.
 Normal termination of Gaussian 16 at Thu Dec 10 10:30:41 2020.

 --------------------------------------------------------------------
 #N Geom=AllCheck Guess=TCheck SCRF=Check GenChk RB3LYP/6-31G(d) Freq
 --------------------------------------------------------------------

 Structure from the checkpoint file:  "JID_4731.chk"
 -------------------------------
 CID_131149691_JID_4731_neutraal
 -------------------------------
 Charge =  0 Multiplicity = 1

 SCF Done:  E(RB3LYP) =  -617.147708760     A.U. after    1 cycles

  Exact polarizability: 146.638   3.631 127.045  -1.367   2.096 113.852
 Approx polarizability: 180.990   2.600 177.558  -2.624   3.365 174.117

                      1                      2                      3
                      A                      A                      A
 Frequencies --     39.3918                77.7005                95.3776
 Red. masses --      4.1159                 3.7118                 3.0273
 Frc consts  --      0.0038                 0.0132                 0.0162
 IR Inten    --      1.5912                 0.8716                 0.7840

                      4                      5                      6
                      A                      A                      A
 Frequencies --    121.5583               150.0150               185.2599
 Red. masses --      2.5658                 2.5770                 2.7826
 Frc consts  --      0.0223                 0.0342                 0.0563
 IR Inten    --      0.1649                 1.7609                 2.5830

                      7                      8                      9
                      A                      A                      A
 Frequencies --    210.9418               218.5175               248.0944
 Red. masses --      2.0195                 1.2850                 2.3620
 Frc consts  --      0.0529                 0.0362                 0.0857
 IR Inten    --      0.1127                 1.8564                 1.8788

                     10                     11                     12
                      A                      A                      A
 Frequencies --    254.1666               286.4739               305.6130
 Red. masses --      2.7145                 2.5401                 2.6701
 Frc consts  --      0.1033                 0.1228                 0.1469
 IR Inten    --      1.5499                 0.3602                 0.3259

                     13                     14                     15
                      A                      A                      A
 Frequencies --    325.1757               367.4184               375.3666
 Red. masses --      2.8226                 3.0432                 1.3299
 Frc consts  --      0.1758                 0.2420                 0.1104
 IR Inten    --      6.0758                 5.3032                67.5886

                     16                     17                     18
                      A                      A                      A
 Frequencies --    407.4038               417.6762               456.8079
 Red. masses --      2.5269                 2.2420                 2.4624
 Frc consts  --      0.2471                 0.2304                 0.3027
 IR Inten    --     16.3823                21.1815                 3.7897

                     19                     20                     21
                      A                      A                      A
 Frequencies --    463.7260               508.3188               598.3289
 Red. masses --      2.4528                 2.7631                 3.2338
 Frc consts  --      0.3108                 0.4207                 0.6821
 IR Inten    --      2.2775                 2.9639                 7.9963

                     22                     23                     24
                      A                      A                      A
 Frequencies --    613.8267               686.9421               781.9640
 Red. masses --      2.2760                 2.0888                 1.6048
 Frc consts  --      0.5052                 0.5808                 0.5781
 IR Inten    --     10.9446                 0.4926                 3.6726

                     25                     26                     27
                      A                      A                      A
 Frequencies --    817.1624               846.4515               869.5124
 Red. masses --      2.0989                 2.6271                 2.5614
 Frc consts  --      0.8258                 1.1090                 1.1410
 IR Inten    --      2.8197                23.4691                 9.0874

                     28                     29                     30
                      A                      A                      A
 Frequencies --    881.7457               894.7225               919.4687
 Red. masses --      1.9120                 1.5096                 1.6284
 Frc consts  --      0.8758                 0.7120                 0.8111
 IR Inten    --      3.8317                10.2737                 0.6269

                     31                     32                     33
                      A                      A                      A
 Frequencies --    942.5846               946.0846               953.1922
 Red. masses --      2.3316                 1.9364                 1.5687
 Frc consts  --      1.2205                 1.0212                 0.8398
 IR Inten    --      8.8085                 0.9326                38.0521

                     34                     35                     36
                      A                      A                      A
 Frequencies --    967.5875               982.8896               991.8590
 Red. masses --      1.6876                 1.8511                 2.0628
 Frc consts  --      0.9309                 1.0536                 1.1957
 IR Inten    --      4.2300                41.5052                 6.2632

                     37                     38                     39
                      A                      A                      A
 Frequencies --   1017.2047              1023.7476              1051.8538
 Red. masses --      1.8101                 2.2310                 2.0383
 Frc consts  --      1.1035                 1.3776                 1.3287
 IR Inten    --     11.2519                10.5831                36.7814

                     40                     41                     42
                      A                      A                      A
 Frequencies --   1098.0693              1099.0177              1103.6507
 Red. masses --      2.1617                 1.9529                 2.6453
 Frc consts  --      1.5357                 1.3897                 1.8984
 IR Inten    --      1.9083                 9.9130                 5.9190

                     43                     44                     45
                      A                      A                      A
 Frequencies --   1127.0968              1152.5066              1165.6756
 Red. masses --      2.0546                 2.4894                 2.2781
 Frc consts  --      1.5378                 1.9482                 1.8238
 IR Inten    --      3.3738                82.2196                53.0700

                     46                     47                     48
                      A                      A                      A
 Frequencies --   1178.8650              1192.7966              1203.2831
 Red. masses --      1.9596                 2.5273                 1.8892
 Frc consts  --      1.6045                 2.1186                 1.6117
 IR Inten    --      9.2061                 6.1088                 3.1541

                     49                     50                     51
                      A                      A                      A
 Frequencies --   1211.3770              1233.7902              1244.1158
 Red. masses --      1.8449                 1.7359                 2.0294
 Frc consts  --      1.5951                 1.5569                 1.8507
 IR Inten    --     28.2877                18.2374                29.2943

                     52                     53                     54
                      A                      A                      A
 Frequencies --   1267.8979              1276.1295              1284.5619
 Red. masses --      1.4323                 1.2796                 1.2973
 Frc consts  --      1.3566                 1.2278                 1.2612
 IR Inten    --      5.1476                 0.6507                 4.7501

                     55                     56                     57
                      A                      A                      A
 Frequencies --   1292.1562              1307.8216              1320.9263
 Red. masses --      1.4324                 1.1972                 1.5713
 Frc consts  --      1.4091                 1.2064                 1.6154
 IR Inten    --      0.4197                25.2051                 1.9336

                     58                     59                     60
                      A                      A                      A
 Frequencies --   1330.8206              1334.3173              1357.2261
 Red. masses --      1.2109                 1.3193                 1.3663
 Frc consts  --      1.2636                 1.3839                 1.4829
 IR Inten    --      9.2597                 8.3307                 4.3007

                     61                     62                     63
                      A                      A                      A
 Frequencies --   1363.8721              1392.0383              1394.9690
 Red. masses --      1.1955                 1.2136                 1.2084
 Frc consts  --      1.3102                 1.3856                 1.3855
 IR Inten    --      8.6960                 3.2431                 1.4580

                     64                     65                     66
                      A                      A                      A
 Frequencies --   1409.0252              1413.8070              1430.3014
 Red. masses --      1.4037                 1.3461                 1.3184
 Frc consts  --      1.6419                 1.5853                 1.5891
 IR Inten    --     40.3478                 1.7788                 8.0484

                     67                     68                     69
                      A                      A                      A
 Frequencies --   1438.4024              1444.0426              1457.1296
 Red. masses --      1.2598                 1.3066                 1.4421
 Frc consts  --      1.5357                 1.6053                 1.8040
 IR Inten    --      9.2005                 7.9464                21.4621

                     70                     71                     72
                      A                      A                      A
 Frequencies --   1465.9907              1510.6722              1513.1143
 Red. masses --      1.3830                 1.0831                 1.0799
 Frc consts  --      1.7512                 1.4563                 1.4567
 IR Inten    --      0.5370                 1.3896                 0.7171

                     73                     74                     75
                      A                      A                      A
 Frequencies --   1521.1437              1526.4872              1527.4431
 Red. masses --      1.0931                 1.0873                 1.1044
 Frc consts  --      1.4903                 1.4928                 1.5182
 IR Inten    --      2.0222                 2.0241                 3.2651

                     76                     77                     78
                      A                      A                      A
 Frequencies --   1529.6995              1533.1701              1538.3802
 Red. masses --      1.0506                 1.0672                 1.1060
 Frc consts  --      1.4485                 1.4780                 1.5421
 IR Inten    --      5.9223                 4.8167                 1.7349

                     79                     80                     81
                      A                      A                      A
 Frequencies --   1542.4914              1683.5606              2908.5229
 Red. masses --      1.0941                 1.0872                 1.0736
 Frc consts  --      1.5338                 1.8156                 5.3512
 IR Inten    --      5.2995                26.4694                37.0663

                     82                     83                     84
                      A                      A                      A
 Frequencies --   2928.0801              2956.5657              2960.1840
 Red. masses --      1.0817                 1.0731                 1.0719
 Frc consts  --      5.4643                 5.5268                 5.5342
 IR Inten    --     72.8319                45.6176                56.2591

                     85                     86                     87
                      A                      A                      A
 Frequencies --   2978.8023              3001.2529              3042.2933
 Red. masses --      1.0720                 1.0679                 1.0392
 Frc consts  --      5.6043                 5.6674                 5.6667
 IR Inten    --     98.4106                83.8834                24.9564

                     88                     89                     90
                      A                      A                      A
 Frequencies --   3055.1221              3055.9168              3071.2178
 Red. masses --      1.0879                 1.0806                 1.0577
 Frc consts  --      5.9826                 5.9455                 5.8778
 IR Inten    --     47.6649                23.7660                36.1026

                     91                     92                     93
                      A                      A                      A
 Frequencies --   3075.9332              3077.7125              3088.4827
 Red. masses --      1.0615                 1.0970                 1.0865
 Frc consts  --      5.9170                 6.1223                 6.1064
 IR Inten    --     42.7943                42.9828                44.4627

                     94                     95                     96
                      A                      A                      A
 Frequencies --   3090.1472              3105.4333              3105.8553
 Red. masses --      1.0894                 1.0896                 1.0973
 Frc consts  --      6.1294                 6.1910                 6.2364
 IR Inten    --     19.9460                41.2957                28.0405

                     97                     98                     99
                      A                      A                      A
 Frequencies --   3112.0158              3115.9475              3119.3090
 Red. masses --      1.0913                 1.1094                 1.1018
 Frc consts  --      6.2269                 6.3461                 6.3165
 IR Inten    --     26.0361                10.1833                33.8021

                    100                    101                    102
                      A                      A                      A
 Frequencies --   3131.7154              3465.0600              3551.8583
 Red. masses --      1.1079                 1.0501                 1.0919
 Frc consts  --      6.4021                 7.4288                 8.1158
 IR Inten    --     54.5614                21.0885                 8.7859

 - Thermochemistry -
 -------------------
 Temperature   298.150 Kelvin.  Pressure   1.00000 Atm.
 Atom     1 has atomic number  6 and mass  12.00000

 Molecular mass:   198.17321 amu.
 Principal axes and moments of inertia in atomic units:
                           1         2         3
     Eigenvalues --  1733.614593787.623454373.82100
           X            0.99975   0.01756  -0.01420
           Y           -0.01752   0.99984   0.00290
           Z            0.01425  -0.00265   0.99990
 This molecule is an asymmetric top.
 Rotational symmetry number  1.
 Warning -- assumption of classical behavior for rotation
           may cause significant error
 Rotational temperatures (Kelvin)      0.04996     0.02287     0.01980
 Rotational constants (GHZ):           1.04103     0.47648     0.41262
 Zero-point vibrational energy     871583.6 (Joules/Mol)
                                  208.31349 (Kcal/Mol)
 Warning -- explicit consideration of  22 degrees of freedom as
           vibrations may cause significant error
 Vibrational temperatures:     56.68   111.79   137.23   174.90   215.84
          (Kelvin)            266.55   303.50   314.40   356.95   365.69
                              412.17   439.71   467.86   528.63   540.07
                              586.16   600.94   657.24   667.20   731.36
                              860.86   883.16   988.36  1125.07  1175.71
                             1217.85  1251.03  1268.64  1287.31  1322.91
                             1356.17  1361.20  1371.43  1392.14  1414.16
                             1427.06  1463.53  1472.94  1513.38  1579.88
                             1581.24  1587.91  1621.64  1658.20  1677.15
                             1696.12  1716.17  1731.26  1742.90  1775.15
                             1790.01  1824.22  1836.07  1848.20  1859.12
                             1881.66  1900.52  1914.75  1919.79  1952.75
                             1962.31  2002.83  2007.05  2027.27  2034.15
                             2057.88  2069.54  2077.66  2096.48  2109.23
                             2173.52  2177.03  2188.59  2196.27  2197.65
                             2200.90  2205.89  2213.39  2219.30  2422.27
                             4184.72  4212.85  4253.84  4259.04  4285.83
                             4318.13  4377.18  4395.64  4396.78  4418.80
                             4425.58  4428.14  4443.64  4446.03  4468.03
                             4468.63  4477.50  4483.15  4487.99  4505.84
                             4985.45  5110.33

 Zero-point correction=                           0.331969 (Hartree/Particle)
 Thermal correction to Energy=                    0.346061
 Thermal correction to Enthalpy=                  0.347005
 Thermal correction to Gibbs Free Energy=         0.291693
 Sum of electronic and zero-point Energies=           -616.815740
 Sum of electronic and thermal Energies=              -616.801648
 Sum of electronic and thermal Enthalpies=            -616.800704
 Sum of electronic and thermal Free Energies=         -616.856016

                     E (Thermal)             CV                S
                      KCal/Mol        Cal/Mol-Kelvin    Cal/Mol-Kelvin
 Total                  217.156             55.628            116.415
 Electronic               0.000              0.000              0.000
 Translational            0.889              2.981             41.757
 Rotational               0.889              2.981             31.730
 Vibrational            215.379             49.666             42.928
 Vibration     1          0.594              1.981              5.289
 Vibration     2          0.599              1.964              3.948
 Vibration     3          0.603              1.952              3.547
 Vibration     4          0.609              1.931              3.075
 Vibration     5          0.618              1.903              2.672
 Vibration     6          0.631              1.860              2.275
 Vibration     7          0.643              1.824              2.036
 Vibration     8          0.646              1.813              1.971
 Vibration     9          0.662              1.766              1.744
 Vibration    10          0.665              1.756              1.702
 Vibration    11          0.684              1.699              1.495
 Vibration    12          0.696              1.663              1.386
 Vibration    13          0.709              1.625              1.284
 Vibration    14          0.740              1.539              1.091
 Vibration    15          0.746              1.523              1.058
 Vibration    16          0.772              1.454              0.936
 Vibration    17          0.781              1.432              0.900
 Vibration    18          0.815              1.346              0.775
 Vibration    19          0.821              1.331              0.755
 Vibration    20          0.863              1.232              0.638
 Vibration    21          0.956              1.035              0.453
 Vibration    22          0.973              1.003              0.426

 Optimization completed.
    -- Stationary point found.
 Normal termination of Gaussian 16 at Thu Dec 10 10:43:31 2020.

 ----------------------------------------------------------------------
 # B3LYP/6-311++G(d,p) empiricaldispersion=gd3bj scf=xqc pop=npa geom=c
 heck
 ----------------------------------------------------------------------

 ---------------------------------------
 CID_131149691_JID_4731_Energie_neutraal
 ---------------------------------------
 Structure from the checkpoint file:  "JID_4731.chk"
 Charge =  0 Multiplicity = 1

 SCF Done:  E(RB3LYP) =  -617.325806551     A.U. after   14 cycles
 Normal termination of Gaussian 16 at Thu Dec 10 10:49:33 2020.

 ----------------------------------------------------------------------
 # B3LYP/6-311++G(d,p) empiricaldispersion=gd3bj scf=xqc pop=npa geom=c
 heck
 ----------------------------------------------------------------------

 -------------------------------------
 CID_131149691_JID_4731_Energie_kation
 -------------------------------------
 Structure from the checkpoint file:  "JID_4731.chk"
 Charge =  1 Multiplicity = 2

 SCF Done:  E(UB3LYP) =  -617.036101971     A.U. after   24 cycles
 Normal termination of Gaussian 16 at Thu Dec 10 11:00:45 2020.
 Gaussian 16:  ES64L-G16RevA.03 25-Dec-2016

 ----------------------------------------------------------------------
 # B3LYP/6-311++G(d,p) empiricaldispersion=gd3bj scf=xqc pop=npa geom=c
 heck
 ----------------------------------------------------------------------

 ------------------------------------
 CID_131149691_JID_4731_Energie_anion
 ------------------------------------
 Structure from the checkpoint file:  "JID_4731.chk"
 Charge = -1 Multiplicity = 2

                         Standard orientation:
 ---------------------------------------------------------------------
 Center     Atomic      Atomic             Coordinates (Angstroms)
 Number     Number       Type             X           Y           Z
 ---------------------------------------------------------------------
      1          6           0        2.924585    1.874571   -1.055975
      2          6           0        2.076160    0.933881   -0.191462
      3          6           0        0.765396    0.615086   -0.922564
      4          7           0       -0.093315   -0.395944   -0.289487
      5          6           0        0.490848   -1.731198   -0.392420
      6          6           0        1.382110   -2.072791    0.807102
      7          8           0        2.244405   -1.038205    1.242281
      8          6           0        2.891868   -0.296811    0.220671
      9          6           0       -1.439685   -0.298895   -0.844744
     10          6           0       -2.504275   -1.359258   -0.484318
     11          6           0       -3.556456   -0.218906   -0.502971
     12          6           0       -2.401760    0.801672   -0.294031
     13          6           0       -2.227295    1.146446    1.185718
     14          7           0       -0.965960    1.848035    1.444810
     15          1           0        2.359229    2.770700   -1.333861
     16          1           0        3.243159    1.381237   -1.983221
     17          1           0        3.825116    2.198051   -0.522158
     18          1           0        1.820904    1.452945    0.740832
     19          1           0        0.188984    1.542548   -0.980428
     20          1           0        0.998241    0.307826   -1.963064
     21          1           0        1.052377   -1.843277   -1.337322
     22          1           0       -0.304392   -2.482503   -0.420732
     23          1           0        1.959236   -2.982166    0.564203
     24          1           0        0.752144   -2.294547    1.674617
     25          1           0        3.129067   -0.928450   -0.650678
     26          1           0        3.846221    0.034084    0.646777
     27          1           0       -1.404890   -0.208909   -1.947283
     28          1           0       -2.639987   -2.199804   -1.171332
     29          1           0       -2.354711   -1.747042    0.528174
     30          1           0       -4.334668   -0.244651    0.266454
     31          1           0       -4.033301   -0.116402   -1.482151
     32          1           0       -2.441875    1.727104   -0.877199
     33          1           0       -3.056637    1.807354    1.469479
     34          1           0       -2.344311    0.227960    1.788081
     35          1           0       -0.981178    2.230403    2.389146
     36          1           0       -0.228024    1.145768    1.426126
 ---------------------------------------------------------------------

 SCF Done:  E(UB3LYP) =  -617.308206130     A.U. after   33 cycles
 SCF Done:  E(UB3LYP) =  -617.308206130     a.u. after    1 cycles

 The electronic state is 2-A.
 Alpha  occ. eigenvalues --  -19.02388 -14.20798 -14.18782 -10.11681 -10.11672
 Alpha  occ. eigenvalues --  -10.09891 -10.09477 -10.09104 -10.09063 -10.07644
 Alpha  occ. eigenvalues --  -10.07089 -10.06944 -10.06791 -10.06634  -0.93885
 Alpha  occ. eigenvalues --   -0.83269  -0.78109  -0.73992  -0.70785  -0.64227
 Alpha  occ. eigenvalues --   -0.60251  -0.59371  -0.57832  -0.53564  -0.51959
 Alpha  occ. eigenvalues --   -0.48227  -0.47537  -0.43482  -0.42037  -0.40366
 Alpha  occ. eigenvalues --   -0.38983  -0.38384  -0.37281  -0.36555  -0.34911
 Alpha  occ. eigenvalues --   -0.34045  -0.33716  -0.31844  -0.30496  -0.29888
 Alpha  occ. eigenvalues --   -0.29559  -0.28634  -0.27601  -0.26752  -0.25883
 Alpha  occ. eigenvalues --   -0.25518  -0.23963  -0.23726  -0.22659  -0.21234
 Alpha  occ. eigenvalues --   -0.20728  -0.20301  -0.15896  -0.14415  -0.12430
 Alpha  occ. eigenvalues --    0.04565
 Alpha virt. eigenvalues --    0.06275   0.06740   0.07085   0.08212   0.08517
 Alpha virt. eigenvalues --    0.08748   0.09253   0.09827   0.10761   0.10989
 Alpha virt. eigenvalues --    0.11244   0.11634   0.12005   0.12803   0.13396

  Beta  occ. eigenvalues --  -19.02384 -14.20781 -14.18772 -10.11666 -10.11654
  Beta  occ. eigenvalues --  -10.09884 -10.09461 -10.09090 -10.09055 -10.07640
  Beta  occ. eigenvalues --  -10.07084 -10.06925 -10.06766 -10.06606  -0.93871
  Beta  occ. eigenvalues --   -0.83242  -0.78092  -0.73968  -0.70764  -0.64197
  Beta  occ. eigenvalues --   -0.60220  -0.59336  -0.57791  -0.53519  -0.51906
  Beta  occ. eigenvalues --   -0.48176  -0.47495  -0.43440  -0.42018  -0.40323
  Beta  occ. eigenvalues --   -0.38955  -0.38353  -0.37258  -0.36524  -0.34883
  Beta  occ. eigenvalues --   -0.34010  -0.33688  -0.31809  -0.30460  -0.29859
  Beta  occ. eigenvalues --   -0.29532  -0.28606  -0.27573  -0.26723  -0.25855
  Beta  occ. eigenvalues --   -0.25493  -0.23934  -0.23699  -0.22631  -0.21211
  Beta  occ. eigenvalues --   -0.20701  -0.20270  -0.15873  -0.14393  -0.12343
  Beta virt. eigenvalues --    0.06609   0.07124   0.07460   0.07620   0.08743
  Beta virt. eigenvalues --    0.09041   0.09150   0.09675   0.10298   0.11133
  Beta virt. eigenvalues --    0.11375   0.11693   0.12026   0.12286   0.13079

 Mulliken charges and spin densities:
               1          2
     1  C    0.536408  -1.289925
     2  C   -1.882135   2.519533
     3  C    0.778734  -1.736851
     4  N    0.391483   0.085640
     5  C    0.081875  -0.128054
     6  C    0.211152  -0.655353
     7  O   -0.143850   0.029200
     8  C    0.422603  -0.939451
     9  C   -1.043838   0.343614
    10  C    1.222099  -1.395860
    11  C    0.294405  -0.998895
    12  C   -0.770696   1.379474
    13  C    0.909444  -1.530658
    14  N   -0.469490   0.096886
    15  H   -0.107501   0.246533
    16  H   -0.200051   0.342306
    17  H   -0.283947   0.436997
    18  H    0.093442   0.085656
    19  H    0.375776  -0.186778
    20  H   -0.096798   0.235341
    21  H   -0.177672   0.321545
    22  H   -0.551480   0.742631
    23  H   -0.146201   0.294645
    24  H    0.029465   0.129197
    25  H   -0.020272   0.172388
    26  H   -0.088897   0.259639
    27  H    0.084535   0.069581
    28  H   -0.300713   0.464352
    29  H    0.145404   0.007511
    30  H   -0.162321   0.313604
    31  H   -0.259886   0.404931
    32  H   -0.134602   0.344123
    33  H   -0.146807   0.322067
    34  H   -0.054515   0.188933
    35  H    0.139653   0.083932
    36  H    0.325197  -0.058433
 Sum of Mulliken charges =  -1.00000   1.00000

 Dipole moment (field-independent basis, Debye):
    X=              0.3959    Y=              1.1515    Z=              2.3608  Tot=              2.6563
 Quadrupole moment (field-independent basis, Debye-Ang):
   XX=           -163.6941   YY=           -139.7963   ZZ=           -127.2558
   XY=             -5.2547   XZ=              0.3474   YZ=             -2.3625

 Summary of Natural Population Analysis:

                                       Natural Population
                Natural  -----------------------------------------------
    Atom  No    Charge         Core      Valence    Rydberg      Total
 -----------------------------------------------------------------------
      C    1   -0.28507      0.99965     2.27954    0.00588     3.28507
      C    2   -0.12995      0.99959     2.12055    0.00981     3.12995
      C    3   -0.08474      0.99958     2.07406    0.01110     3.08474
      N    4   -0.29029      0.99968     2.77726    0.01334     3.79029
      C    5   -0.10348      0.99960     2.09254    0.01133     3.10348
      C    6   -0.00473      0.99957     1.99242    0.01275     3.00473
      O    7   -0.30166      0.99989     3.29257    0.00920     4.30166
      C    8   -0.00934      0.99954     1.99660    0.01320     3.00934
      C    9    0.00253      0.99955     1.98377    0.01415     2.99747
      C   10   -0.19597      0.99962     2.18743    0.00891     3.19597
      C   11   -0.18696      0.99963     2.17851    0.00882     3.18696
      C   12   -0.10981      0.99958     2.09844    0.01180     3.10981
      C   13   -0.08833      0.99960     2.07689    0.01185     3.08833
      N   14   -0.42806      0.99976     2.91822    0.01008     3.92806
      H   15    0.10206      0.00000     0.39699    0.00095     0.39794
      H   16    0.09857      0.00000     0.40026    0.00117     0.40143
      H   17    0.10018      0.00000     0.39879    0.00103     0.39982
      H   18    0.09799      0.00000     0.39985    0.00216     0.40201
      H   19    0.10673      0.00000     0.39153    0.00174     0.39327
      H   20    0.08210      0.00000     0.41626    0.00163     0.41790
      H   21    0.08449      0.00000     0.41358    0.00192     0.41551
      H   22    0.10608      0.00000     0.39218    0.00174     0.39392
      H   23    0.07673      0.00000     0.42207    0.00120     0.42327
      H   24    0.08834      0.00000     0.41012    0.00155     0.41166
      H   25    0.08054      0.00000     0.41800    0.00146     0.41946
      H   26    0.08998      0.00000     0.40866    0.00135     0.41002
      H   27    0.08603      0.00000     0.41233    0.00164     0.41397
      H   28    0.10102      0.00000     0.39731    0.00167     0.39898
      H   29    0.09899      0.00000     0.39933    0.00169     0.40101
      H   30    0.09682      0.00000     0.40205    0.00113     0.40318
      H   31    0.09972      0.00000     0.39900    0.00128     0.40028
      H   32    0.09751      0.00000     0.40130    0.00118     0.40249
      H   33    0.09036      0.00000     0.40847    0.00117     0.40964
      H   34    0.07847      0.00000     0.41958    0.00196     0.42153
      H   35    0.17015      0.00000     0.32839    0.00146     0.32985
      H   36    0.18300      0.00000     0.31389    0.00311     0.31700
 =======================================================================
   * Total *   -0.00000     13.99483    40.81874    0.18643    55.00000

 Normal termination of Gaussian 16 at Thu Dec 10 11:15:48 2020.
