 Gaussian 16, Revision A.03,

 -----------------------------------------------------------
 # opt freq B3LYP/6-31G(d) empiricaldispersion=gd3bj scf=xqc
 -----------------------------------------------------------

 ------------------------------
 CID_81777968_JID_5038_neutraal
 ------------------------------
 Symbolic Z-matrix:
 Charge =  0 Multiplicity = 1

 SCF Done:  E(RB3LYP) =  -1011.74060724     A.U. after   15 cycles
 SCF Done:  E(RB3LYP) =  -1011.74491122     A.U. after   13 cycles
 SCF Done:  E(RB3LYP) =  -1011.74539271     A.U. after   13 cycles
 SCF Done:  E(RB3LYP) =  -1011.74581726     A.U. after   13 cycles
 SCF Done:  E(RB3LYP) =  -1011.74571682     A.U. after   12 cycles
 SCF Done:  E(RB3LYP) =  -1011.74614626     A.U. after   11 cycles
 SCF Done:  E(RB3LYP) =  -1011.74622678     A.U. after   11 cycles
 SCF Done:  E(RB3LYP) =  -1011.74626026     A.U. after   11 cycles
 SCF Done:  E(RB3LYP) =  -1011.74629902     A.U. after   10 cycles
 SCF Done:  E(RB3LYP) =  -1011.74635357     A.U. after   11 cycles
 SCF Done:  E(RB3LYP) =  -1011.74685661     A.U. after    9 cycles
 SCF Done:  E(RB3LYP) =  -1011.74685740     A.U. after    9 cycles
 SCF Done:  E(RB3LYP) =  -1011.74685792     A.U. after    8 cycles
 SCF Done:  E(RB3LYP) =  -1011.74685836     A.U. after    9 cycles
 SCF Done:  E(RB3LYP) =  -1011.74685850     A.U. after    9 cycles
 Optimization completed.
    -- Stationary point found.
 Normal termination of Gaussian 16 at Thu Dec 10 15:28:49 2020.

 --------------------------------------------------------------------
 #N Geom=AllCheck Guess=TCheck SCRF=Check GenChk RB3LYP/6-31G(d) Freq
 --------------------------------------------------------------------

 Structure from the checkpoint file:  "JID_5038.chk"
 ------------------------------
 CID_81777968_JID_5038_neutraal
 ------------------------------
 Charge =  0 Multiplicity = 1

 SCF Done:  E(RB3LYP) =  -1011.74685850     A.U. after    1 cycles

  Exact polarizability: 174.359  -0.038 144.308   2.599  -0.413 109.882
 Approx polarizability: 241.583   1.837 226.798  -0.159   0.815 182.696

                      1                      2                      3
                      A                      A                      A
 Frequencies --     13.8304                19.0824                56.6550
 Red. masses --      5.1990                 4.9753                 5.7371
 Frc consts  --      0.0006                 0.0011                 0.0108
 IR Inten    --      0.3314                 0.4736                 0.7845

                      4                      5                      6
                      A                      A                      A
 Frequencies --     65.8300                76.9540                81.0182
 Red. masses --      3.6393                 2.4849                 1.2635
 Frc consts  --      0.0093                 0.0087                 0.0049
 IR Inten    --      1.6353                 0.2667                 0.2255

                      7                      8                      9
                      A                      A                      A
 Frequencies --    108.5734               124.6041               171.3210
 Red. masses --      3.1458                 4.9602                 4.8636
 Frc consts  --      0.0218                 0.0454                 0.0841
 IR Inten    --      0.7394                 0.7444                 1.5299

                     10                     11                     12
                      A                      A                      A
 Frequencies --    194.9679               200.4091               250.8019
 Red. masses --      4.1312                 2.6801                 1.3942
 Frc consts  --      0.0925                 0.0634                 0.0517
 IR Inten    --      2.5769                 3.1202                55.4172

                     13                     14                     15
                      A                      A                      A
 Frequencies --    293.6691               303.0070               315.6111
 Red. masses --      1.9831                 2.5360                 3.8952
 Frc consts  --      0.1008                 0.1372                 0.2286
 IR Inten    --      9.1720                 0.6032                 7.4821

                     16                     17                     18
                      A                      A                      A
 Frequencies --    345.9612               374.5889               428.3702
 Red. masses --      3.1211                 3.0162                 2.8343
 Frc consts  --      0.2201                 0.2494                 0.3064
 IR Inten    --      2.5143                 0.7212                11.4391

                     19                     20                     21
                      A                      A                      A
 Frequencies --    431.4855               487.3295               527.3958
 Red. masses --      1.8724                 5.3527                 4.6170
 Frc consts  --      0.2054                 0.7490                 0.7566
 IR Inten    --      0.1261                 5.4157                 9.9122

                     22                     23                     24
                      A                      A                      A
 Frequencies --    551.8846               578.6937               605.9224
 Red. masses --      4.6616                 1.2478                 3.4057
 Frc consts  --      0.8365                 0.2462                 0.7367
 IR Inten    --      1.7620                35.9718                13.6264

                     25                     26                     27
                      A                      A                      A
 Frequencies --    639.7226               668.5641               683.7987
 Red. masses --      2.8294                 4.5119                 2.5811
 Frc consts  --      0.6822                 1.1882                 0.7111
 IR Inten    --     14.4873                 8.4411                34.4993

                     28                     29                     30
                      A                      A                      A
 Frequencies --    718.2200               727.3896               774.8187
 Red. masses --      2.0531                 2.1113                 3.1506
 Frc consts  --      0.6240                 0.6582                 1.1144
 IR Inten    --     25.5856                15.2108                10.8150

                     31                     32                     33
                      A                      A                      A
 Frequencies --    808.5072               831.4702               870.5975
 Red. masses --      3.6589                 5.0493                 2.3776
 Frc consts  --      1.4092                 2.0567                 1.0617
 IR Inten    --      5.6549                 2.3567                82.5424

                     34                     35                     36
                      A                      A                      A
 Frequencies --    889.8906               905.3383               922.9882
 Red. masses --      1.2623                 2.6201                 1.3727
 Frc consts  --      0.5890                 1.2653                 0.6890
 IR Inten    --      0.7354                 1.0103                54.4278

                     37                     38                     39
                      A                      A                      A
 Frequencies --    939.0609               944.1356              1001.6160
 Red. masses --      1.7121                 1.3900                 1.4894
 Frc consts  --      0.8895                 0.7300                 0.8804
 IR Inten    --      8.1668                53.2963                 0.2916

                     40                     41                     42
                      A                      A                      A
 Frequencies --   1023.2702              1052.2445              1071.3113
 Red. masses --      2.4605                 1.1437                 1.5463
 Frc consts  --      1.5179                 0.7461                 1.0456
 IR Inten    --     45.7970                31.3002                 1.5284

                     43                     44                     45
                      A                      A                      A
 Frequencies --   1075.0260              1076.0537              1117.5505
 Red. masses --      1.6505                 1.6833                 1.4957
 Frc consts  --      1.1238                 1.1484                 1.1006
 IR Inten    --      6.6757                10.6255                 3.5554

                     46                     47                     48
                      A                      A                      A
 Frequencies --   1139.1369              1178.1368              1201.5242
 Red. masses --      3.0095                 2.1236                 1.2563
 Frc consts  --      2.3009                 1.7367                 1.0686
 IR Inten    --     16.5480                26.7370                 2.2372

                     49                     50                     51
                      A                      A                      A
 Frequencies --   1205.0269              1259.0168              1264.0583
 Red. masses --      2.9805                 1.6959                 1.4611
 Frc consts  --      2.5499                 1.5839                 1.3755
 IR Inten    --      3.3480                 8.9125                26.6645

                     52                     53                     54
                      A                      A                      A
 Frequencies --   1286.3792              1305.5443              1336.0484
 Red. masses --      1.1369                 1.4625                 1.2394
 Frc consts  --      1.1085                 1.4687                 1.3035
 IR Inten    --     14.2264                14.3029                 2.2521

                     55                     56                     57
                      A                      A                      A
 Frequencies --   1364.0791              1372.1963              1416.1705
 Red. masses --      1.3522                 1.3699                 2.2933
 Frc consts  --      1.4824                 1.5197                 2.7098
 IR Inten    --      2.3527                57.4472                43.4085

                     58                     59                     60
                      A                      A                      A
 Frequencies --   1421.5101              1434.2212              1447.5544
 Red. masses --      2.0378                 1.6803                 1.3458
 Frc consts  --      2.4261                 2.0364                 1.6616
 IR Inten    --     40.6698                58.7766                 2.3337

                     61                     62                     63
                      A                      A                      A
 Frequencies --   1473.0601              1488.1388              1500.2208
 Red. masses --      1.1726                 1.7678                 3.2263
 Frc consts  --      1.4991                 2.3067                 4.2782
 IR Inten    --      2.8049               109.5507                 7.0694

                     64                     65                     66
                      A                      A                      A
 Frequencies --   1512.1072              1514.7788              1521.2839
 Red. masses --      1.1293                 1.0478                 1.2777
 Frc consts  --      1.5213                 1.4166                 1.7423
 IR Inten    --     14.7011                 4.1743                 5.5165

                     67                     68                     69
                      A                      A                      A
 Frequencies --   1539.0259              1630.1532              1704.2330
 Red. masses --      1.0937                 5.5838                 1.1033
 Frc consts  --      1.5263                 8.7425                 1.8880
 IR Inten    --      7.5770                 2.7899                32.7267

                     70                     71                     72
                      A                      A                      A
 Frequencies --   1724.2321              1764.8918              3047.2986
 Red. masses --      4.1313                 7.8076                 1.0389
 Frc consts  --      7.2364                14.3287                 5.6842
 IR Inten    --      3.6561               378.6931                28.8832

                     73                     74                     75
                      A                      A                      A
 Frequencies --   3050.4574              3075.0754              3096.3019
 Red. masses --      1.0602                 1.0706                 1.1011
 Frc consts  --      5.8128                 5.9649                 6.2198
 IR Inten    --     25.0024                28.5715                16.9001

                     76                     77                     78
                      A                      A                      A
 Frequencies --   3099.9714              3102.5639              3140.6152
 Red. masses --      1.1024                 1.0871                 1.0983
 Frc consts  --      6.2418                 6.1656                 6.3828
 IR Inten    --     11.3229                18.2467                16.2816

                     79                     80                     81
                      A                      A                      A
 Frequencies --   3151.3642              3157.5306              3160.0786
 Red. masses --      1.0599                 1.0922                 1.0913
 Frc consts  --      6.2018                 6.4160                 6.4206
 IR Inten    --     15.6724                 5.2078                 4.3789

                     82                     83                     84
                      A                      A                      A
 Frequencies --   3213.3482              3235.9975              3270.7756
 Red. masses --      1.0911                 1.1152                 1.0967
 Frc consts  --      6.6376                 6.8804                 6.9123
 IR Inten    --      8.9212                16.5001                 1.1621

                     85                     86                     87
                      A                      A                      A
 Frequencies --   3466.4741              3557.1139              3590.3331
 Red. masses --      1.0512                 1.0916                 1.0759
 Frc consts  --      7.4427                 8.1376                 8.1711
 IR Inten    --      2.5221                 1.9678                20.7158

 - Thermochemistry -
 -------------------
 Temperature   298.150 Kelvin.  Pressure   1.00000 Atm.
 Atom     1 has atomic number  6 and mass  12.00000

 Molecular mass:   224.09834 amu.
 Principal axes and moments of inertia in atomic units:
                           1         2         3
     Eigenvalues --  2140.186165404.044416394.75796
           X            0.99953   0.03011   0.00634
           Y           -0.02997   0.99932  -0.02138
           Z           -0.00698   0.02118   0.99975
 This molecule is an asymmetric top.
 Rotational symmetry number  1.
 Warning -- assumption of classical behavior for rotation
           may cause significant error
 Rotational temperatures (Kelvin)      0.04047     0.01603     0.01354
 Rotational constants (GHZ):           0.84326     0.33396     0.28222
 Zero-point vibrational energy     680481.2 (Joules/Mol)
                                  162.63891 (Kcal/Mol)
 Warning -- explicit consideration of  24 degrees of freedom as
           vibrations may cause significant error
 Vibrational temperatures:     19.90    27.46    81.51    94.71   110.72
          (Kelvin)            116.57   156.21   179.28   246.49   280.52
                              288.34   360.85   422.52   435.96   454.09
                              497.76   538.95   616.33   620.81   701.16
                              758.80   794.04   832.61   871.79   920.42
                              961.91   983.83  1033.36  1046.55  1114.79
                             1163.26  1196.30  1252.60  1280.35  1302.58
                             1327.97  1351.10  1358.40  1441.10  1472.26
                             1513.95  1541.38  1546.72  1548.20  1607.91
                             1638.96  1695.08  1728.73  1733.76  1811.44
                             1818.70  1850.81  1878.39  1922.28  1962.61
                             1974.28  2037.55  2045.24  2063.52  2082.71
                             2119.40  2141.10  2158.48  2175.58  2179.43
                             2188.79  2214.31  2345.43  2452.01  2480.79
                             2539.29  4384.38  4388.93  4424.35  4454.89
                             4460.17  4463.90  4518.64  4534.11  4542.98
                             4546.65  4623.29  4655.88  4705.92  4987.48
                             5117.89  5165.69

 Zero-point correction=                           0.259182 (Hartree/Particle)
 Thermal correction to Energy=                    0.275654
 Thermal correction to Enthalpy=                  0.276598
 Thermal correction to Gibbs Free Energy=         0.212301
 Sum of electronic and zero-point Energies=          -1011.487677
 Sum of electronic and thermal Energies=             -1011.471205
 Sum of electronic and thermal Enthalpies=           -1011.470261
 Sum of electronic and thermal Free Energies=        -1011.534557

                     E (Thermal)             CV                S
                      KCal/Mol        Cal/Mol-Kelvin    Cal/Mol-Kelvin
 Total                  172.975             59.873            135.324
 Electronic               0.000              0.000              0.000
 Translational            0.889              2.981             42.123
 Rotational               0.889              2.981             32.670
 Vibrational            171.198             53.911             60.531
 Vibration     1          0.593              1.986              7.367
 Vibration     2          0.593              1.986              6.727
 Vibration     3          0.596              1.975              4.570
 Vibration     4          0.597              1.971              4.274
 Vibration     5          0.599              1.965              3.967
 Vibration     6          0.600              1.962              3.866
 Vibration     7          0.606              1.942              3.294
 Vibration     8          0.610              1.928              3.028
 Vibration     9          0.626              1.878              2.421
 Vibration    10          0.636              1.847              2.180
 Vibration    11          0.638              1.839              2.129
 Vibration    12          0.663              1.761              1.725
 Vibration    13          0.688              1.686              1.453
 Vibration    14          0.694              1.668              1.400
 Vibration    15          0.703              1.644              1.333
 Vibration    16          0.724              1.583              1.185
 Vibration    17          0.746              1.524              1.061
 Vibration    18          0.790              1.408              0.864
 Vibration    19          0.793              1.402              0.854
 Vibration    20          0.843              1.278              0.691
 Vibration    21          0.882              1.189              0.593
 Vibration    22          0.907              1.136              0.540
 Vibration    23          0.935              1.077              0.488
 Vibration    24          0.965              1.019              0.440

 Optimization completed.
    -- Stationary point found.
 Normal termination of Gaussian 16 at Thu Dec 10 15:38:46 2020.

 ----------------------------------------------------------------------
 # B3LYP/6-311++G(d,p) empiricaldispersion=gd3bj scf=xqc pop=npa geom=c
 heck
 ----------------------------------------------------------------------

 --------------------------------------
 CID_81777968_JID_5038_Energie_neutraal
 --------------------------------------
 Structure from the checkpoint file:  "JID_5038.chk"
 Charge =  0 Multiplicity = 1

 SCF Done:  E(RB3LYP) =  -1011.95779190     A.U. after   16 cycles
 Normal termination of Gaussian 16 at Thu Dec 10 15:43:39 2020.

 ----------------------------------------------------------------------
 # B3LYP/6-311++G(d,p) empiricaldispersion=gd3bj scf=xqc pop=npa geom=c
 heck
 ----------------------------------------------------------------------

 ------------------------------------
 CID_81777968_JID_5038_Energie_kation
 ------------------------------------
 Structure from the checkpoint file:  "JID_5038.chk"
 Charge =  1 Multiplicity = 2

 SCF Done:  E(UB3LYP) =  -1011.66099867     A.U. after   30 cycles
 Normal termination of Gaussian 16 at Thu Dec 10 15:55:36 2020.
 Gaussian 16:  ES64L-G16RevA.03 25-Dec-2016

 ----------------------------------------------------------------------
 # B3LYP/6-311++G(d,p) empiricaldispersion=gd3bj scf=xqc pop=npa geom=c
 heck
 ----------------------------------------------------------------------

 -----------------------------------
 CID_81777968_JID_5038_Energie_anion
 -----------------------------------
 Structure from the checkpoint file:  "JID_5038.chk"
 Charge = -1 Multiplicity = 2

                         Standard orientation:
 ---------------------------------------------------------------------
 Center     Atomic      Atomic             Coordinates (Angstroms)
 Number     Number       Type             X           Y           Z
 ---------------------------------------------------------------------
      1          6           0       -3.003608   -2.106971    0.849230
      2          6           0       -2.790469   -0.706153    0.342980
      3          6           0       -1.581036   -0.054523    0.301589
      4         16           0       -1.742755    1.549968   -0.377994
      5          6           0       -3.450253    1.338032   -0.592265
      6          6           0       -3.858113    0.107084   -0.167597
      7          6           0       -0.223074   -0.561146    0.685300
      8          7           0        0.440355   -1.151369   -0.479988
      9          6           0        1.761030   -1.285299   -0.798558
     10          8           0        2.096257   -1.763654   -1.879377
     11          6           0        2.860171   -0.787211    0.154786
     12          6           0        3.343450    0.612792   -0.328826
     13          6           0        2.278152    1.662682   -0.197104
     14          6           0        2.241990    2.599099    0.754703
     15          7           0        2.528962   -0.853527    1.581889
     16          1           0       -3.404663   -2.753241    0.058894
     17          1           0       -2.075555   -2.560054    1.206869
     18          1           0       -3.725150   -2.122310    1.675046
     19          1           0       -4.050213    2.134414   -1.011043
     20          1           0       -4.889578   -0.227393   -0.210736
     21          1           0        0.375040    0.268267    1.058813
     22          1           0       -0.303583   -1.289286    1.499147
     23          1           0       -0.171204   -1.509299   -1.203932
     24          1           0        3.675806   -1.490242   -0.033490
     25          1           0        4.225031    0.890529    0.262010
     26          1           0        3.653233    0.514729   -1.375582
     27          1           0        1.461637    1.608879   -0.917451
     28          1           0        1.428142    3.315880    0.821522
     29          1           0        3.040699    2.697489    1.487823
     30          1           0        3.361707   -1.113332    2.104874
     31          1           0        2.258012    0.068690    1.921413
 ---------------------------------------------------------------------

 SCF Done:  E(UB3LYP) =  -1011.94670350     A.U. after   33 cycles
 SCF Done:  E(UB3LYP) =  -1011.94670350     a.u. after    1 cycles

 The electronic state is 2-A.
 Alpha  occ. eigenvalues --  -88.78028 -18.98817 -14.24092 -14.20053 -10.17315
 Alpha  occ. eigenvalues --  -10.12392 -10.11644 -10.10646 -10.10482 -10.09286
 Alpha  occ. eigenvalues --  -10.08992 -10.08406 -10.08198 -10.08181 -10.07791
 Alpha  occ. eigenvalues --   -7.86661  -5.82947  -5.82584  -5.82261  -0.94044
 Alpha  occ. eigenvalues --   -0.83087  -0.79803  -0.78682  -0.70567  -0.67971
 Alpha  occ. eigenvalues --   -0.66583  -0.63412  -0.60263  -0.57418  -0.55792
 Alpha  occ. eigenvalues --   -0.49642  -0.47553  -0.46148  -0.44099  -0.40696
 Alpha  occ. eigenvalues --   -0.40231  -0.39638  -0.38333  -0.37679  -0.36199
 Alpha  occ. eigenvalues --   -0.34593  -0.33522  -0.33429  -0.31967  -0.31664
 Alpha  occ. eigenvalues --   -0.30935  -0.29878  -0.28810  -0.28202  -0.27578
 Alpha  occ. eigenvalues --   -0.27148  -0.26520  -0.24877  -0.24305  -0.18402
 Alpha  occ. eigenvalues --   -0.17682  -0.16434  -0.15463  -0.14664  -0.14073
 Alpha  occ. eigenvalues --    0.04124
 Alpha virt. eigenvalues --    0.05526   0.06518   0.06625   0.07366   0.07868
 Alpha virt. eigenvalues --    0.08262   0.08996   0.09218   0.09528   0.10249
 Alpha virt. eigenvalues --    0.10842   0.11067   0.11498   0.11594   0.11931

  Beta  occ. eigenvalues --  -88.78020 -18.98815 -14.24078 -14.20009 -10.17313
  Beta  occ. eigenvalues --  -10.12386 -10.11632 -10.10592 -10.10408 -10.09274
  Beta  occ. eigenvalues --  -10.08994 -10.08387 -10.08180 -10.08152 -10.07749
  Beta  occ. eigenvalues --   -7.86654  -5.82944  -5.82581  -5.82235  -0.94037
  Beta  occ. eigenvalues --   -0.83058  -0.79733  -0.78614  -0.70527  -0.67903
  Beta  occ. eigenvalues --   -0.66510  -0.63348  -0.60212  -0.57335  -0.55734
  Beta  occ. eigenvalues --   -0.49593  -0.47451  -0.46093  -0.44037  -0.40632
  Beta  occ. eigenvalues --   -0.40166  -0.39585  -0.38290  -0.37648  -0.36157
  Beta  occ. eigenvalues --   -0.34545  -0.33463  -0.33376  -0.31928  -0.31628
  Beta  occ. eigenvalues --   -0.30897  -0.29841  -0.28756  -0.28164  -0.27475
  Beta  occ. eigenvalues --   -0.27048  -0.26479  -0.24820  -0.24273  -0.18329
  Beta  occ. eigenvalues --   -0.17628  -0.16366  -0.15343  -0.14538  -0.13867
  Beta virt. eigenvalues --    0.06204   0.06778   0.06962   0.07166   0.07547
  Beta virt. eigenvalues --    0.08452   0.08753   0.09168   0.09558   0.09876
  Beta virt. eigenvalues --    0.10438   0.10946   0.11229   0.11642   0.11808

 Mulliken charges and spin densities:
               1          2
     1  C    1.346206  -2.191846
     2  C   -1.238621   1.284172
     3  C    0.622422   0.330109
     4  S   -0.253033  -0.390963
     5  C   -0.032652   0.015573
     6  C    0.040171  -0.233375
     7  C   -0.074187  -0.602650
     8  N   -0.102860   0.018318
     9  C   -0.139685  -0.022912
    10  O   -0.341591   0.007930
    11  C    0.374904  -0.064552
    12  C    0.909154  -1.742887
    13  C   -1.149156   1.566864
    14  C    0.487134  -1.052624
    15  N   -0.320717  -0.134962
    16  H   -0.059852   0.214844
    17  H   -0.030583   0.171757
    18  H   -0.138203   0.293187
    19  H   -0.106126   0.333432
    20  H   -0.602469   0.767005
    21  H   -0.075115   0.217893
    22  H    0.148854   0.092728
    23  H    0.330794  -0.038115
    24  H   -0.088918   0.336417
    25  H   -0.389966   0.582711
    26  H    0.212775  -0.032394
    27  H    0.001629   0.165303
    28  H    0.075524   0.035643
    29  H   -0.418898   0.571761
    30  H   -0.259603   0.568236
    31  H    0.272669  -0.066603
 Sum of Mulliken charges =  -1.00000   1.00000

 Dipole moment (field-independent basis, Debye):
    X=             -3.0669    Y=              2.1834    Z=             -1.7702  Tot=              4.1602
 Quadrupole moment (field-independent basis, Debye-Ang):
   XX=           -193.7660   YY=           -137.7734   ZZ=           -136.1241
   XY=             -2.4716   XZ=             -6.5947   YZ=             -3.1641

 Summary of Natural Population Analysis:

                                       Natural Population
                Natural  -----------------------------------------------
    Atom  No    Charge         Core      Valence    Rydberg      Total
 -----------------------------------------------------------------------
      C    1   -0.29267      0.99963     2.28729    0.00575     3.29267
      C    2   -0.03912      0.99942     2.02919    0.01051     3.03912
      C    3   -0.09909      0.99942     2.08694    0.01273     3.09909
      S    4    0.20230      4.99941     2.77803    0.02025     7.79770
      C    5   -0.17904      0.99954     2.16783    0.01167     3.17904
      C    6   -0.12359      0.99949     2.11348    0.01063     3.12359
      C    7   -0.10607      0.99953     2.09429    0.01225     3.10607
      N    8   -0.31388      0.99965     2.80507    0.00916     3.81388
      C    9    0.34372      0.99963     1.63232    0.02434     2.65628
      O   10   -0.33233      0.99988     3.32694    0.00551     4.33233
      C   11   -0.04823      0.99955     2.03341    0.01527     3.04823
      C   12   -0.21389      0.99958     2.20320    0.01111     3.21389
      C   13   -0.09408      0.99956     2.08436    0.01015     3.09408
      C   14   -0.19107      0.99955     2.18368    0.00783     3.19107
      N   15   -0.42596      0.99976     2.91506    0.01113     3.92596
      H   16    0.10556      0.00000     0.39332    0.00112     0.39444
      H   17    0.10478      0.00000     0.39430    0.00092     0.39522
      H   18    0.10580      0.00000     0.39325    0.00095     0.39420
      H   19    0.10769      0.00000     0.39147    0.00084     0.39231
      H   20    0.10671      0.00000     0.39192    0.00137     0.39329
      H   21    0.10886      0.00000     0.38898    0.00216     0.39114
      H   22    0.10665      0.00000     0.39195    0.00141     0.39335
      H   23    0.19493      0.00000     0.30282    0.00225     0.30507
      H   24    0.11044      0.00000     0.38813    0.00144     0.38956
      H   25    0.10459      0.00000     0.39336    0.00205     0.39541
      H   26    0.11077      0.00000     0.38813    0.00110     0.38923
      H   27    0.09729      0.00000     0.40128    0.00144     0.40271
      H   28    0.09537      0.00000     0.40375    0.00088     0.40463
      H   29    0.09359      0.00000     0.40484    0.00158     0.40641
      H   30    0.18416      0.00000     0.31121    0.00462     0.31584
      H   31    0.17583      0.00000     0.32177    0.00241     0.32417
 =======================================================================
   * Total *   -0.00000     18.99361    40.80158    0.20481    60.00000

 Normal termination of Gaussian 16 at Thu Dec 10 16:09:30 2020.
