 Gaussian 16, Revision A.03,

 -----------------------------------------------------------
 # opt freq B3LYP/6-31G(d) empiricaldispersion=gd3bj scf=xqc
 -----------------------------------------------------------

 ------------------------------
 CID_61642534_JID_8279_neutraal
 ------------------------------
 Symbolic Z-matrix:
 Charge =  0 Multiplicity = 1

 SCF Done:  E(RB3LYP) =  -1482.32505946     A.U. after   16 cycles
 SCF Done:  E(RB3LYP) =  -1482.32386587     A.U. after   16 cycles
 SCF Done:  E(RB3LYP) =  -1482.33094184     A.U. after   13 cycles
 SCF Done:  E(RB3LYP) =  -1482.32963149     A.U. after   14 cycles
 SCF Done:  E(RB3LYP) =  -1482.33425618     A.U. after   13 cycles
 SCF Done:  E(RB3LYP) =  -1482.33422219     A.U. after   14 cycles
 SCF Done:  E(RB3LYP) =  -1482.33525586     A.U. after   13 cycles
 SCF Done:  E(RB3LYP) =  -1482.33586604     A.U. after   13 cycles
 SCF Done:  E(RB3LYP) =  -1482.33608143     A.U. after   14 cycles
 SCF Done:  E(RB3LYP) =  -1482.33650443     A.U. after   14 cycles
 SCF Done:  E(RB3LYP) =  -1482.33977787     A.U. after    8 cycles
 SCF Done:  E(RB3LYP) =  -1482.33977836     A.U. after    8 cycles
 SCF Done:  E(RB3LYP) =  -1482.33977848     A.U. after    8 cycles
 SCF Done:  E(RB3LYP) =  -1482.33977859     A.U. after    8 cycles
 SCF Done:  E(RB3LYP) =  -1482.33977862     A.U. after    7 cycles
 Optimization completed.
    -- Stationary point found.
 Normal termination of Gaussian 16 at Fri Dec 11 20:05:33 2020.

 --------------------------------------------------------------------
 #N Geom=AllCheck Guess=TCheck SCRF=Check GenChk RB3LYP/6-31G(d) Freq
 --------------------------------------------------------------------

 Structure from the checkpoint file:  "JID_8279.chk"
 ------------------------------
 CID_61642534_JID_8279_neutraal
 ------------------------------
 Charge =  0 Multiplicity = 1

 SCF Done:  E(RB3LYP) =  -1482.33977862     A.U. after    1 cycles

  Exact polarizability: 200.009 -13.956 180.356  20.577   4.426 149.522
 Approx polarizability: 278.704 -31.465 306.223  51.581  23.756 289.053

                      1                      2                      3
                      A                      A                      A
 Frequencies --     18.3628                41.6963                53.1351
 Red. masses --      4.8870                 5.2638                 3.9741
 Frc consts  --      0.0010                 0.0054                 0.0066
 IR Inten    --      0.3305                 1.1637                 1.0587

                      4                      5                      6
                      A                      A                      A
 Frequencies --     60.6235                71.7710                98.9327
 Red. masses --      4.2341                 6.8754                 4.9062
 Frc consts  --      0.0092                 0.0209                 0.0283
 IR Inten    --      1.6402                 1.6955                 0.3360

                      7                      8                      9
                      A                      A                      A
 Frequencies --    109.9441               116.7463               151.8171
 Red. masses --      1.1788                 2.1948                 4.0272
 Frc consts  --      0.0084                 0.0176                 0.0547
 IR Inten    --      0.0142                 0.1785                 0.6432

                     10                     11                     12
                      A                      A                      A
 Frequencies --    170.3365               190.8048               217.4907
 Red. masses --      4.5613                 3.0763                 4.2378
 Frc consts  --      0.0780                 0.0660                 0.1181
 IR Inten    --      2.0763                 0.4071                 0.5353

                     13                     14                     15
                      A                      A                      A
 Frequencies --    236.2978               253.6984               282.8270
 Red. masses --      2.8011                 1.6192                 3.2564
 Frc consts  --      0.0921                 0.0614                 0.1535
 IR Inten    --      0.6553                 0.2697                 0.5457

                     16                     17                     18
                      A                      A                      A
 Frequencies --    304.3307               342.6778               353.2418
 Red. masses --      4.6248                 3.8133                 2.1353
 Frc consts  --      0.2524                 0.2638                 0.1570
 IR Inten    --      1.1991                 3.0907                 9.2232

                     19                     20                     21
                      A                      A                      A
 Frequencies --    376.9045               417.1377               427.3407
 Red. masses --      1.9620                 3.2046                 5.4213
 Frc consts  --      0.1642                 0.3285                 0.5833
 IR Inten    --     19.9597                 4.1519                 1.5347

                     22                     23                     24
                      A                      A                      A
 Frequencies --    437.5656               468.7226               476.2503
 Red. masses --      3.9975                 3.4452                 3.9448
 Frc consts  --      0.4509                 0.4460                 0.5272
 IR Inten    --      0.9206                 6.2122                 1.6404

                     25                     26                     27
                      A                      A                      A
 Frequencies --    544.5396               566.9661               615.4343
 Red. masses --      5.6570                 5.7927                 7.3927
 Frc consts  --      0.9883                 1.0971                 1.6498
 IR Inten    --      0.8364                 0.0276                12.9199

                     28                     29                     30
                      A                      A                      A
 Frequencies --    629.5927               634.3693               656.7148
 Red. masses --     10.3326                 7.4233                 8.0618
 Frc consts  --      2.4131                 1.7601                 2.0485
 IR Inten    --      0.5430                 6.9506                 5.5003

                     31                     32                     33
                      A                      A                      A
 Frequencies --    687.2634               736.4582               743.0155
 Red. masses --      3.6707                 2.1592                 3.3219
 Frc consts  --      1.0215                 0.6900                 1.0805
 IR Inten    --     11.2615                16.3526                37.0229

                     34                     35                     36
                      A                      A                      A
 Frequencies --    769.0262               785.8218               816.6296
 Red. masses --      9.5985                 2.7832                 1.6914
 Frc consts  --      3.3445                 1.0126                 0.6646
 IR Inten    --      4.9088                16.1204                 4.9654

                     37                     38                     39
                      A                      A                      A
 Frequencies --    840.9282               877.0836               911.5768
 Red. masses --      1.9243                 2.1042                 1.5320
 Frc consts  --      0.8018                 0.9537                 0.7501
 IR Inten    --      0.8846                67.1792               200.7512

                     40                     41                     42
                      A                      A                      A
 Frequencies --    955.3007               962.5139               979.9749
 Red. masses --      1.3741                 1.8065                 1.4643
 Frc consts  --      0.7389                 0.9861                 0.8285
 IR Inten    --      1.5255                50.2762                 1.8270

                     43                     44                     45
                      A                      A                      A
 Frequencies --    996.7855              1005.9615              1043.6149
 Red. masses --      1.3909                 1.8651                 4.2047
 Frc consts  --      0.8142                 1.1120                 2.6981
 IR Inten    --      0.3098                11.6405                 5.4270

                     46                     47                     48
                      A                      A                      A
 Frequencies --   1047.1519              1063.5629              1068.0183
 Red. masses --      8.9636                 2.8205                 1.4315
 Frc consts  --      5.7910                 1.8798                 0.9621
 IR Inten    --     60.6406                 1.3265                 1.2717

                     49                     50                     51
                      A                      A                      A
 Frequencies --   1071.7614              1080.5255              1097.3356
 Red. masses --      1.3909                 2.5730                 1.7035
 Frc consts  --      0.9413                 1.7699                 1.2086
 IR Inten    --      4.3297                 0.9680                13.5270

                     52                     53                     54
                      A                      A                      A
 Frequencies --   1122.6064              1156.7973              1163.3502
 Red. masses --      9.0792                 1.5560                 2.0843
 Frc consts  --      6.7414                 1.2268                 1.6620
 IR Inten    --      4.6956                 3.2281                 9.6889

                     55                     56                     57
                      A                      A                      A
 Frequencies --   1224.1577              1231.2098              1237.2835
 Red. masses --      3.6417                 2.0871                 1.5370
 Frc consts  --      3.2154                 1.8640                 1.3863
 IR Inten    --     36.0934                 0.7605                 7.1889

                     58                     59                     60
                      A                      A                      A
 Frequencies --   1252.6334              1265.2533              1297.8996
 Red. masses --      1.4411                 1.4758                 1.5108
 Frc consts  --      1.3323                 1.3920                 1.4995
 IR Inten    --      4.2413                 4.7651                 1.3257

                     61                     62                     63
                      A                      A                      A
 Frequencies --   1315.2697              1341.4743              1377.7121
 Red. masses --      1.9526                 1.6432                 1.4196
 Frc consts  --      1.9902                 1.7422                 1.5875
 IR Inten    --      0.7294                10.9543                 6.8980

                     64                     65                     66
                      A                      A                      A
 Frequencies --   1392.8700              1401.5143              1432.0836
 Red. masses --      1.2137                 1.4343                 7.4405
 Frc consts  --      1.3873                 1.6599                 8.9906
 IR Inten    --      1.3272                 6.9915                12.6144

                     67                     68                     69
                      A                      A                      A
 Frequencies --   1434.1151              1443.2836              1444.7383
 Red. masses --      1.3253                 1.2441                 1.3357
 Frc consts  --      1.6060                 1.5269                 1.6426
 IR Inten    --      3.0479                 6.4515                 1.6993

                     70                     71                     72
                      A                      A                      A
 Frequencies --   1475.9177              1486.5984              1506.4777
 Red. masses --      2.1691                 1.8354                 1.0472
 Frc consts  --      2.7839                 2.3898                 1.4003
 IR Inten    --     24.2471                20.4913                10.9705

                     73                     74                     75
                      A                      A                      A
 Frequencies --   1520.5465              1528.1277              1531.1484
 Red. masses --      1.0684                 2.0881                 1.0710
 Frc consts  --      1.4554                 2.8729                 1.4793
 IR Inten    --      1.5827                14.5470                 2.3935

                     76                     77                     78
                      A                      A                      A
 Frequencies --   1534.6894              1540.1408              1626.5363
 Red. masses --      1.9695                 1.0546                 4.9461
 Frc consts  --      2.7331                 1.4738                 7.7098
 IR Inten    --     12.1311                 4.5675                 8.7258

                     79                     80                     81
                      A                      A                      A
 Frequencies --   1648.8866              1707.3042              3024.1911
 Red. masses --      5.6259                 1.0947                 1.0825
 Frc consts  --      9.0121                 1.8801                 5.8331
 IR Inten    --      7.5927                33.0969                12.4691

                     82                     83                     84
                      A                      A                      A
 Frequencies --   3041.6243              3047.5548              3063.4196
 Red. masses --      1.0644                 1.0400                 1.0363
 Frc consts  --      5.8019                 5.6908                 5.7297
 IR Inten    --     19.4968                31.3536                10.6531

                     85                     86                     87
                      A                      A                      A
 Frequencies --   3074.5796              3089.3901              3113.5071
 Red. masses --      1.0843                 1.0971                 1.1021
 Frc consts  --      6.0391                 6.1695                 6.2945
 IR Inten    --     17.7208                 4.9674                44.4354

                     88                     89                     90
                      A                      A                      A
 Frequencies --   3120.0277              3123.2888              3162.7187
 Red. masses --      1.1007                 1.1020                 1.1018
 Frc consts  --      6.3129                 6.3337                 6.4933
 IR Inten    --     52.3714                 6.5281                 2.4145

                     91                     92                     93
                      A                      A                      A
 Frequencies --   3175.2413              3185.2649              3213.2734
 Red. masses --      1.0887                 1.0899                 1.0960
 Frc consts  --      6.4669                 6.5153                 6.6674
 IR Inten    --     17.3487                14.0893                22.4310

                     94                     95                     96
                      A                      A                      A
 Frequencies --   3228.5718              3485.1860              3573.8483
 Red. masses --      1.0901                 1.0495                 1.0930
 Frc consts  --      6.6950                 7.5105                 8.2249
 IR Inten    --      6.2599                19.9264                22.4374

 - Thermochemistry -
 -------------------
 Temperature   298.150 Kelvin.  Pressure   1.00000 Atm.
 Atom     1 has atomic number  6 and mass  12.00000

 Molecular mass:   280.08164 amu.
 Principal axes and moments of inertia in atomic units:
                           1         2         3
     Eigenvalues --  3487.353126186.473877647.68512
           X            0.99974  -0.02140   0.00769
           Y            0.02122   0.99951   0.02293
           Z           -0.00818  -0.02276   0.99971
 This molecule is an asymmetric top.
 Rotational symmetry number  1.
 Warning -- assumption of classical behavior for rotation
           may cause significant error
 Rotational temperatures (Kelvin)      0.02484     0.01400     0.01133
 Rotational constants (GHZ):           0.51751     0.29172     0.23599
 Zero-point vibrational energy     719128.5 (Joules/Mol)
                                  171.87584 (Kcal/Mol)
 Warning -- explicit consideration of  27 degrees of freedom as
           vibrations may cause significant error
 Vibrational temperatures:     26.42    59.99    76.45    87.22   103.26
          (Kelvin)            142.34   158.19   167.97   218.43   245.08
                              274.53   312.92   339.98   365.02   406.92
                              437.86   493.04   508.24   542.28   600.17
                              614.85   629.56   674.39   685.22   783.47
                              815.74   885.47   905.84   912.72   944.87
                              988.82  1059.60  1069.03  1106.46  1130.62
                             1174.95  1209.91  1261.93  1311.56  1374.46
                             1384.84  1409.97  1434.15  1447.35  1501.53
                             1506.62  1530.23  1536.64  1542.03  1554.64
                             1578.82  1615.18  1664.37  1673.80  1761.29
                             1771.44  1780.18  1802.26  1820.42  1867.39
                             1892.38  1930.08  1982.22  2004.03  2016.47
                             2060.45  2063.37  2076.56  2078.66  2123.52
                             2138.88  2167.49  2187.73  2198.63  2202.98
                             2208.08  2215.92  2340.22  2372.38  2456.43
                             4351.14  4376.22  4384.75  4407.58  4423.63
                             4444.94  4479.64  4489.02  4493.72  4550.45
                             4568.46  4582.89  4623.18  4645.19  5014.41
                             5141.97

 Zero-point correction=                           0.273902 (Hartree/Particle)
 Thermal correction to Energy=                    0.292013
 Thermal correction to Enthalpy=                  0.292957
 Thermal correction to Gibbs Free Energy=         0.226056
 Sum of electronic and zero-point Energies=          -1482.065877
 Sum of electronic and thermal Energies=             -1482.047766
 Sum of electronic and thermal Enthalpies=           -1482.046822
 Sum of electronic and thermal Free Energies=        -1482.113723

                     E (Thermal)             CV                S
                      KCal/Mol        Cal/Mol-Kelvin    Cal/Mol-Kelvin
 Total                  183.241             67.232            140.805
 Electronic               0.000              0.000              0.000
 Translational            0.889              2.981             42.788
 Rotational               0.889              2.981             33.467
 Vibrational            181.463             61.270             64.550
 Vibration     1          0.593              1.986              6.804
 Vibration     2          0.594              1.981              5.177
 Vibration     3          0.596              1.976              4.697
 Vibration     4          0.597              1.973              4.437
 Vibration     5          0.598              1.967              4.104
 Vibration     6          0.604              1.950              3.475
 Vibration     7          0.606              1.941              3.270
 Vibration     8          0.608              1.935              3.154
 Vibration     9          0.619              1.901              2.649
 Vibration    10          0.625              1.879              2.432
 Vibration    11          0.634              1.853              2.220
 Vibration    12          0.646              1.814              1.980
 Vibration    13          0.655              1.785              1.831
 Vibration    14          0.665              1.757              1.705
 Vibration    15          0.682              1.705              1.517
 Vibration    16          0.695              1.665              1.393
 Vibration    17          0.722              1.590              1.200
 Vibration    18          0.729              1.569              1.152
 Vibration    19          0.747              1.519              1.052
 Vibration    20          0.780              1.433              0.902
 Vibration    21          0.789              1.411              0.867
 Vibration    22          0.798              1.388              0.834
 Vibration    23          0.826              1.319              0.741
 Vibration    24          0.833              1.303              0.720
 Vibration    25          0.900              1.152              0.556
 Vibration    26          0.923              1.103              0.510
 Vibration    27          0.975              0.999              0.424

                           ! Non-Optimized Parameters !
 Normal termination of Gaussian 16 at Fri Dec 11 20:21:12 2020.

 ----------------------------------------------------------------------
 # B3LYP/6-311++G(d,p) empiricaldispersion=gd3bj scf=xqc pop=npa geom=c
 heck
 ----------------------------------------------------------------------

 --------------------------------------
 CID_61642534_JID_8279_Energie_neutraal
 --------------------------------------
 Structure from the checkpoint file:  "JID_8279.chk"
 Charge =  0 Multiplicity = 1

 SCF Done:  E(RB3LYP) =  -1482.57907805     A.U. after   18 cycles
 Normal termination of Gaussian 16 at Fri Dec 11 20:28:19 2020.

 ----------------------------------------------------------------------
 # B3LYP/6-311++G(d,p) empiricaldispersion=gd3bj scf=xqc pop=npa geom=c
 heck
 ----------------------------------------------------------------------

 ------------------------------------
 CID_61642534_JID_8279_Energie_kation
 ------------------------------------
 Structure from the checkpoint file:  "JID_8279.chk"
 Charge =  1 Multiplicity = 2

 SCF Done:  E(UB3LYP) =  -1482.27348838     A.U. after   32 cycles
 Normal termination of Gaussian 16 at Fri Dec 11 20:45:37 2020.
 Gaussian 16:  ES64L-G16RevA.03 25-Dec-2016

 ----------------------------------------------------------------------
 # B3LYP/6-311++G(d,p) empiricaldispersion=gd3bj scf=xqc pop=npa geom=c
 heck
 ----------------------------------------------------------------------

 -----------------------------------
 CID_61642534_JID_8279_Energie_anion
 -----------------------------------
 Structure from the checkpoint file:  "JID_8279.chk"
 Charge = -1 Multiplicity = 2

                         Standard orientation:
 ---------------------------------------------------------------------
 Center     Atomic      Atomic             Coordinates (Angstroms)
 Number     Number       Type             X           Y           Z
 ---------------------------------------------------------------------
      1          6           0        4.496654   -0.222945   -0.010234
      2          6           0        3.456567   -0.699626   -1.026460
      3          6           0        2.246145   -1.437141   -0.429191
      4          6           0        1.538263   -0.552944    0.641901
      5          6           0        1.067882    0.815433    0.230642
      6          6           0        0.273838    1.056682   -0.903303
      7          7           0       -0.170097    2.264789   -1.268321
      8          6           0        0.164662    3.307454   -0.500438
      9          6           0        0.944456    3.190895    0.650193
     10          6           0        1.397031    1.927178    1.015163
     11         16           0        0.199811   -1.507738    1.566919
     12          6           0       -1.240766   -1.156735    0.616343
     13          7           0       -1.541166   -1.735365   -0.515477
     14          7           0       -2.683364   -1.254118   -1.086071
     15          6           0       -3.258327   -0.313148   -0.380930
     16         16           0       -2.401228    0.069519    1.091827
     17          6           0       -4.515458    0.371104   -0.808041
     18          7           0        1.445682   -1.969334   -1.520413
     19          1           0        4.117244    0.591112    0.617375
     20          1           0        5.389482    0.153019   -0.520671
     21          1           0        4.811589   -1.040310    0.650047
     22          1           0        3.096304    0.157313   -1.612405
     23          1           0        3.918690   -1.391501   -1.739189
     24          1           0        2.624487   -2.300595    0.135823
     25          1           0        2.254475   -0.421660    1.459784
     26          1           0       -0.037499    0.235457   -1.538438
     27          1           0       -0.210058    4.278353   -0.819258
     28          1           0        1.188068    4.067060    1.243124
     29          1           0        1.999130    1.795016    1.910801
     30          1           0       -4.858945   -0.087942   -1.737642
     31          1           0       -5.300164    0.276011   -0.050096
     32          1           0       -4.340083    1.438121   -0.983091
     33          1           0        0.558195   -2.351635   -1.197704
     34          1           0        1.228671   -1.245350   -2.200304
 ---------------------------------------------------------------------

 SCF Done:  E(UB3LYP) =  -1482.59393778     A.U. after   33 cycles
 SCF Done:  E(UB3LYP) =  -1482.59393778     a.u. after    1 cycles

 The electronic state is 2-A.
 Alpha  occ. eigenvalues --  -88.73242 -88.71668 -14.19610 -14.19254 -14.18320
 Alpha  occ. eigenvalues --  -14.16503 -10.09181 -10.08943 -10.08808 -10.08645
 Alpha  occ. eigenvalues --  -10.07963 -10.07868 -10.07585 -10.06885 -10.06748
 Alpha  occ. eigenvalues --  -10.06738 -10.06427 -10.06349  -7.81949  -7.80188
 Alpha  occ. eigenvalues --   -5.78209  -5.77898  -5.77572  -5.76582  -5.76219
 Alpha  occ. eigenvalues --   -5.75585  -0.88039  -0.82451  -0.77390  -0.70986
 Alpha  occ. eigenvalues --   -0.69698  -0.67476  -0.66941  -0.65511  -0.62023
 Alpha  occ. eigenvalues --   -0.59493  -0.56672  -0.53723  -0.51562  -0.50315
 Alpha  occ. eigenvalues --   -0.46034  -0.44664  -0.41131  -0.39847  -0.37968
 Alpha  occ. eigenvalues --   -0.36715  -0.35810  -0.35147  -0.34409  -0.32835
 Alpha  occ. eigenvalues --   -0.32361  -0.31258  -0.30586  -0.29593  -0.29184
 Alpha  occ. eigenvalues --   -0.28890  -0.27850  -0.27425  -0.27326  -0.25993
 Alpha  occ. eigenvalues --   -0.25449  -0.24725  -0.23450  -0.22823  -0.21055
 Alpha  occ. eigenvalues --   -0.17471  -0.16141  -0.15340  -0.14602  -0.14120
 Alpha  occ. eigenvalues --   -0.13667  -0.12659  -0.11547  -0.10493   0.03883
 Alpha virt. eigenvalues --    0.06956   0.07795   0.07960   0.08553   0.08982
 Alpha virt. eigenvalues --    0.09215   0.09924   0.10582   0.11186   0.11786
 Alpha virt. eigenvalues --    0.12191   0.12365   0.12740   0.13237   0.13481

  Beta  occ. eigenvalues --  -88.73174 -88.71643 -14.19735 -14.19297 -14.18022
  Beta  occ. eigenvalues --  -14.16497 -10.08950 -10.08855 -10.08540 -10.08469
  Beta  occ. eigenvalues --  -10.07768 -10.07750 -10.07587 -10.06878 -10.06694
  Beta  occ. eigenvalues --  -10.06661 -10.06422 -10.06375  -7.81888  -7.80158
  Beta  occ. eigenvalues --   -5.78181  -5.77872  -5.77340  -5.76526  -5.76199
  Beta  occ. eigenvalues --   -5.75567  -0.87708  -0.82372  -0.77341  -0.70687
  Beta  occ. eigenvalues --   -0.69313  -0.67259  -0.66737  -0.65280  -0.61773
  Beta  occ. eigenvalues --   -0.59355  -0.56527  -0.53485  -0.51492  -0.50156
  Beta  occ. eigenvalues --   -0.45836  -0.44354  -0.40888  -0.39640  -0.37887
  Beta  occ. eigenvalues --   -0.36626  -0.35707  -0.35078  -0.34239  -0.32524
  Beta  occ. eigenvalues --   -0.31959  -0.31089  -0.30450  -0.29420  -0.29013
  Beta  occ. eigenvalues --   -0.28632  -0.27716  -0.27073  -0.26738  -0.25838
  Beta  occ. eigenvalues --   -0.25373  -0.24531  -0.23294  -0.22707  -0.20634
  Beta  occ. eigenvalues --   -0.17199  -0.15983  -0.14492  -0.14302  -0.13636
  Beta  occ. eigenvalues --   -0.13016  -0.11819  -0.11139  -0.10294
  Beta virt. eigenvalues --    0.06890   0.07805   0.07972   0.08473   0.08712
  Beta virt. eigenvalues --    0.09204   0.09881   0.10317   0.10866   0.11167
  Beta virt. eigenvalues --    0.11873   0.12334   0.12393   0.12775   0.13316

 Mulliken charges and spin densities:
               1          2
     1  C   -0.653636  -0.049166
     2  C   -0.149790   0.030023
     3  C   -0.396170  -0.083546
     4  C    0.788459   0.032912
     5  C    0.602302   0.116944
     6  C   -1.313435   0.006943
     7  N    0.134611  -0.016430
     8  C   -0.350745   0.080192
     9  C   -0.215531   0.038131
    10  C   -0.307240  -0.029281
    11  S   -0.231033   0.119305
    12  C    0.194702   0.212381
    13  N   -0.237087   0.127845
    14  N    0.099931  -0.059996
    15  C   -0.521300   0.146127
    16  S    0.079774   0.144897
    17  C   -0.616088  -0.019869
    18  N   -0.324792   0.000392
    19  H    0.144855  -0.003524
    20  H    0.108992   0.017228
    21  H    0.106346   0.020304
    22  H    0.149189  -0.003183
    23  H    0.160931   0.012082
    24  H    0.126391   0.034762
    25  H    0.214529   0.032218
    26  H    0.094235   0.014668
    27  H    0.133974   0.002777
    28  H    0.138048   0.005489
    29  H    0.139343   0.004396
    30  H    0.138032   0.000400
    31  H    0.116453   0.028268
    32  H    0.131837   0.034587
    33  H    0.298274  -0.000889
    34  H    0.215640   0.002612
 Sum of Mulliken charges =  -1.00000   1.00000

 Dipole moment (field-independent basis, Debye):
    X=              3.4727    Y=              3.8567    Z=              2.0850  Tot=              5.5930
 Quadrupole moment (field-independent basis, Debye-Ang):
   XX=           -149.6533   YY=           -151.8916   ZZ=           -143.1756
   XY=             -2.0485   XZ=              1.1038   YZ=              0.0779

 Summary of Natural Population Analysis:

                                       Natural Population
                Natural  -----------------------------------------------
    Atom  No    Charge         Core      Valence    Rydberg      Total
 -----------------------------------------------------------------------
      C    1   -0.28620      0.99967     2.28275    0.00378     3.28620
      C    2   -0.19247      0.99962     2.18576    0.00709     3.19247
      C    3   -0.01752      0.99956     1.99947    0.01849     3.01752
      C    4   -0.13872      0.99949     2.12274    0.01649     3.13872
      C    5   -0.03058      0.99947     2.01851    0.01260     3.03058
      C    6    0.04206      0.99953     1.94115    0.01726     2.95794
      N    7   -0.24030      0.99972     2.72745    0.01313     3.74030
      C    8    0.03649      0.99960     1.95014    0.01377     2.96351
      C    9   -0.12160      0.99956     2.11409    0.00795     3.12160
      C   10   -0.08123      0.99952     2.07377    0.00794     3.08123
      S   11    0.11707      4.99948     2.86582    0.01764     7.88293
      C   12   -0.03077      0.99961     2.01188    0.01928     3.03077
      N   13   -0.13307      0.99958     2.61482    0.01867     3.63307
      N   14   -0.18559      0.99964     2.67042    0.01553     3.68559
      C   15    0.07502      0.99965     1.90938    0.01595     2.92498
      S   16    0.19666      4.99933     2.78435    0.01966     7.80334
      C   17   -0.30674      0.99961     2.30229    0.00484     3.30674
      N   18   -0.43028      0.99976     2.92157    0.00895     3.93028
      H   19    0.09836      0.00000     0.40080    0.00085     0.40164
      H   20    0.09478      0.00000     0.40436    0.00086     0.40522
      H   21    0.09363      0.00000     0.40509    0.00128     0.40637
      H   22    0.09727      0.00000     0.40169    0.00104     0.40273
      H   23    0.09925      0.00000     0.39966    0.00109     0.40075
      H   24    0.08776      0.00000     0.41061    0.00164     0.41224
      H   25    0.09980      0.00000     0.39898    0.00121     0.40020
      H   26    0.09639      0.00000     0.40058    0.00303     0.40361
      H   27    0.08259      0.00000     0.41621    0.00120     0.41741
      H   28    0.09585      0.00000     0.40309    0.00106     0.40415
      H   29    0.09554      0.00000     0.40319    0.00127     0.40446
      H   30    0.10871      0.00000     0.39017    0.00111     0.39129
      H   31    0.10205      0.00000     0.39702    0.00093     0.39795
      H   32    0.10724      0.00000     0.39187    0.00090     0.39276
      H   33    0.19754      0.00000     0.30064    0.00183     0.30246
      H   34    0.17101      0.00000     0.32751    0.00148     0.32899
 =======================================================================
   * Total *    0.00000     25.99240    47.74782    0.25979    74.00000

 Normal termination of Gaussian 16 at Fri Dec 11 21:03:19 2020.
