 Gaussian 16, Revision A.03,

 -----------------------------------------------------------
 # opt freq B3LYP/6-31G(d) empiricaldispersion=gd3bj scf=xqc
 -----------------------------------------------------------

 -------------------------------
 CID_129808142_JID_2869_neutraal
 -------------------------------
 Symbolic Z-matrix:
 Charge =  0 Multiplicity = 1

 SCF Done:  E(RB3LYP) =  -902.501510326     A.U. after   14 cycles
 SCF Done:  E(RB3LYP) =  -902.504727433     A.U. after   11 cycles
 SCF Done:  E(RB3LYP) =  -902.504287810     A.U. after   13 cycles
 SCF Done:  E(RB3LYP) =  -902.506094931     A.U. after   12 cycles
 SCF Done:  E(RB3LYP) =  -902.506262062     A.U. after   13 cycles
 SCF Done:  E(RB3LYP) =  -902.506978409     A.U. after   12 cycles
 SCF Done:  E(RB3LYP) =  -902.506816014     A.U. after   12 cycles
 SCF Done:  E(RB3LYP) =  -902.506943028     A.U. after   12 cycles
 SCF Done:  E(RB3LYP) =  -902.507387704     A.U. after    9 cycles
 SCF Done:  E(RB3LYP) =  -902.507789756     A.U. after   12 cycles
 SCF Done:  E(RB3LYP) =  -902.508050844     A.U. after   11 cycles
 SCF Done:  E(RB3LYP) =  -902.508054006     A.U. after    9 cycles
 SCF Done:  E(RB3LYP) =  -902.508054634     A.U. after    8 cycles
 SCF Done:  E(RB3LYP) =  -902.508054566     A.U. after    7 cycles
 SCF Done:  E(RB3LYP) =  -902.508054607     A.U. after    7 cycles
 Optimization completed.
    -- Stationary point found.
 Normal termination of Gaussian 16 at Wed Dec  9 18:32:22 2020.

 --------------------------------------------------------------------
 #N Geom=AllCheck Guess=TCheck SCRF=Check GenChk RB3LYP/6-31G(d) Freq
 --------------------------------------------------------------------

 Structure from the checkpoint file:  "JID_2869.chk"
 -------------------------------
 CID_129808142_JID_2869_neutraal
 -------------------------------
 Charge =  0 Multiplicity = 1

 SCF Done:  E(RB3LYP) =  -902.508054607     A.U. after    1 cycles

  Exact polarizability: 128.501   0.844 110.046  -5.629  -1.600 108.464
 Approx polarizability: 172.820   7.079 160.016  -8.973  -3.416 156.488

                      1                      2                      3
                      A                      A                      A
 Frequencies --     17.9414                37.3635                51.6973
 Red. masses --      3.7628                 4.4665                 3.6117
 Frc consts  --      0.0007                 0.0037                 0.0057
 IR Inten    --      0.4775                 0.8404                 0.4108

                      4                      5                      6
                      A                      A                      A
 Frequencies --     68.4960                93.6597               109.9603
 Red. masses --      3.4359                 3.1124                 4.4627
 Frc consts  --      0.0095                 0.0161                 0.0318
 IR Inten    --      1.4309                 1.9573                 0.0485

                      7                      8                      9
                      A                      A                      A
 Frequencies --    138.4102               154.5045               178.2504
 Red. masses --      3.3382                 2.5339                 2.3543
 Frc consts  --      0.0377                 0.0356                 0.0441
 IR Inten    --      0.3714                 2.5125                 0.2811

                     10                     11                     12
                      A                      A                      A
 Frequencies --    228.1104               250.3630               274.8273
 Red. masses --      1.2971                 1.5567                 2.0783
 Frc consts  --      0.0398                 0.0575                 0.0925
 IR Inten    --      2.7385                 1.2523                 1.9107

                     13                     14                     15
                      A                      A                      A
 Frequencies --    278.6947               323.8216               361.4030
 Red. masses --      1.7728                 2.1487                 2.8743
 Frc consts  --      0.0811                 0.1327                 0.2212
 IR Inten    --      0.4444                 7.4069                 0.9020

                     16                     17                     18
                      A                      A                      A
 Frequencies --    379.4896               390.0802               462.0197
 Red. masses --      2.5505                 2.5148                 2.7917
 Frc consts  --      0.2164                 0.2255                 0.3511
 IR Inten    --      2.2657                 2.5504                 5.4588

                     19                     20                     21
                      A                      A                      A
 Frequencies --    485.2343               627.3969               632.9904
 Red. masses --      2.6298                 3.7839                 3.7972
 Frc consts  --      0.3648                 0.8775                 0.8964
 IR Inten    --      2.7878                 5.3096                 1.3429

                     22                     23                     24
                      A                      A                      A
 Frequencies --    674.8097               721.1686               766.5332
 Red. masses --      3.7379                 2.1438                 1.5251
 Frc consts  --      1.0029                 0.6569                 0.5280
 IR Inten    --      1.6117                 1.3485                 3.0475

                     25                     26                     27
                      A                      A                      A
 Frequencies --    781.6953               810.1693               828.4643
 Red. masses --      1.2944                 1.4423                 2.4911
 Frc consts  --      0.4660                 0.5578                 1.0074
 IR Inten    --     27.2947                 4.2859                 3.4464

                     28                     29                     30
                      A                      A                      A
 Frequencies --    867.8508               895.9559               939.5205
 Red. masses --      2.6006                 2.2293                 2.0668
 Frc consts  --      1.1540                 1.0544                 1.0749
 IR Inten    --      9.9151                 4.0810                 2.6221

                     31                     32                     33
                      A                      A                      A
 Frequencies --    969.8854               992.6236              1025.7925
 Red. masses --      2.1038                 1.9244                 1.9358
 Frc consts  --      1.1660                 1.1171                 1.2002
 IR Inten    --      1.8636                 5.1101                 4.6391

                     34                     35                     36
                      A                      A                      A
 Frequencies --   1052.2089              1065.8311              1073.9984
 Red. masses --      1.8403                 1.8037                 1.9667
 Frc consts  --      1.2004                 1.2072                 1.3366
 IR Inten    --      5.2570                18.2863                12.0008

                     37                     38                     39
                      A                      A                      A
 Frequencies --   1093.6677              1118.1621              1133.0610
 Red. masses --      1.8553                 2.9012                 1.9932
 Frc consts  --      1.3075                 2.1372                 1.5077
 IR Inten    --     16.4103                 4.2165                32.6133

                     40                     41                     42
                      A                      A                      A
 Frequencies --   1166.9970              1188.2211              1209.2281
 Red. masses --      1.3534                 1.2090                 1.6945
 Frc consts  --      1.0859                 1.0057                 1.4598
 IR Inten    --     87.2112                22.5186                 4.1615

                     43                     44                     45
                      A                      A                      A
 Frequencies --   1237.9668              1278.0205              1294.9433
 Red. masses --      1.6292                 1.5150                 1.2016
 Frc consts  --      1.4711                 1.4579                 1.1872
 IR Inten    --    123.0507                94.4593                 3.6980

                     46                     47                     48
                      A                      A                      A
 Frequencies --   1311.7479              1326.4569              1342.7756
 Red. masses --      1.2856                 1.2517                 1.1233
 Frc consts  --      1.3033                 1.2976                 1.1933
 IR Inten    --     17.9578                16.5628                10.8126

                     49                     50                     51
                      A                      A                      A
 Frequencies --   1348.5427              1384.5654              1403.8406
 Red. masses --      1.2013                 1.4420                 1.3640
 Frc consts  --      1.2872                 1.6287                 1.5838
 IR Inten    --      8.1819                34.2581                 3.8186

                     52                     53                     54
                      A                      A                      A
 Frequencies --   1414.7253              1421.9560              1440.9700
 Red. masses --      1.3843                 1.3715                 1.2217
 Frc consts  --      1.6324                 1.6338                 1.4945
 IR Inten    --      3.7405                15.2181                 4.4006

                     55                     56                     57
                      A                      A                      A
 Frequencies --   1443.2014              1497.2854              1506.7834
 Red. masses --      1.3246                 1.0856                 1.0878
 Frc consts  --      1.6255                 1.4339                 1.4552
 IR Inten    --     10.0869                 5.4560                 2.8724

                     58                     59                     60
                      A                      A                      A
 Frequencies --   1510.2664              1515.7904              1516.6883
 Red. masses --      1.0718                 1.0575                 1.0835
 Frc consts  --      1.4403                 1.4316                 1.4685
 IR Inten    --      6.6078                 3.9868                 8.3056

                     61                     62                     63
                      A                      A                      A
 Frequencies --   1518.7290              1522.4026              1530.2016
 Red. masses --      1.0725                 1.0873                 1.0742
 Frc consts  --      1.4574                 1.4848                 1.4819
 IR Inten    --      2.0525                16.1460                 3.9442

                     64                     65                     66
                      A                      A                      A
 Frequencies --   1535.0903              1537.2051              1823.7158
 Red. masses --      1.0461                 1.0593                10.7374
 Frc consts  --      1.4524                 1.4748                21.0408
 IR Inten    --      2.7338                11.0364               190.3982

                     67                     68                     69
                      A                      A                      A
 Frequencies --   3032.8419              3050.0173              3061.3324
 Red. masses --      1.0663                 1.0377                 1.0360
 Frc consts  --      5.7785                 5.6876                 5.7205
 IR Inten    --     25.7763                22.5988                13.2527

                     70                     71                     72
                      A                      A                      A
 Frequencies --   3062.5778              3074.3672              3079.9939
 Red. masses --      1.0625                 1.0602                 1.0662
 Frc consts  --      5.8714                 5.9041                 5.9590
 IR Inten    --     12.2629                13.8402                21.4275

                     73                     74                     75
                      A                      A                      A
 Frequencies --   3083.1629              3085.9633              3096.4191
 Red. masses --      1.0678                 1.0906                 1.0591
 Frc consts  --      5.9802                 6.1190                 5.9828
 IR Inten    --      5.7797                35.0829                25.9805

                     76                     77                     78
                      A                      A                      A
 Frequencies --   3104.6103              3111.6626              3115.5405
 Red. masses --      1.1048                 1.1005                 1.1021
 Frc consts  --      6.2739                 6.2781                 6.3028
 IR Inten    --     23.6142                24.1582                13.9779

                     79                     80                     81
                      A                      A                      A
 Frequencies --   3127.2817              3135.6394              3140.2179
 Red. masses --      1.1018                 1.1008                 1.1034
 Frc consts  --      6.3486                 6.3770                 6.4108
 IR Inten    --     29.8853                 6.8069                17.2339

                     82                     83                     84
                      A                      A                      A
 Frequencies --   3140.3678              3154.2885              3159.7478
 Red. masses --      1.1030                 1.0967                 1.1082
 Frc consts  --      6.4089                 6.4288                 6.5190
 IR Inten    --     33.4249                11.3253                27.7913

 - Thermochemistry -
 -------------------
 Temperature   298.150 Kelvin.  Pressure   1.00000 Atm.
 Atom     1 has atomic number  6 and mass  12.00000

 Molecular mass:   190.10275 amu.
 Principal axes and moments of inertia in atomic units:
                           1         2         3
     Eigenvalues --  1588.970814115.014794309.48510
           X            0.99934  -0.00966  -0.03494
           Y            0.00889   0.99972  -0.02213
           Z            0.03515   0.02180   0.99914
 This molecule is an asymmetric top.
 Rotational symmetry number  1.
 Warning -- assumption of classical behavior for rotation
           may cause significant error
 Rotational temperatures (Kelvin)      0.05451     0.02105     0.02010
 Rotational constants (GHZ):           1.13579     0.43857     0.41878
 Zero-point vibrational energy     696229.4 (Joules/Mol)
                                  166.40281 (Kcal/Mol)
 Warning -- explicit consideration of  19 degrees of freedom as
           vibrations may cause significant error
 Vibrational temperatures:     25.81    53.76    74.38    98.55   134.76
          (Kelvin)            158.21   199.14   222.30   256.46   328.20
                              360.22   395.42   400.98   465.91   519.98
                              546.00   561.24   664.74   698.14   902.68
                              910.73   970.90  1037.60  1102.87  1124.69
                             1165.65  1191.98  1248.64  1289.08  1351.76
                             1395.45  1428.16  1475.89  1513.89  1533.49
                             1545.24  1573.54  1608.79  1630.22  1679.05
                             1709.59  1739.81  1781.16  1838.79  1863.13
                             1887.31  1908.48  1931.95  1940.25  1992.08
                             2019.81  2035.47  2045.88  2073.23  2076.44
                             2154.26  2167.93  2172.94  2180.88  2182.18
                             2185.11  2190.40  2201.62  2208.65  2211.70
                             2623.92  4363.58  4388.29  4404.57  4406.37
                             4423.33  4431.42  4435.98  4440.01  4455.06
                             4466.84  4476.99  4482.57  4499.46  4511.49
                             4518.07  4518.29  4538.32  4546.17

 Zero-point correction=                           0.265180 (Hartree/Particle)
 Thermal correction to Energy=                    0.280030
 Thermal correction to Enthalpy=                  0.280974
 Thermal correction to Gibbs Free Energy=         0.221249
 Sum of electronic and zero-point Energies=           -902.242875
 Sum of electronic and thermal Energies=              -902.228025
 Sum of electronic and thermal Enthalpies=            -902.227080
 Sum of electronic and thermal Free Energies=         -902.286806

                     E (Thermal)             CV                S
                      KCal/Mol        Cal/Mol-Kelvin    Cal/Mol-Kelvin
 Total                  175.721             52.853            125.703
 Electronic               0.000              0.000              0.000
 Translational            0.889              2.981             41.633
 Rotational               0.889              2.981             31.711
 Vibrational            173.944             46.891             52.359
 Vibration     1          0.593              1.986              6.850
 Vibration     2          0.594              1.982              5.394
 Vibration     3          0.596              1.977              4.751
 Vibration     4          0.598              1.969              4.196
 Vibration     5          0.603              1.954              3.582
 Vibration     6          0.606              1.941              3.270
 Vibration     7          0.614              1.915              2.826
 Vibration     8          0.620              1.898              2.616
 Vibration     9          0.629              1.869              2.347
 Vibration    10          0.651              1.798              1.894
 Vibration    11          0.663              1.762              1.728
 Vibration    12          0.677              1.720              1.566
 Vibration    13          0.679              1.713              1.542
 Vibration    14          0.708              1.628              1.291
 Vibration    15          0.736              1.552              1.116
 Vibration    16          0.749              1.514              1.041
 Vibration    17          0.758              1.491              1.000
 Vibration    18          0.820              1.334              0.760
 Vibration    19          0.841              1.283              0.696

 Optimization completed.
    -- Stationary point found.
 Normal termination of Gaussian 16 at Wed Dec  9 18:39:46 2020.

 ----------------------------------------------------------------------
 # B3LYP/6-311++G(d,p) empiricaldispersion=gd3bj scf=xqc pop=npa geom=c
 heck
 ----------------------------------------------------------------------

 ---------------------------------------
 CID_129808142_JID_2869_Energie_neutraal
 ---------------------------------------
 Structure from the checkpoint file:  "JID_2869.chk"
 Charge =  0 Multiplicity = 1

 SCF Done:  E(RB3LYP) =  -902.683311324     A.U. after   14 cycles
 Normal termination of Gaussian 16 at Wed Dec  9 18:43:04 2020.

 ----------------------------------------------------------------------
 # B3LYP/6-311++G(d,p) empiricaldispersion=gd3bj scf=xqc pop=npa geom=c
 heck
 ----------------------------------------------------------------------

 -------------------------------------
 CID_129808142_JID_2869_Energie_kation
 -------------------------------------
 Structure from the checkpoint file:  "JID_2869.chk"
 Charge =  1 Multiplicity = 2

 SCF Done:  E(UB3LYP) =  -902.377756287     A.U. after   20 cycles
 Normal termination of Gaussian 16 at Wed Dec  9 18:49:42 2020.
 Gaussian 16:  ES64L-G16RevA.03 25-Dec-2016

 ----------------------------------------------------------------------
 # B3LYP/6-311++G(d,p) empiricaldispersion=gd3bj scf=xqc pop=npa geom=c
 heck
 ----------------------------------------------------------------------

 ------------------------------------
 CID_129808142_JID_2869_Energie_anion
 ------------------------------------
 Structure from the checkpoint file:  "JID_2869.chk"
 Charge = -1 Multiplicity = 2

                         Standard orientation:
 ---------------------------------------------------------------------
 Center     Atomic      Atomic             Coordinates (Angstroms)
 Number     Number       Type             X           Y           Z
 ---------------------------------------------------------------------
      1          6           0        3.016763   -1.181154   -1.464321
      2          6           0        2.987390   -1.352499    0.045961
      3          8           0        1.774855   -0.795477    0.606913
      4          6           0        1.776438    0.541334    0.833692
      5          8           0        2.730563    1.260418    0.627570
      6          6           0        0.426765    1.013357    1.324962
      7          6           0       -0.246351    1.940337    0.291516
      8          6           0       -0.324007    1.369301   -1.129588
      9          6           0       -1.027044    0.016252   -1.279410
     10         16           0       -2.826400    0.008698   -0.898059
     11          6           0       -2.890894   -0.451139    0.880899
     12          6           0       -2.323047   -1.829627    1.209703
     13          1           0        2.124540   -1.621190   -1.921694
     14          1           0        3.899278   -1.679525   -1.880765
     15          1           0        3.065385   -0.121057   -1.727135
     16          1           0        2.958749   -2.406207    0.332323
     17          1           0        3.846431   -0.869011    0.516736
     18          1           0       -0.196538    0.147019    1.551280
     19          1           0        0.584446    1.569303    2.255554
     20          1           0       -1.253753    2.185027    0.646888
     21          1           0        0.316983    2.879040    0.254616
     22          1           0       -0.825987    2.102871   -1.771041
     23          1           0        0.695721    1.259289   -1.525757
     24          1           0       -0.967611   -0.304201   -2.324565
     25          1           0       -0.529840   -0.758112   -0.690088
     26          1           0       -2.415301    0.327276    1.484558
     27          1           0       -3.961340   -0.418746    1.109965
     28          1           0       -1.247913   -1.887911    1.009792
     29          1           0       -2.471002   -2.054229    2.273283
     30          1           0       -2.819271   -2.605294    0.618648
 ---------------------------------------------------------------------

 SCF Done:  E(UB3LYP) =  -902.668142710     A.U. after   33 cycles
 SCF Done:  E(UB3LYP) =  -902.668142710     a.u. after    1 cycles

 The electronic state is 2-A.
 Alpha  occ. eigenvalues --  -88.73935 -19.07354 -19.01908 -10.20837 -10.12986
 Alpha  occ. eigenvalues --  -10.10292 -10.10098 -10.08876 -10.08484 -10.08139
 Alpha  occ. eigenvalues --  -10.06843 -10.06706  -7.82544  -5.78941  -5.78567
 Alpha  occ. eigenvalues --   -5.77920  -1.01243  -0.92782  -0.73279  -0.70296
 Alpha  occ. eigenvalues --   -0.67961  -0.65539  -0.60683  -0.57335  -0.54722
 Alpha  occ. eigenvalues --   -0.50591  -0.47238  -0.45360  -0.41629  -0.39785
 Alpha  occ. eigenvalues --   -0.39485  -0.37616  -0.36175  -0.35640  -0.34266
 Alpha  occ. eigenvalues --   -0.33310  -0.31574  -0.31286  -0.30666  -0.30109
 Alpha  occ. eigenvalues --   -0.28526  -0.28398  -0.27054  -0.26570  -0.25237
 Alpha  occ. eigenvalues --   -0.24963  -0.24586  -0.23413  -0.21506  -0.20374
 Alpha  occ. eigenvalues --   -0.18716  -0.12951   0.04453
 Alpha virt. eigenvalues --    0.06014   0.07164   0.07423   0.08266   0.08961
 Alpha virt. eigenvalues --    0.09143   0.09885   0.10024   0.10084   0.11082
 Alpha virt. eigenvalues --    0.11545   0.11836   0.12847   0.12895   0.13272

  Beta  occ. eigenvalues --  -88.73933 -19.07348 -19.01902 -10.20838 -10.12959
  Beta  occ. eigenvalues --  -10.10270 -10.10085 -10.08856 -10.08474 -10.08131
  Beta  occ. eigenvalues --  -10.06804 -10.06669  -7.82542  -5.78940  -5.78562
  Beta  occ. eigenvalues --   -5.77918  -1.01232  -0.92769  -0.73257  -0.70265
  Beta  occ. eigenvalues --   -0.67922  -0.65501  -0.60645  -0.57284  -0.54657
  Beta  occ. eigenvalues --   -0.50532  -0.47189  -0.45323  -0.41599  -0.39757
  Beta  occ. eigenvalues --   -0.39448  -0.37596  -0.36143  -0.35616  -0.34232
  Beta  occ. eigenvalues --   -0.33267  -0.31536  -0.31258  -0.30622  -0.30073
  Beta  occ. eigenvalues --   -0.28481  -0.28355  -0.27020  -0.26541  -0.25213
  Beta  occ. eigenvalues --   -0.24936  -0.24559  -0.23385  -0.21480  -0.20351
  Beta  occ. eigenvalues --   -0.18703  -0.12940
  Beta virt. eigenvalues --    0.06665   0.07017   0.07629   0.07984   0.08809
  Beta virt. eigenvalues --    0.09279   0.09599   0.10214   0.10366   0.10427
  Beta virt. eigenvalues --    0.11429   0.11871   0.12117   0.12963   0.13149

 Mulliken charges and spin densities:
               1          2
     1  C    0.631868  -1.038213
     2  C    0.262705  -0.453628
     3  O   -0.001844   0.048403
     4  C   -0.310008  -0.029741
     5  O   -0.254918   0.035158
     6  C    0.787249  -0.795409
     7  C   -0.566148  -0.076575
     8  C   -0.381672   0.064238
     9  C    0.124957  -0.114827
    10  S    0.208288  -0.187965
    11  C   -0.334262  -0.044538
    12  C    0.617616  -1.184821
    13  H   -0.100161   0.255930
    14  H   -0.742626   0.906021
    15  H   -0.045952   0.212673
    16  H   -0.570823   0.744871
    17  H    0.080107   0.084973
    18  H    0.293486  -0.132956
    19  H   -0.391113   0.602604
    20  H   -0.109770   0.257083
    21  H    0.152703   0.024989
    22  H    0.099335   0.060887
    23  H    0.061002   0.070118
    24  H   -0.065985   0.331082
    25  H    0.527387  -0.462988
    26  H   -0.006937   0.159921
    27  H   -0.243534   0.469858
    28  H   -0.159132   0.351688
    29  H   -0.534173   0.675114
    30  H   -0.027647   0.166051
 Sum of Mulliken charges =  -1.00000   1.00000

 Dipole moment (field-independent basis, Debye):
    X=             -1.7524    Y=              4.3505    Z=             -1.4375  Tot=              4.9055
 Quadrupole moment (field-independent basis, Debye-Ang):
   XX=           -158.6007   YY=           -130.0085   ZZ=           -126.5642
   XY=              4.6880   XZ=             11.9221   YZ=             -2.6307

 Summary of Natural Population Analysis:

                                       Natural Population
                Natural  -----------------------------------------------
    Atom  No    Charge         Core      Valence    Rydberg      Total
 -----------------------------------------------------------------------
      C    1   -0.29917      0.99966     2.29399    0.00552     3.29917
      C    2   -0.01700      0.99957     2.00537    0.01205     3.01700
      O    3   -0.28293      0.99986     3.27329    0.00978     4.28293
      C    4    0.41073      0.99968     1.56285    0.02674     2.58927
      O    5   -0.31081      0.99987     3.30544    0.00550     4.31081
      C    6   -0.23905      0.99957     2.23065    0.00883     3.23905
      C    7   -0.18759      0.99962     2.17955    0.00841     3.18759
      C    8   -0.19723      0.99961     2.18917    0.00845     3.19723
      C    9   -0.25810      0.99957     2.24764    0.01089     3.25810
      S   10    0.07756      4.99963     2.90588    0.01693     7.92244
      C   11   -0.25169      0.99961     2.24127    0.01081     3.25169
      C   12   -0.29299      0.99965     2.28659    0.00675     3.29299
      H   13    0.10142      0.00000     0.39714    0.00144     0.39858
      H   14    0.10574      0.00000     0.39213    0.00214     0.39426
      H   15    0.10254      0.00000     0.39624    0.00122     0.39746
      H   16    0.09419      0.00000     0.40399    0.00183     0.40581
      H   17    0.09387      0.00000     0.40491    0.00123     0.40613
      H   18    0.10851      0.00000     0.38899    0.00251     0.39149
      H   19    0.11385      0.00000     0.38494    0.00121     0.38615
      H   20    0.10208      0.00000     0.39662    0.00129     0.39792
      H   21    0.10242      0.00000     0.39653    0.00105     0.39758
      H   22    0.09995      0.00000     0.39873    0.00133     0.40005
      H   23    0.10023      0.00000     0.39840    0.00137     0.39977
      H   24    0.10673      0.00000     0.39218    0.00109     0.39327
      H   25    0.10909      0.00000     0.38875    0.00216     0.39091
      H   26    0.09793      0.00000     0.40019    0.00187     0.40207
      H   27    0.10503      0.00000     0.39370    0.00128     0.39497
      H   28    0.10000      0.00000     0.39839    0.00161     0.40000
      H   29    0.10396      0.00000     0.39396    0.00208     0.39604
      H   30    0.10072      0.00000     0.39783    0.00144     0.39928
 =======================================================================
   * Total *   -0.00000     15.99590    35.84529    0.15880    52.00000

 Normal termination of Gaussian 16 at Wed Dec  9 19:00:32 2020.
