 Gaussian 16, Revision A.03,

 -----------------------------------------------------------
 # opt freq B3LYP/6-31G(d) empiricaldispersion=gd3bj scf=xqc
 -----------------------------------------------------------

 -------------------------------
 CID_103023526_JID_6296_neutraal
 -------------------------------
 Symbolic Z-matrix:
 Charge =  0 Multiplicity = 1

 SCF Done:  E(RB3LYP) =  -709.439592332     A.U. after   15 cycles
 SCF Done:  E(RB3LYP) =  -709.444741790     A.U. after   14 cycles
 SCF Done:  E(RB3LYP) =  -709.444341155     A.U. after   13 cycles
 SCF Done:  E(RB3LYP) =  -709.445499497     A.U. after   12 cycles
 SCF Done:  E(RB3LYP) =  -709.446210830     A.U. after   12 cycles
 SCF Done:  E(RB3LYP) =  -709.446731442     A.U. after   13 cycles
 SCF Done:  E(RB3LYP) =  -709.447267894     A.U. after   13 cycles
 SCF Done:  E(RB3LYP) =  -709.448513010     A.U. after   12 cycles
 SCF Done:  E(RB3LYP) =  -709.449370261     A.U. after   14 cycles
 SCF Done:  E(RB3LYP) =  -709.449997984     A.U. after   12 cycles
 SCF Done:  E(RB3LYP) =  -709.450644779     A.U. after    6 cycles
 SCF Done:  E(RB3LYP) =  -709.450644784     A.U. after    6 cycles
 SCF Done:  E(RB3LYP) =  -709.450644793     A.U. after    6 cycles
 SCF Done:  E(RB3LYP) =  -709.450644805     A.U. after    6 cycles
 SCF Done:  E(RB3LYP) =  -709.450644820     A.U. after    6 cycles
 Optimization completed.
    -- Stationary point found.
 Normal termination of Gaussian 16 at Thu Dec 10 22:15:54 2020.

 --------------------------------------------------------------------
 #N Geom=AllCheck Guess=TCheck SCRF=Check GenChk RB3LYP/6-31G(d) Freq
 --------------------------------------------------------------------

 Structure from the checkpoint file:  "JID_6296.chk"
 -------------------------------
 CID_103023526_JID_6296_neutraal
 -------------------------------
 Charge =  0 Multiplicity = 1

 SCF Done:  E(RB3LYP) =  -709.450644820     A.U. after    1 cycles

  Exact polarizability: 144.272   5.186 144.178 -11.072  -2.507 132.611
 Approx polarizability: 179.442   5.360 231.869 -21.767   3.208 210.874

                      1                      2                      3
                      A                      A                      A
 Frequencies --     25.5291                45.7511                52.8317
 Red. masses --      4.2636                 3.7679                 5.4611
 Frc consts  --      0.0016                 0.0046                 0.0090
 IR Inten    --      0.0946                 0.8163                 1.7091

                      4                      5                      6
                      A                      A                      A
 Frequencies --     68.9604                76.7772                90.6618
 Red. masses --      3.1990                 3.1238                 3.2594
 Frc consts  --      0.0090                 0.0108                 0.0158
 IR Inten    --      0.6144                 1.4626                 0.7646

                      7                      8                      9
                      A                      A                      A
 Frequencies --    101.9941               131.7932               160.8295
 Red. masses --      1.1344                 3.9015                 3.0208
 Frc consts  --      0.0070                 0.0399                 0.0460
 IR Inten    --      0.0877                 0.2568                 0.8081

                     10                     11                     12
                      A                      A                      A
 Frequencies --    181.2369               207.0826               219.9315
 Red. masses --      4.5424                 2.5873                 1.3113
 Frc consts  --      0.0879                 0.0654                 0.0374
 IR Inten    --      3.9761                 1.8765                 0.6487

                     13                     14                     15
                      A                      A                      A
 Frequencies --    232.1557               269.8166               281.5498
 Red. masses --      1.4836                 1.6783                 2.6140
 Frc consts  --      0.0471                 0.0720                 0.1221
 IR Inten    --      0.3379                 3.6241                12.1967

                     16                     17                     18
                      A                      A                      A
 Frequencies --    296.7532               310.3931               344.1277
 Red. masses --      1.7519                 2.1299                 1.5161
 Frc consts  --      0.0909                 0.1209                 0.1058
 IR Inten    --     19.3376                 2.1548                24.4542

                     19                     20                     21
                      A                      A                      A
 Frequencies --    362.4236               402.1422               416.6609
 Red. masses --      3.2859                 2.3282                 2.7217
 Frc consts  --      0.2543                 0.2218                 0.2784
 IR Inten    --      4.4615                 0.8071                 3.1347

                     22                     23                     24
                      A                      A                      A
 Frequencies --    431.3029               450.9114               492.2853
 Red. masses --      2.7145                 2.7334                 2.4601
 Frc consts  --      0.2975                 0.3274                 0.3513
 IR Inten    --      2.8375                 0.8146                 5.3688

                     25                     26                     27
                      A                      A                      A
 Frequencies --    598.7697               642.7958               662.6966
 Red. masses --      3.6540                 4.2695                 5.6865
 Frc consts  --      0.7719                 1.0394                 1.4714
 IR Inten    --      4.1873                 1.3447                 4.5786

                     28                     29                     30
                      A                      A                      A
 Frequencies --    696.5586               720.9961               742.1188
 Red. masses --      3.9025                 2.5546                 3.2271
 Frc consts  --      1.1156                 0.7824                 1.0471
 IR Inten    --      1.7867                 5.2721                 2.8201

                     31                     32                     33
                      A                      A                      A
 Frequencies --    782.0446               792.7052               835.2349
 Red. masses --      2.8344                 1.2383                 2.5876
 Frc consts  --      1.0214                 0.4585                 1.0636
 IR Inten    --      4.3053                41.0480                 0.8769

                     34                     35                     36
                      A                      A                      A
 Frequencies --    875.9129               895.6400               911.8721
 Red. masses --      1.3248                 2.1807                 1.5963
 Frc consts  --      0.5989                 1.0307                 0.7821
 IR Inten    --      2.6062                 9.5851                34.1883

                     37                     38                     39
                      A                      A                      A
 Frequencies --    939.3423               952.8084               959.9358
 Red. masses --      1.2341                 5.1668                 2.3823
 Frc consts  --      0.6416                 2.7637                 1.2934
 IR Inten    --      3.0619                13.5321                23.4817

                     40                     41                     42
                      A                      A                      A
 Frequencies --    969.4198               976.7480               987.4467
 Red. masses --      1.8431                 1.5810                 1.7050
 Frc consts  --      1.0205                 0.8887                 0.9795
 IR Inten    --      5.3531                24.4420                73.5081

                     43                     44                     45
                      A                      A                      A
 Frequencies --   1011.3965              1022.0395              1038.7209
 Red. masses --      2.2043                 2.7224                 1.8164
 Frc consts  --      1.3285                 1.6755                 1.1547
 IR Inten    --      1.4275                 6.3660                 8.2456

                     46                     47                     48
                      A                      A                      A
 Frequencies --   1075.3998              1105.9194              1113.6889
 Red. masses --      1.4673                 1.9271                 1.4620
 Frc consts  --      0.9998                 1.3887                 1.0684
 IR Inten    --      1.4171                17.8606                 2.1538

                     49                     50                     51
                      A                      A                      A
 Frequencies --   1146.1672              1156.5978              1163.7328
 Red. masses --      1.9525                 1.3182                 1.9065
 Frc consts  --      1.5112                 1.0389                 1.5213
 IR Inten    --     48.3012                 8.3812                 3.7462

                     52                     53                     54
                      A                      A                      A
 Frequencies --   1171.4907              1206.5594              1231.4329
 Red. masses --      1.8943                 1.7448                 1.4665
 Frc consts  --      1.5317                 1.4965                 1.3102
 IR Inten    --     22.2502                 2.0722                 1.2735

                     55                     56                     57
                      A                      A                      A
 Frequencies --   1237.0254              1243.4915              1244.7713
 Red. masses --      1.6069                 1.4366                 1.6373
 Frc consts  --      1.4488                 1.3088                 1.4947
 IR Inten    --      2.9694                 2.4469                 8.3864

                     58                     59                     60
                      A                      A                      A
 Frequencies --   1271.6996              1320.1742              1342.9967
 Red. masses --      1.4463                 4.1070                 1.4165
 Frc consts  --      1.3781                 4.2173                 1.5053
 IR Inten    --      3.6730                14.9845                 1.3177

                     61                     62                     63
                      A                      A                      A
 Frequencies --   1351.6232              1358.4121              1377.9270
 Red. masses --      1.4655                 1.4042                 1.6917
 Frc consts  --      1.5775                 1.5267                 1.8924
 IR Inten    --      1.1800                 1.8680                10.2282

                     64                     65                     66
                      A                      A                      A
 Frequencies --   1388.1263              1388.8858              1403.9645
 Red. masses --      1.6454                 1.7234                 1.4762
 Frc consts  --      1.8680                 1.9587                 1.7144
 IR Inten    --     11.5982                10.6005                 0.1357

                     67                     68                     69
                      A                      A                      A
 Frequencies --   1429.4324              1440.8635              1447.8584
 Red. masses --      1.2883                 1.3128                 2.6610
 Frc consts  --      1.5509                 1.6058                 3.2866
 IR Inten    --      5.0968                 5.8113                33.2713

                     70                     71                     72
                      A                      A                      A
 Frequencies --   1449.8090              1474.6523              1505.6073
 Red. masses --      1.2609                 1.3820                 1.3161
 Frc consts  --      1.5616                 1.7706                 1.7578
 IR Inten    --      3.8748                 4.4411                 9.1164

                     73                     74                     75
                      A                      A                      A
 Frequencies --   1509.0983              1514.7437              1516.0937
 Red. masses --      1.0920                 1.0637                 1.3394
 Frc consts  --      1.4652                 1.4379                 1.8139
 IR Inten    --      0.4667                 5.0534                 2.1827

                     76                     77                     78
                      A                      A                      A
 Frequencies --   1518.9178              1520.5124              1525.9331
 Red. masses --      1.0508                 1.4192                 1.0713
 Frc consts  --      1.4284                 1.9332                 1.4697
 IR Inten    --      5.4480                 6.0442                 2.4021

                     79                     80                     81
                      A                      A                      A
 Frequencies --   1534.5203              1538.7385              1541.3213
 Red. masses --      1.0676                 1.1151                 1.2177
 Frc consts  --      1.4812                 1.5556                 1.7044
 IR Inten    --      5.5836                10.6070                12.6770

                     82                     83                     84
                      A                      A                      A
 Frequencies --   1592.8176              1707.5001              1801.8850
 Red. masses --      5.0651                 1.0847                10.4950
 Frc consts  --      7.5713                 1.8633                20.0764
 IR Inten    --      6.5798                21.9359               101.9709

                     85                     86                     87
                      A                      A                      A
 Frequencies --   3013.2612              3036.4872              3040.2960
 Red. masses --      1.0826                 1.0572                 1.0376
 Frc consts  --      5.7915                 5.7430                 5.6510
 IR Inten    --     21.6251                11.0560                44.0572

                     88                     89                     90
                      A                      A                      A
 Frequencies --   3046.4708              3055.8334              3060.0394
 Red. masses --      1.0388                 1.0655                 1.0420
 Frc consts  --      5.6805                 5.8622                 5.7490
 IR Inten    --     13.3818                25.2524                33.4203

                     91                     92                     93
                      A                      A                      A
 Frequencies --   3075.7522              3078.9110              3092.2001
 Red. masses --      1.0690                 1.0772                 1.0973
 Frc consts  --      5.9585                 6.0164                 6.1816
 IR Inten    --     12.4996                19.0771                24.8798

                     94                     95                     96
                      A                      A                      A
 Frequencies --   3104.3917              3110.7408              3113.1216
 Red. masses --      1.1018                 1.1001                 1.1018
 Frc consts  --      6.2564                 6.2718                 6.2916
 IR Inten    --      9.5652                71.9364                34.9364

                     97                     98                     99
                      A                      A                      A
 Frequencies --   3115.1409              3115.8310              3132.5431
 Red. masses --      1.1018                 1.1001                 1.0998
 Frc consts  --      6.2993                 6.2927                 6.3585
 IR Inten    --     25.7525                37.1213                19.9640

                    100                    101                    102
                      A                      A                      A
 Frequencies --   3133.2236              3181.3031              3256.4571
 Red. masses --      1.1000                 1.1032                 1.0925
 Frc consts  --      6.3622                 6.5784                 6.8262
 IR Inten    --     20.5440                 4.2196                 6.8974

                    103                    104                    105
                      A                      A                      A
 Frequencies --   3275.8827              3450.2461              3534.3356
 Red. masses --      1.1013                 1.0496                 1.0910
 Frc consts  --      6.9631                 7.3617                 8.0299
 IR Inten    --      1.4919                 3.8459                 5.4613

 - Thermochemistry -
 -------------------
 Temperature   298.150 Kelvin.  Pressure   1.00000 Atm.
 Atom     1 has atomic number  6 and mass  12.00000

 Molecular mass:   223.16846 amu.
 Principal axes and moments of inertia in atomic units:
                           1         2         3
     Eigenvalues --  2272.613095277.646845733.33608
           X            0.99979   0.01840   0.00920
           Y           -0.01775   0.99766  -0.06606
           Z           -0.01039   0.06588   0.99777
 This molecule is an asymmetric top.
 Rotational symmetry number  1.
 Warning -- assumption of classical behavior for rotation
           may cause significant error
 Rotational temperatures (Kelvin)      0.03811     0.01641     0.01511
 Rotational constants (GHZ):           0.79413     0.34196     0.31478
 Zero-point vibrational energy     858691.2 (Joules/Mol)
                                  205.23213 (Kcal/Mol)
 Warning -- explicit consideration of  25 degrees of freedom as
           vibrations may cause significant error
 Vibrational temperatures:     36.73    65.83    76.01    99.22   110.47
          (Kelvin)            130.44   146.75   189.62   231.40   260.76
                              297.95   316.43   334.02   388.21   405.09
                              426.96   446.59   495.12   521.45   578.59
                              599.48   620.55   648.76   708.29   861.50
                              924.84   953.47  1002.19  1037.35  1067.74
                             1125.19  1140.53  1201.72  1260.24  1288.63
                             1311.98  1351.50  1370.88  1381.13  1394.78
                             1405.32  1420.72  1455.17  1470.49  1494.49
                             1547.26  1591.17  1602.35  1649.08  1664.09
                             1674.35  1685.51  1735.97  1771.76  1779.80
                             1789.11  1790.95  1829.69  1899.44  1932.27
                             1944.68  1954.45  1982.53  1997.20  1998.30
                             2019.99  2056.63  2073.08  2083.15  2085.95
                             2121.70  2166.23  2171.26  2179.38  2181.32
                             2185.38  2187.68  2195.48  2207.83  2213.90
                             2217.62  2291.71  2456.71  2592.51  4335.41
                             4368.83  4374.31  4383.19  4396.66  4402.71
                             4425.32  4429.87  4448.99  4466.53  4475.66
                             4479.09  4481.99  4482.99  4507.03  4508.01
                             4577.19  4685.32  4713.26  4964.13  5085.12

 Zero-point correction=                           0.327058 (Hartree/Particle)
 Thermal correction to Energy=                    0.344704
 Thermal correction to Enthalpy=                  0.345648
 Thermal correction to Gibbs Free Energy=         0.280653
 Sum of electronic and zero-point Energies=           -709.123587
 Sum of electronic and thermal Energies=              -709.105941
 Sum of electronic and thermal Enthalpies=            -709.104997
 Sum of electronic and thermal Free Energies=         -709.169992

                     E (Thermal)             CV                S
                      KCal/Mol        Cal/Mol-Kelvin    Cal/Mol-Kelvin
 Total                  216.305             65.039            136.794
 Electronic               0.000              0.000              0.000
 Translational            0.889              2.981             42.111
 Rotational               0.889              2.981             32.597
 Vibrational            214.528             59.077             62.086
 Vibration     1          0.593              1.985              6.150
 Vibration     2          0.595              1.979              4.993
 Vibration     3          0.596              1.976              4.708
 Vibration     4          0.598              1.969              4.183
 Vibration     5          0.599              1.965              3.972
 Vibration     6          0.602              1.956              3.646
 Vibration     7          0.604              1.948              3.416
 Vibration     8          0.612              1.922              2.920
 Vibration     9          0.622              1.890              2.540
 Vibration    10          0.630              1.865              2.316
 Vibration    11          0.641              1.830              2.069
 Vibration    12          0.647              1.811              1.960
 Vibration    13          0.653              1.792              1.862
 Vibration    14          0.674              1.729              1.597
 Vibration    15          0.681              1.708              1.524
 Vibration    16          0.690              1.680              1.435
 Vibration    17          0.699              1.654              1.360
 Vibration    18          0.723              1.587              1.193
 Vibration    19          0.736              1.550              1.112
 Vibration    20          0.768              1.466              0.955
 Vibration    21          0.780              1.434              0.903
 Vibration    22          0.792              1.402              0.854
 Vibration    23          0.810              1.359              0.793
 Vibration    24          0.848              1.267              0.678
 Vibration    25          0.957              1.034              0.452

                           ! Non-Optimized Parameters !
 Normal termination of Gaussian 16 at Thu Dec 10 22:29:25 2020.

 ----------------------------------------------------------------------
 # B3LYP/6-311++G(d,p) empiricaldispersion=gd3bj scf=xqc pop=npa geom=c
 heck
 ----------------------------------------------------------------------

 ---------------------------------------
 CID_103023526_JID_6296_Energie_neutraal
 ---------------------------------------
 Structure from the checkpoint file:  "JID_6296.chk"
 Charge =  0 Multiplicity = 1

 SCF Done:  E(RB3LYP) =  -709.654897608     A.U. after   15 cycles
 Normal termination of Gaussian 16 at Thu Dec 10 22:35:50 2020.

 ----------------------------------------------------------------------
 # B3LYP/6-311++G(d,p) empiricaldispersion=gd3bj scf=xqc pop=npa geom=c
 heck
 ----------------------------------------------------------------------

 -------------------------------------
 CID_103023526_JID_6296_Energie_kation
 -------------------------------------
 Structure from the checkpoint file:  "JID_6296.chk"
 Charge =  1 Multiplicity = 2

 SCF Done:  E(UB3LYP) =  -709.346647158     A.U. after   33 cycles
 SCF Done:  E(UB3LYP) =  -709.346653634     a.u. after    4 cycles
 Normal termination of Gaussian 16 at Thu Dec 10 23:34:06 2020.
 Gaussian 16:  ES64L-G16RevA.03 25-Dec-2016

 ----------------------------------------------------------------------
 # B3LYP/6-311++G(d,p) empiricaldispersion=gd3bj scf=xqc pop=npa geom=c
 heck
 ----------------------------------------------------------------------

 ------------------------------------
 CID_103023526_JID_6296_Energie_anion
 ------------------------------------
 Structure from the checkpoint file:  "JID_6296.chk"
 Charge = -1 Multiplicity = 2

                         Standard orientation:
 ---------------------------------------------------------------------
 Center     Atomic      Atomic             Coordinates (Angstroms)
 Number     Number       Type             X           Y           Z
 ---------------------------------------------------------------------
      1          6           0        2.516021    1.970714    0.373031
      2          6           0        3.018470    0.576172   -0.023922
      3          6           0        4.545486    0.504864    0.105942
      4          6           0        2.370612   -0.535145    0.819515
      5          6           0        0.846356   -0.724437    0.671937
      6          6           0        0.529644   -1.125968   -0.776950
      7          8           0        0.615866   -2.290443   -1.127195
      8          6           0        0.056345   -0.062213   -1.759930
      9          6           0       -1.482241   -0.169090   -1.913824
     10          6           0       -2.206594   -0.070988   -0.606810
     11          6           0       -2.756619   -1.065429    0.189247
     12          6           0       -3.220244   -0.396271    1.342995
     13          7           0       -2.980465    0.912884    1.283680
     14          7           0       -2.366256    1.094882    0.088074
     15          6           0       -1.916059    2.424622   -0.269406
     16          7           0        0.398640   -1.725866    1.638796
     17          1           0        2.744932    2.175588    1.426288
     18          1           0        1.432609    2.075433    0.248155
     19          1           0        2.995749    2.748572   -0.231782
     20          1           0        2.770617    0.408355   -1.082774
     21          1           0        4.852827    0.655591    1.148547
     22          1           0        4.926087   -0.470710   -0.216830
     23          1           0        5.032439    1.276791   -0.500985
     24          1           0        2.841321   -1.496407    0.571718
     25          1           0        2.565458   -0.353035    1.883337
     26          1           0        0.334241    0.214998    0.905387
     27          1           0        0.335201    0.938783   -1.417751
     28          1           0        0.527077   -0.243185   -2.731591
     29          1           0       -1.829036    0.597553   -2.617584
     30          1           0       -1.712403   -1.141591   -2.357947
     31          1           0       -2.819205   -2.116906   -0.052165
     32          1           0       -3.725967   -0.807023    2.206863
     33          1           0       -2.567623    3.141662    0.230496
     34          1           0       -0.882590    2.597222    0.052523
     35          1           0       -1.981796    2.563534   -1.351138
     36          1           0       -0.621500   -1.735858    1.635291
     37          1           0        0.684142   -2.640107    1.284697
 ---------------------------------------------------------------------

 SCF Done:  E(UB3LYP) =  -709.649867746     A.U. after   32 cycles

 The electronic state is 2-A.
 Alpha  occ. eigenvalues --  -18.98660 -14.28973 -14.22858 -14.18646 -10.12208
 Alpha  occ. eigenvalues --  -10.11259 -10.10826 -10.09358 -10.09295 -10.08222
 Alpha  occ. eigenvalues --  -10.08101 -10.07030 -10.06706 -10.06612 -10.06602
 Alpha  occ. eigenvalues --  -10.06338  -0.95031  -0.92249  -0.78328  -0.74722
 Alpha  occ. eigenvalues --   -0.71478  -0.71279  -0.65831  -0.62200  -0.60226
 Alpha  occ. eigenvalues --   -0.59322  -0.56400  -0.52241  -0.50543  -0.47258
 Alpha  occ. eigenvalues --   -0.45777  -0.42523  -0.40918  -0.39095  -0.38186
 Alpha  occ. eigenvalues --   -0.37188  -0.36318  -0.35204  -0.34582  -0.33559
 Alpha  occ. eigenvalues --   -0.33257  -0.33003  -0.32004  -0.30821  -0.30069
 Alpha  occ. eigenvalues --   -0.29797  -0.29606  -0.28835  -0.27570  -0.26685
 Alpha  occ. eigenvalues --   -0.25936  -0.25591  -0.24564  -0.23185  -0.23036
 Alpha  occ. eigenvalues --   -0.22283  -0.19650  -0.16118  -0.15587  -0.14503
 Alpha  occ. eigenvalues --   -0.12365   0.04301
 Alpha virt. eigenvalues --    0.06651   0.07523   0.07925   0.08473   0.08945
 Alpha virt. eigenvalues --    0.09496   0.09821   0.09892   0.10541   0.10853
 Alpha virt. eigenvalues --    0.11699   0.11865   0.12390   0.12453   0.13071

  Beta  occ. eigenvalues --  -18.98462 -14.28966 -14.22842 -14.18637 -10.11963
  Beta  occ. eigenvalues --  -10.11258 -10.10772 -10.09371 -10.09296 -10.08161
  Beta  occ. eigenvalues --  -10.08099 -10.07023 -10.06714 -10.06607 -10.06579
  Beta  occ. eigenvalues --  -10.06314  -0.95011  -0.91850  -0.78287  -0.74688
  Beta  occ. eigenvalues --   -0.71430  -0.71240  -0.65699  -0.62127  -0.60168
  Beta  occ. eigenvalues --   -0.59289  -0.56204  -0.52186  -0.50531  -0.47185
  Beta  occ. eigenvalues --   -0.45720  -0.42289  -0.40827  -0.38976  -0.38129
  Beta  occ. eigenvalues --   -0.37118  -0.36278  -0.35148  -0.34510  -0.33500
  Beta  occ. eigenvalues --   -0.33081  -0.32919  -0.31880  -0.30667  -0.29998
  Beta  occ. eigenvalues --   -0.29663  -0.29560  -0.28792  -0.27481  -0.26578
  Beta  occ. eigenvalues --   -0.25858  -0.25511  -0.24161  -0.23089  -0.23007
  Beta  occ. eigenvalues --   -0.21860  -0.19623  -0.16034  -0.15542  -0.14447
  Beta  occ. eigenvalues --   -0.12233
  Beta virt. eigenvalues --    0.06687   0.07662   0.08020   0.08504   0.09261
  Beta virt. eigenvalues --    0.09522   0.09755   0.09968   0.09987   0.10900
  Beta virt. eigenvalues --    0.11374   0.11867   0.12231   0.12475   0.12538

 Mulliken charges and spin densities:
               1          2
     1  C    0.240427  -0.865107
     2  C   -0.127825   0.664541
     3  C   -0.446905  -0.171861
     4  C   -0.419133  -0.426965
     5  C    0.159114  -0.179258
     6  C   -0.226936   0.274645
     7  O   -0.275022   0.079491
     8  C   -0.971585   0.840360
     9  C    1.688116  -2.679113
    10  C   -0.968059   0.895835
    11  C   -0.124764   0.175745
    12  C   -0.209354  -0.065493
    13  N   -0.216449   0.038965
    14  N    0.195762   0.082366
    15  C    1.030574  -1.315067
    16  N   -0.303431   0.016730
    17  H    0.099325   0.036967
    18  H    0.011285   0.075095
    19  H   -0.331102   0.477094
    20  H    0.064300   0.123869
    21  H    0.109678   0.017993
    22  H    0.062649   0.070594
    23  H    0.036613   0.108446
    24  H    0.172022  -0.029192
    25  H    0.185840  -0.002322
    26  H    0.299632  -0.133179
    27  H    0.060319   0.057999
    28  H   -0.409566   0.635213
    29  H   -0.688798   0.896148
    30  H    0.272523  -0.080458
    31  H    0.123365   0.044586
    32  H    0.132991   0.008843
    33  H   -0.024766   0.191264
    34  H   -0.118176   0.338656
    35  H   -0.610099   0.792303
    36  H    0.272062   0.008420
    37  H    0.255374  -0.004150
 Sum of Mulliken charges =  -1.00000   1.00000

 Dipole moment (field-independent basis, Debye):
    X=              0.9700    Y=             -3.8729    Z=              5.0873  Tot=              6.4669
 Quadrupole moment (field-independent basis, Debye-Ang):
   XX=           -143.8869   YY=           -144.2908   ZZ=           -148.0057
   XY=              7.4625   XZ=             -2.2313   YZ=              6.8186

 Summary of Natural Population Analysis:

                                       Natural Population
                Natural  -----------------------------------------------
    Atom  No    Charge         Core      Valence    Rydberg      Total
 -----------------------------------------------------------------------
      C    1   -0.28361      0.99965     2.27767    0.00630     3.28361
      C    2   -0.11964      0.99961     2.11204    0.00800     3.11964
      C    3   -0.28003      0.99965     2.27582    0.00456     3.28003
      C    4   -0.18125      0.99959     2.17236    0.00930     3.18125
      C    5   -0.05686      0.99954     2.04467    0.01264     3.05686
      C    6    0.32098      0.99964     1.65543    0.02395     2.67902
      O    7   -0.28935      0.99987     3.28235    0.00713     4.28935
      C    8   -0.23332      0.99957     2.22226    0.01148     3.23332
      C    9   -0.20235      0.99958     2.19234    0.01043     3.20235
      C   10    0.09247      0.99952     1.89488    0.01313     2.90753
      C   11   -0.17302      0.99949     2.16464    0.00889     3.17302
      C   12   -0.01926      0.99963     2.00592    0.01371     3.01926
      N   13   -0.15665      0.99974     2.64573    0.01118     3.65665
      N   14   -0.11106      0.99961     2.59807    0.01338     3.61106
      C   15   -0.17392      0.99963     2.16602    0.00827     3.17392
      N   16   -0.41890      0.99977     2.91028    0.00885     3.91890
      H   17    0.09411      0.00000     0.40507    0.00082     0.40589
      H   18    0.09837      0.00000     0.40023    0.00140     0.40163
      H   19    0.10069      0.00000     0.39839    0.00092     0.39931
      H   20    0.09632      0.00000     0.40146    0.00222     0.40368
      H   21    0.09354      0.00000     0.40561    0.00085     0.40646
      H   22    0.09768      0.00000     0.40160    0.00072     0.40232
      H   23    0.09825      0.00000     0.40100    0.00075     0.40175
      H   24    0.09816      0.00000     0.40076    0.00108     0.40184
      H   25    0.09972      0.00000     0.39902    0.00126     0.40028
      H   26    0.09645      0.00000     0.40146    0.00209     0.40355
      H   27    0.10059      0.00000     0.39628    0.00313     0.39941
      H   28    0.11360      0.00000     0.38426    0.00214     0.38640
      H   29    0.11548      0.00000     0.38017    0.00435     0.38452
      H   30    0.10992      0.00000     0.38893    0.00115     0.39008
      H   31    0.11005      0.00000     0.38924    0.00070     0.38995
      H   32    0.09507      0.00000     0.40420    0.00073     0.40493
      H   33    0.10672      0.00000     0.39187    0.00140     0.39328
      H   34    0.09777      0.00000     0.40061    0.00162     0.40223
      H   35    0.10780      0.00000     0.38970    0.00250     0.39220
      H   36    0.17918      0.00000     0.31912    0.00170     0.32082
      H   37    0.17628      0.00000     0.32179    0.00193     0.32372
 =======================================================================
   * Total *    0.00000     15.99411    44.80125    0.20465    61.00000

 Normal termination of Gaussian 16 at Thu Dec 10 23:50:29 2020.
