 Gaussian 16, Revision A.03,

 -----------------------------------------------------------
 # opt freq B3LYP/6-31G(d) empiricaldispersion=gd3bj scf=xqc
 -----------------------------------------------------------

 ------------------------------
 CID_90248819_JID_2805_neutraal
 ------------------------------
 Symbolic Z-matrix:
 Charge =  0 Multiplicity = 1

 SCF Done:  E(RB3LYP) =  -571.995188862     A.U. after   15 cycles
 SCF Done:  E(RB3LYP) =  -572.000759233     A.U. after   13 cycles
 SCF Done:  E(RB3LYP) =  -572.001168445     A.U. after   13 cycles
 SCF Done:  E(RB3LYP) =  -572.002179791     A.U. after   12 cycles
 SCF Done:  E(RB3LYP) =  -572.002386387     A.U. after   12 cycles
 SCF Done:  E(RB3LYP) =  -572.002456001     A.U. after   12 cycles
 SCF Done:  E(RB3LYP) =  -572.002482617     A.U. after   10 cycles
 SCF Done:  E(RB3LYP) =  -572.002494010     A.U. after   10 cycles
 SCF Done:  E(RB3LYP) =  -572.002503949     A.U. after   10 cycles
 SCF Done:  E(RB3LYP) =  -572.002511598     A.U. after   10 cycles
 SCF Done:  E(RB3LYP) =  -572.002519658     A.U. after    8 cycles
 SCF Done:  E(RB3LYP) =  -572.002519786     A.U. after    8 cycles
 SCF Done:  E(RB3LYP) =  -572.002519834     A.U. after    8 cycles
 SCF Done:  E(RB3LYP) =  -572.002519865     A.U. after    8 cycles
 SCF Done:  E(RB3LYP) =  -572.002519886     A.U. after    8 cycles
 SCF Done:  E(RB3LYP) =  -572.002519904     A.U. after    7 cycles
 Optimization completed.
    -- Stationary point found.
 Normal termination of Gaussian 16 at Wed Dec  9 18:04:00 2020.

 --------------------------------------------------------------------
 #N Geom=AllCheck Guess=TCheck SCRF=Check GenChk RB3LYP/6-31G(d) Freq
 --------------------------------------------------------------------

 Structure from the checkpoint file:  "JID_2805.chk"
 ------------------------------
 CID_90248819_JID_2805_neutraal
 ------------------------------
 Charge =  0 Multiplicity = 1

 SCF Done:  E(RB3LYP) =  -572.002519904     A.U. after    1 cycles

  Exact polarizability: 115.157 -28.010 169.015  -2.938  -3.740  56.235
 Approx polarizability: 159.727 -64.772 279.135  -3.275  -5.092  83.524

                      1                      2                      3
                      A                      A                      A
 Frequencies --     26.3644                27.9812                70.2784
 Red. masses --      5.3578                 4.7270                 4.3362
 Frc consts  --      0.0022                 0.0022                 0.0126
 IR Inten    --      1.8458                 1.7425                 2.7162

                      4                      5                      6
                      A                      A                      A
 Frequencies --     83.4418               113.1499               116.9343
 Red. masses --      3.0602                 2.7441                 1.1854
 Frc consts  --      0.0126                 0.0207                 0.0096
 IR Inten    --      0.6551                 0.7032                 0.7788

                      7                      8                      9
                      A                      A                      A
 Frequencies --    143.5056               159.1972               212.7940
 Red. masses --      3.7694                 2.5908                 3.0129
 Frc consts  --      0.0457                 0.0387                 0.0804
 IR Inten    --      0.7033                 2.9419                 4.0411

                     10                     11                     12
                      A                      A                      A
 Frequencies --    227.0374               285.7485               305.8917
 Red. masses --      4.0230                 2.2223                 3.8395
 Frc consts  --      0.1222                 0.1069                 0.2117
 IR Inten    --      0.9639                 5.0833                 2.3559

                     13                     14                     15
                      A                      A                      A
 Frequencies --    342.8518               413.3203               469.0852
 Red. masses --      3.0417                 3.0337                 2.8128
 Frc consts  --      0.2107                 0.3053                 0.3647
 IR Inten    --      3.7543                 0.2103                10.7942

                     16                     17                     18
                      A                      A                      A
 Frequencies --    496.2274               523.4435               567.0702
 Red. masses --      2.8903                 2.4710                 1.8170
 Frc consts  --      0.4193                 0.3989                 0.3443
 IR Inten    --      1.3063                41.1562                20.2641

                     19                     20                     21
                      A                      A                      A
 Frequencies --    620.7955               641.9693               712.2907
 Red. masses --      2.2997                 2.1638                 4.1701
 Frc consts  --      0.5222                 0.5254                 1.2466
 IR Inten    --     33.2466                32.5856                26.5115

                     22                     23                     24
                      A                      A                      A
 Frequencies --    746.8109               795.6655               827.5174
 Red. masses --      1.6192                 3.4896                 3.7359
 Frc consts  --      0.5321                 1.3016                 1.5073
 IR Inten    --      2.6158                 4.5856                 2.6869

                     25                     26                     27
                      A                      A                      A
 Frequencies --    883.9124               927.7634               956.1912
 Red. masses --      4.2300                 1.4040                 1.3661
 Frc consts  --      1.9472                 0.7120                 0.7359
 IR Inten    --     38.4686                36.0565                30.5013

                     28                     29                     30
                      A                      A                      A
 Frequencies --    980.8348              1010.2585              1023.4808
 Red. masses --      1.9756                 1.7095                 1.7331
 Frc consts  --      1.1198                 1.0280                 1.0696
 IR Inten    --      9.6149                38.7328                 1.1448

                     31                     32                     33
                      A                      A                      A
 Frequencies --   1032.4327              1039.8663              1078.9324
 Red. masses --      1.3152                 1.1111                 3.4474
 Frc consts  --      0.8260                 0.7079                 2.3644
 IR Inten    --     24.5446                17.4980               187.1261

                     34                     35                     36
                      A                      A                      A
 Frequencies --   1105.4365              1155.6267              1185.8044
 Red. masses --      2.0800                 1.2819                 2.6055
 Frc consts  --      1.4976                 1.0086                 2.1586
 IR Inten    --     23.1839                 7.1562                 4.8569

                     37                     38                     39
                      A                      A                      A
 Frequencies --   1201.6459              1251.3040              1286.1367
 Red. masses --      2.1839                 1.4929                 1.8436
 Frc consts  --      1.8579                 1.3772                 1.7968
 IR Inten    --      4.2466                83.6964               151.7472

                     40                     41                     42
                      A                      A                      A
 Frequencies --   1317.1948              1361.0627              1379.9259
 Red. masses --      1.4223                 1.2681                 1.5561
 Frc consts  --      1.4540                 1.3841                 1.7459
 IR Inten    --      8.2177                 8.2543                47.8157

                     43                     44                     45
                      A                      A                      A
 Frequencies --   1422.1300              1451.3423              1465.6169
 Red. masses --      1.7670                 1.2422                 1.2768
 Frc consts  --      2.1056                 1.5417                 1.6159
 IR Inten    --     47.0850                 9.9133                 4.0376

                     46                     47                     48
                      A                      A                      A
 Frequencies --   1486.6313              1502.0837              1518.8568
 Red. masses --      1.5652                 1.3310                 1.0554
 Frc consts  --      2.0381                 1.7693                 1.4345
 IR Inten    --     18.9030                18.0667                11.1713

                     49                     50                     51
                      A                      A                      A
 Frequencies --   1533.4984              1548.7524              1667.5449
 Red. masses --      1.1064                 1.1552                 8.1745
 Frc consts  --      1.5330                 1.6326                13.3927
 IR Inten    --      3.0871                52.5186               133.8834

                     52                     53                     54
                      A                      A                      A
 Frequencies --   1689.5170              1723.1648              1793.0303
 Red. masses --      4.0703                 4.9000                 7.9237
 Frc consts  --      6.8455                 8.5724                15.0090
 IR Inten    --      1.9841                 3.9766               290.1295

                     55                     56                     57
                      A                      A                      A
 Frequencies --   3041.7436              3058.2986              3124.4700
 Red. masses --      1.0694                 1.0378                 1.1003
 Frc consts  --      5.8295                 5.7188                 6.3288
 IR Inten    --     37.5675                34.4660                25.9110

                     58                     59                     60
                      A                      A                      A
 Frequencies --   3152.6530              3158.0109              3165.1224
 Red. masses --      1.1035                 1.0861                 1.0934
 Frc consts  --      6.4622                 6.3818                 6.4535
 IR Inten    --     26.3679                 7.7681                 6.8148

                     61                     62                     63
                      A                      A                      A
 Frequencies --   3181.9299              3182.7700              3212.6429
 Red. masses --      1.0576                 1.0651                 1.0935
 Frc consts  --      6.3089                 6.3571                 6.6499
 IR Inten    --      4.2778                 6.5247                 3.6547

                     64                     65                     66
                      A                      A                      A
 Frequencies --   3268.1828              3272.5956              3597.2012
 Red. masses --      1.1164                 1.1179                 1.0759
 Frc consts  --      7.0255                 7.0542                 8.2026
 IR Inten    --     10.4203                 7.7397                24.9635

 - Thermochemistry -
 -------------------
 Temperature   298.150 Kelvin.  Pressure   1.00000 Atm.
 Atom     1 has atomic number  6 and mass  12.00000

 Molecular mass:   168.08988 amu.
 Principal axes and moments of inertia in atomic units:
                           1         2         3
     Eigenvalues --  1765.649262365.490603921.12668
           X            0.99535  -0.09602  -0.00827
           Y            0.09599   0.99538  -0.00331
           Z            0.00855   0.00250   0.99996
 This molecule is an asymmetric top.
 Rotational symmetry number  1.
 Warning -- assumption of classical behavior for rotation
           may cause significant error
 Rotational temperatures (Kelvin)      0.04905     0.03662     0.02209
 Rotational constants (GHZ):           1.02214     0.76295     0.46026
 Zero-point vibrational energy     516338.0 (Joules/Mol)
                                  123.40774 (Kcal/Mol)
 Warning -- explicit consideration of  18 degrees of freedom as
           vibrations may cause significant error
 Vibrational temperatures:     37.93    40.26   101.11   120.05   162.80
          (Kelvin)            168.24   206.47   229.05   306.16   326.66
                              411.13   440.11   493.29   594.68   674.91
                              713.96   753.12   815.89   893.19   923.65
                             1024.83  1074.49  1144.79  1190.61  1271.75
                             1334.84  1375.75  1411.20  1453.54  1472.56
                             1485.44  1496.14  1552.34  1590.48  1662.69
                             1706.11  1728.90  1800.35  1850.46  1895.15
                             1958.27  1985.41  2046.13  2088.16  2108.70
                             2138.93  2161.16  2185.30  2206.36  2228.31
                             2399.23  2430.84  2479.25  2579.77  4376.39
                             4400.21  4495.42  4535.96  4543.67  4553.91
                             4578.09  4579.30  4622.28  4702.19  4708.54
                             5175.57

 Zero-point correction=                           0.196663 (Hartree/Particle)
 Thermal correction to Energy=                    0.210127
 Thermal correction to Enthalpy=                  0.211071
 Thermal correction to Gibbs Free Energy=         0.154702
 Sum of electronic and zero-point Energies=           -571.805857
 Sum of electronic and thermal Energies=              -571.792393
 Sum of electronic and thermal Enthalpies=            -571.791449
 Sum of electronic and thermal Free Energies=         -571.847818

                     E (Thermal)             CV                S
                      KCal/Mol        Cal/Mol-Kelvin    Cal/Mol-Kelvin
 Total                  131.857             47.076            118.639
 Electronic               0.000              0.000              0.000
 Translational            0.889              2.981             41.266
 Rotational               0.889              2.981             31.172
 Vibrational            130.079             41.114             46.202
 Vibration     1          0.593              1.985              6.086
 Vibration     2          0.593              1.984              5.968
 Vibration     3          0.598              1.968              4.146
 Vibration     4          0.600              1.961              3.808
 Vibration     5          0.607              1.939              3.214
 Vibration     6          0.608              1.935              3.150
 Vibration     7          0.616              1.910              2.757
 Vibration     8          0.621              1.892              2.559
 Vibration     9          0.644              1.821              2.020
 Vibration    10          0.651              1.800              1.902
 Vibration    11          0.684              1.700              1.499
 Vibration    12          0.696              1.663              1.384
 Vibration    13          0.722              1.590              1.199
 Vibration    14          0.777              1.441              0.915
 Vibration    15          0.826              1.319              0.740
 Vibration    16          0.852              1.258              0.668
 Vibration    17          0.878              1.198              0.602
 Vibration    18          0.923              1.102              0.510

                           ! Non-Optimized Parameters !
 Normal termination of Gaussian 16 at Wed Dec  9 18:09:45 2020.

 ----------------------------------------------------------------------
 # B3LYP/6-311++G(d,p) empiricaldispersion=gd3bj scf=xqc pop=npa geom=c
 heck
 ----------------------------------------------------------------------

 --------------------------------------
 CID_90248819_JID_2805_Energie_neutraal
 --------------------------------------
 Structure from the checkpoint file:  "JID_2805.chk"
 Charge =  0 Multiplicity = 1

 SCF Done:  E(RB3LYP) =  -572.173642403     A.U. after   15 cycles
 Normal termination of Gaussian 16 at Wed Dec  9 18:11:45 2020.

 ----------------------------------------------------------------------
 # B3LYP/6-311++G(d,p) empiricaldispersion=gd3bj scf=xqc pop=npa geom=c
 heck
 ----------------------------------------------------------------------

 ------------------------------------
 CID_90248819_JID_2805_Energie_kation
 ------------------------------------
 Structure from the checkpoint file:  "JID_2805.chk"
 Charge =  1 Multiplicity = 2

 SCF Done:  E(UB3LYP) =  -571.869932654     A.U. after   27 cycles
 Normal termination of Gaussian 16 at Wed Dec  9 18:16:54 2020.
 Gaussian 16:  ES64L-G16RevA.03 25-Dec-2016

 ----------------------------------------------------------------------
 # B3LYP/6-311++G(d,p) empiricaldispersion=gd3bj scf=xqc pop=npa geom=c
 heck
 ----------------------------------------------------------------------

 -----------------------------------
 CID_90248819_JID_2805_Energie_anion
 -----------------------------------
 Structure from the checkpoint file:  "JID_2805.chk"
 Charge = -1 Multiplicity = 2

                         Standard orientation:
 ---------------------------------------------------------------------
 Center     Atomic      Atomic             Coordinates (Angstroms)
 Number     Number       Type             X           Y           Z
 ---------------------------------------------------------------------
      1          6           0        2.856814   -1.172372   -0.536556
      2          7           0        2.789181    0.260388   -0.293109
      3          6           0        1.775070    0.959013    0.291910
      4          8           0        1.750287    2.184263    0.310855
      5          6           0        0.662453    0.137302    0.941458
      6          8           0        0.014607   -0.644507   -0.075191
      7          6           0       -1.368933   -0.713179   -0.057833
      8          7           0       -2.174958    0.277403   -0.150896
      9          6           0       -1.729452    1.583465   -0.352248
     10          6           0       -2.575552    2.615629   -0.230507
     11          6           0       -1.892438   -2.076387    0.021997
     12          6           0       -1.130501   -3.170567    0.138367
     13          1           0        2.458567   -1.722632    0.318750
     14          1           0        3.904926   -1.457008   -0.661013
     15          1           0        2.292681   -1.473569   -1.426623
     16          1           0        3.445246    0.853861   -0.785949
     17          1           0        1.058670   -0.545590    1.704911
     18          1           0       -0.027810    0.837173    1.411806
     19          1           0       -0.690257    1.761807   -0.628345
     20          1           0       -2.237212    3.633445   -0.392019
     21          1           0       -3.613395    2.454667    0.044445
     22          1           0       -2.975165   -2.139447   -0.029520
     23          1           0       -1.571262   -4.161127    0.187938
     24          1           0       -0.048464   -3.101584    0.178822
 ---------------------------------------------------------------------

 SCF Done:  E(UB3LYP) =  -572.183845672     A.U. after   30 cycles

 The electronic state is 2-A.
 Alpha  occ. eigenvalues --  -19.01435 -18.98713 -14.24069 -14.13579 -10.16998
 Alpha  occ. eigenvalues --  -10.11667 -10.10864 -10.09299 -10.04321 -10.02115
 Alpha  occ. eigenvalues --  -10.00983 -10.00276  -0.94299  -0.92543  -0.82444
 Alpha  occ. eigenvalues --   -0.76278  -0.65029  -0.61765  -0.60342  -0.59458
 Alpha  occ. eigenvalues --   -0.49551  -0.48116  -0.43029  -0.41573  -0.39857
 Alpha  occ. eigenvalues --   -0.39251  -0.36840  -0.35036  -0.34714  -0.32183
 Alpha  occ. eigenvalues --   -0.31063  -0.30594  -0.29364  -0.27805  -0.26431
 Alpha  occ. eigenvalues --   -0.25397  -0.23994  -0.22060  -0.21431  -0.18320
 Alpha  occ. eigenvalues --   -0.15923  -0.15246  -0.14117  -0.11198  -0.08575
 Alpha  occ. eigenvalues --    0.04219
 Alpha virt. eigenvalues --    0.05913   0.08917   0.09691   0.10130   0.10594
 Alpha virt. eigenvalues --    0.11029   0.11225   0.12504   0.13297   0.13660
 Alpha virt. eigenvalues --    0.14598   0.14881   0.15069   0.15848   0.16605

  Beta  occ. eigenvalues --  -19.01425 -18.98709 -14.24061 -14.13329 -10.17000
  Beta  occ. eigenvalues --  -10.11630 -10.10843 -10.08991 -10.04338 -10.02100
  Beta  occ. eigenvalues --  -10.00604 -10.00006  -0.94250  -0.92441  -0.82425
  Beta  occ. eigenvalues --   -0.75760  -0.64639  -0.61618  -0.60150  -0.59108
  Beta  occ. eigenvalues --   -0.48977  -0.47799  -0.42841  -0.41088  -0.39803
  Beta  occ. eigenvalues --   -0.39187  -0.36688  -0.34986  -0.34577  -0.31937
  Beta  occ. eigenvalues --   -0.31021  -0.30542  -0.29156  -0.27736  -0.26134
  Beta  occ. eigenvalues --   -0.25013  -0.23758  -0.21804  -0.20758  -0.17955
  Beta  occ. eigenvalues --   -0.15888  -0.14558  -0.13362  -0.10686  -0.06817
  Beta virt. eigenvalues --    0.06528   0.08941   0.09723   0.09842   0.10070
  Beta virt. eigenvalues --    0.10644   0.10993   0.11354   0.12437   0.13265
  Beta virt. eigenvalues --    0.13624   0.14621   0.14917   0.15317   0.15953

 Mulliken charges and spin densities:
               1          2
     1  C    0.153486  -0.541588
     2  N   -0.239123   0.057096
     3  C   -0.034865   0.095678
     4  O   -0.329057   0.004589
     5  C   -0.202873  -0.170655
     6  O   -0.071796   0.007906
     7  C   -0.611304   0.158533
     8  N   -0.029638   0.108253
     9  C    0.149693  -0.046909
    10  C   -0.429401   0.283485
    11  C    0.413769  -0.013029
    12  C   -0.744341   0.370965
    13  H    0.130824   0.043537
    14  H   -0.354113   0.505626
    15  H    0.103330   0.082562
    16  H    0.136696   0.137452
    17  H    0.110516   0.018976
    18  H    0.220751  -0.007340
    19  H    0.122418  -0.008226
    20  H    0.082285  -0.012355
    21  H    0.078119  -0.012236
    22  H    0.151693  -0.002998
    23  H    0.099994  -0.013858
    24  H    0.092938  -0.045464
 Sum of Mulliken charges =  -1.00000   1.00000

 Dipole moment (field-independent basis, Debye):
    X=              4.1224    Y=             -1.1846    Z=              0.9153  Tot=              4.3858
 Quadrupole moment (field-independent basis, Debye-Ang):
   XX=           -110.5019   YY=           -110.2408   ZZ=            -83.3024
   XY=              0.8848   XZ=             -1.1389   YZ=             -2.1305

 Summary of Natural Population Analysis:

                                       Natural Population
                Natural  -----------------------------------------------
    Atom  No    Charge         Core      Valence    Rydberg      Total
 -----------------------------------------------------------------------
      C    1   -0.18018      0.99965     2.17191    0.00862     3.18018
      N    2   -0.31634      0.99967     2.80688    0.00979     3.81634
      C    3    0.33038      0.99967     1.64545    0.02450     2.66962
      O    4   -0.31987      0.99988     3.31428    0.00571     4.31987
      C    5   -0.04701      0.99953     2.03795    0.00954     3.04701
      O    6   -0.30498      0.99986     3.29510    0.01002     4.30498
      C    7    0.31417      0.99948     1.66703    0.01932     2.68583
      N    8   -0.23713      0.99961     2.72522    0.01230     3.73713
      C    9   -0.02950      0.99954     2.01718    0.01278     3.02950
      C   10   -0.15325      0.99960     2.14498    0.00867     3.15325
      C   11   -0.12915      0.99953     2.12008    0.00954     3.12915
      C   12   -0.11082      0.99960     2.10349    0.00773     3.11082
      H   13    0.10091      0.00000     0.39795    0.00114     0.39909
      H   14    0.09368      0.00000     0.40508    0.00123     0.40632
      H   15    0.09973      0.00000     0.39894    0.00133     0.40027
      H   16    0.19009      0.00000     0.30711    0.00280     0.30991
      H   17    0.08559      0.00000     0.41323    0.00118     0.41441
      H   18    0.10723      0.00000     0.39133    0.00145     0.39277
      H   19    0.08035      0.00000     0.41695    0.00270     0.41965
      H   20    0.08206      0.00000     0.41706    0.00087     0.41794
      H   21    0.08518      0.00000     0.41357    0.00125     0.41482
      H   22    0.09569      0.00000     0.40337    0.00094     0.40431
      H   23    0.07917      0.00000     0.41985    0.00098     0.42083
      H   24    0.08400      0.00000     0.41449    0.00151     0.41600
 =======================================================================
   * Total *    0.00000     11.99562    32.84850    0.15588    45.00000

 Normal termination of Gaussian 16 at Wed Dec  9 18:22:07 2020.
