 Gaussian 16, Revision A.03,

 -----------------------------------------------------------
 # opt freq B3LYP/6-31G(d) empiricaldispersion=gd3bj scf=xqc
 -----------------------------------------------------------

 -------------------------------
 CID_137046124_JID_1916_neutraal
 -------------------------------
 Symbolic Z-matrix:
 Charge =  0 Multiplicity = 1

 SCF Done:  E(RB3LYP) =  -872.964202384     A.U. after   15 cycles
 SCF Done:  E(RB3LYP) =  -872.973912606     A.U. after   12 cycles
 SCF Done:  E(RB3LYP) =  -872.974917312     A.U. after   11 cycles
 SCF Done:  E(RB3LYP) =  -872.973999615     A.U. after   13 cycles
 SCF Done:  E(RB3LYP) =  -872.974199450     A.U. after   12 cycles
 SCF Done:  E(RB3LYP) =  -872.975057938     A.U. after    8 cycles
 SCF Done:  E(RB3LYP) =  -872.975115305     A.U. after   10 cycles
 SCF Done:  E(RB3LYP) =  -872.975120693     A.U. after    8 cycles
 SCF Done:  E(RB3LYP) =  -872.975121293     A.U. after    8 cycles
 SCF Done:  E(RB3LYP) =  -872.975121691     A.U. after    8 cycles
 SCF Done:  E(RB3LYP) =  -872.976220625     A.U. after   11 cycles
 SCF Done:  E(RB3LYP) =  -872.976222538     A.U. after    9 cycles
 SCF Done:  E(RB3LYP) =  -872.976222341     A.U. after   10 cycles
 SCF Done:  E(RB3LYP) =  -872.976223451     A.U. after    8 cycles
 SCF Done:  E(RB3LYP) =  -872.976223796     A.U. after    8 cycles
 SCF Done:  E(RB3LYP) =  -872.976224648     A.U. after    8 cycles
 Optimization completed.
    -- Stationary point found.
 Normal termination of Gaussian 16 at Tue Dec  8 21:39:52 2020.

 --------------------------------------------------------------------
 #N Geom=AllCheck Guess=TCheck SCRF=Check GenChk RB3LYP/6-31G(d) Freq
 --------------------------------------------------------------------

 Structure from the checkpoint file:  "JID_1916.chk"
 -------------------------------
 CID_137046124_JID_1916_neutraal
 -------------------------------
 Charge =  0 Multiplicity = 1

 SCF Done:  E(RB3LYP) =  -872.976224648     A.U. after    1 cycles

  Exact polarizability: 135.070   0.422  88.849   4.626   2.145  78.859
 Approx polarizability: 184.323   0.158 148.433  11.451   5.580 122.917

                      1                      2                      3
                      A                      A                      A
 Frequencies --     27.4759                55.5496                85.5910
 Red. masses --      4.1665                 4.4553                 4.5590
 Frc consts  --      0.0019                 0.0081                 0.0197
 IR Inten    --      0.0515                 0.1749                 0.4073

                      4                      5                      6
                      A                      A                      A
 Frequencies --    177.1815               233.5872               241.0428
 Red. masses --      6.7618                 1.7939                 1.6162
 Frc consts  --      0.1251                 0.0577                 0.0553
 IR Inten    --      3.5626                 0.4736                 0.1650

                      7                      8                      9
                      A                      A                      A
 Frequencies --    264.1070               282.3635               294.2409
 Red. masses --      2.5491                 1.1322                 1.3091
 Frc consts  --      0.1048                 0.0532                 0.0668
 IR Inten    --      1.5442                 0.1013                 3.0923

                     10                     11                     12
                      A                      A                      A
 Frequencies --    307.5124               315.7102               371.4124
 Red. masses --      2.4069                 3.7560                 2.8934
 Frc consts  --      0.1341                 0.2206                 0.2352
 IR Inten    --      2.7838                 2.8533                 3.3868

                     13                     14                     15
                      A                      A                      A
 Frequencies --    401.2430               411.7349               449.6331
 Red. masses --      2.4550                 2.5350                 1.6821
 Frc consts  --      0.2329                 0.2532                 0.2004
 IR Inten    --      0.6305                 3.0704                 5.7997

                     16                     17                     18
                      A                      A                      A
 Frequencies --    506.8897               512.9623               522.8604
 Red. masses --      4.4545                 6.1803                 1.2485
 Frc consts  --      0.6743                 0.9581                 0.2011
 IR Inten    --     21.5891                 4.1790               206.6156

                     19                     20                     21
                      A                      A                      A
 Frequencies --    561.0794               697.0892               744.9729
 Red. masses --      3.4419                 5.3431                 7.4471
 Frc consts  --      0.6384                 1.5297                 2.4351
 IR Inten    --     10.1702                 0.8389                 2.0757

                     22                     23                     24
                      A                      A                      A
 Frequencies --    760.5465               814.2448               947.8781
 Red. masses --      8.0586                 3.0872                 1.6628
 Frc consts  --      2.7464                 1.2059                 0.8802
 IR Inten    --      9.0484                 1.7714                 0.1853

                     25                     26                     27
                      A                      A                      A
 Frequencies --    955.8118               987.3971               991.0296
 Red. masses --      1.6245                 1.2367                 5.6019
 Frc consts  --      0.8744                 0.7104                 3.2416
 IR Inten    --      1.2729                 0.5840                14.8019

                     28                     29                     30
                      A                      A                      A
 Frequencies --   1013.1033              1059.0405              1062.7937
 Red. masses --      4.0571                 1.4335                 1.4064
 Frc consts  --      2.4534                 0.9473                 0.9360
 IR Inten    --     33.0308                 2.1247                 0.3876

                     31                     32                     33
                      A                      A                      A
 Frequencies --   1085.7072              1189.0151              1207.8087
 Red. masses --      3.7568                 2.2670                 1.9556
 Frc consts  --      2.6091                 1.8883                 1.6809
 IR Inten    --     16.1702                35.7927                53.3985

                     34                     35                     36
                      A                      A                      A
 Frequencies --   1262.9994              1268.2595              1275.9985
 Red. masses --      2.6576                 2.7153                 6.7948
 Frc consts  --      2.4977                 2.5732                 6.5182
 IR Inten    --      2.6828                 1.1483                46.2797

                     37                     38                     39
                      A                      A                      A
 Frequencies --   1392.4957              1427.5117              1429.8185
 Red. masses --      1.6146                 2.8563                 1.2829
 Frc consts  --      1.8446                 3.4294                 1.5453
 IR Inten    --      5.5558                92.5083                 3.8456

                     40                     41                     42
                      A                      A                      A
 Frequencies --   1432.9563              1459.5235              1504.7952
 Red. masses --      1.2402                 1.2163                 1.0464
 Frc consts  --      1.5004                 1.5265                 1.3961
 IR Inten    --      7.6234                 2.7254                 0.4443

                     43                     44                     45
                      A                      A                      A
 Frequencies --   1516.1467              1516.9517              1529.2175
 Red. masses --      1.0485                 1.0461                 1.0610
 Frc consts  --      1.4200                 1.4183                 1.4619
 IR Inten    --      0.3768                 0.8478                 5.9955

                     46                     47                     48
                      A                      A                      A
 Frequencies --   1532.2644              1546.0231              1566.4696
 Red. masses --      1.0522                 1.0509                 6.4358
 Frc consts  --      1.4555                 1.4800                 9.3046
 IR Inten    --      6.6608                 9.1962                16.6229

                     49                     50                     51
                      A                      A                      A
 Frequencies --   1868.6426              3045.1504              3048.5616
 Red. masses --      9.8955                 1.0401                 1.0363
 Frc consts  --     20.3583                 5.6823                 5.6744
 IR Inten    --    761.1131                18.1261                16.3000

                     52                     53                     54
                      A                      A                      A
 Frequencies --   3054.8688              3113.9843              3117.7814
 Red. masses --      1.0373                 1.0987                 1.0995
 Frc consts  --      5.7033                 6.2773                 6.2969
 IR Inten    --     35.2300                11.1188                 2.8625

                     55                     56                     57
                      A                      A                      A
 Frequencies --   3122.8258              3130.3519              3136.6336
 Red. masses --      1.0978                 1.1034                 1.1034
 Frc consts  --      6.3077                 6.3707                 6.3959
 IR Inten    --     39.3838                16.0078                21.3091

                     58                     59                     60
                      A                      A                      A
 Frequencies --   3149.6041              3681.9668              3683.3526
 Red. masses --      1.1028                 1.0816                 1.0814
 Frc consts  --      6.4457                 8.6395                 8.6438
 IR Inten    --     11.8266                52.3394               109.8532

 - Thermochemistry -
 -------------------
 Temperature   298.150 Kelvin.  Pressure   1.00000 Atm.
 Atom     1 has atomic number  6 and mass  12.00000

 Molecular mass:   173.06228 amu.
 Principal axes and moments of inertia in atomic units:
                           1         2         3
     Eigenvalues --   836.749993339.611433403.07671
           X            0.99988   0.00678  -0.01362
           Y           -0.00585   0.99770   0.06755
           Z            0.01405  -0.06746   0.99762
 This molecule is an asymmetric top.
 Rotational symmetry number  1.
 Warning -- assumption of classical behavior for rotation
           may cause significant error
 Rotational temperatures (Kelvin)      0.10351     0.02594     0.02545
 Rotational constants (GHZ):           2.15685     0.54040     0.53033
 Zero-point vibrational energy     468659.6 (Joules/Mol)
                                  112.01234 (Kcal/Mol)
 Warning -- explicit consideration of  19 degrees of freedom as
           vibrations may cause significant error
 Vibrational temperatures:     39.53    79.92   123.15   254.92   336.08
          (Kelvin)            346.81   379.99   406.26   423.35   442.44
                              454.24   534.38   577.30   592.39   646.92
                              729.30   738.04   752.28   807.27  1002.96
                             1071.85  1094.26  1171.52  1363.79  1375.20
                             1420.64  1425.87  1457.63  1523.72  1529.12
                             1562.09  1710.73  1737.77  1817.17  1824.74
                             1835.88  2003.49  2053.87  2057.19  2061.70
                             2099.93  2165.06  2181.40  2182.56  2200.20
                             2204.59  2224.38  2253.80  2688.56  4381.29
                             4386.20  4395.27  4480.33  4485.79  4493.05
                             4503.88  4512.92  4531.58  5297.53  5299.52

 Zero-point correction=                           0.178503 (Hartree/Particle)
 Thermal correction to Energy=                    0.190389
 Thermal correction to Enthalpy=                  0.191333
 Thermal correction to Gibbs Free Energy=         0.140079
 Sum of electronic and zero-point Energies=           -872.797722
 Sum of electronic and thermal Energies=              -872.785836
 Sum of electronic and thermal Enthalpies=            -872.784892
 Sum of electronic and thermal Free Energies=         -872.836146

                     E (Thermal)             CV                S
                      KCal/Mol        Cal/Mol-Kelvin    Cal/Mol-Kelvin
 Total                  119.471             44.061            107.873
 Electronic               0.000              0.000              0.000
 Translational            0.889              2.981             41.353
 Rotational               0.889              2.981             30.631
 Vibrational            117.693             38.099             35.889
 Vibration     1          0.593              1.984              6.004
 Vibration     2          0.596              1.975              4.609
 Vibration     3          0.601              1.959              3.758
 Vibration     4          0.628              1.870              2.358
 Vibration     5          0.654              1.790              1.851
 Vibration     6          0.658              1.778              1.795
 Vibration     7          0.671              1.739              1.634
 Vibration     8          0.681              1.706              1.519
 Vibration     9          0.689              1.684              1.449
 Vibration    10          0.697              1.659              1.376
 Vibration    11          0.703              1.644              1.332
 Vibration    12          0.743              1.531              1.074
 Vibration    13          0.767              1.467              0.958
 Vibration    14          0.776              1.445              0.921
 Vibration    15          0.809              1.362              0.797
 Vibration    16          0.862              1.235              0.641
 Vibration    17          0.868              1.221              0.626
 Vibration    18          0.878              1.199              0.603
 Vibration    19          0.917              1.116              0.522

                           ! Non-Optimized Parameters !
 Normal termination of Gaussian 16 at Tue Dec  8 21:45:02 2020.

 ----------------------------------------------------------------------
 # B3LYP/6-311++G(d,p) empiricaldispersion=gd3bj scf=xqc pop=npa geom=c
 heck
 ----------------------------------------------------------------------

 ---------------------------------------
 CID_137046124_JID_1916_Energie_neutraal
 ---------------------------------------
 Structure from the checkpoint file:  "JID_1916.chk"
 Charge =  0 Multiplicity = 1

 SCF Done:  E(RB3LYP) =  -873.145111651     A.U. after   14 cycles
 Normal termination of Gaussian 16 at Tue Dec  8 21:47:27 2020.

 ----------------------------------------------------------------------
 # B3LYP/6-311++G(d,p) empiricaldispersion=gd3bj scf=xqc pop=npa geom=c
 heck
 ----------------------------------------------------------------------

 -------------------------------------
 CID_137046124_JID_1916_Energie_kation
 -------------------------------------
 Structure from the checkpoint file:  "JID_1916.chk"
 Charge =  1 Multiplicity = 2

 SCF Done:  E(UB3LYP) =  -872.830942833     A.U. after   24 cycles
 Normal termination of Gaussian 16 at Tue Dec  8 21:51:33 2020.
 Gaussian 16:  ES64L-G16RevA.03 25-Dec-2016

 ----------------------------------------------------------------------
 # B3LYP/6-311++G(d,p) empiricaldispersion=gd3bj scf=xqc pop=npa geom=c
 heck
 ----------------------------------------------------------------------

 ------------------------------------
 CID_137046124_JID_1916_Energie_anion
 ------------------------------------
 Structure from the checkpoint file:  "JID_1916.chk"
 Charge = -1 Multiplicity = 2

                         Standard orientation:
 ---------------------------------------------------------------------
 Center     Atomic      Atomic             Coordinates (Angstroms)
 Number     Number       Type             X           Y           Z
 ---------------------------------------------------------------------
      1          6           0       -3.402886   -0.523197   -0.176288
      2          6           0       -2.025430   -0.060732    0.312147
      3          6           0       -2.079298    1.378205    0.828398
      4          6           0       -1.476429   -1.011447    1.377319
      5         16           0       -0.952146   -0.133187   -1.240276
      6          6           0        0.647045    0.171759   -0.580450
      7          7           0        1.129903    1.340046   -0.253676
      8          7           0        2.392559    1.065667    0.218057
      9          6           0        2.746841   -0.273532    0.171055
     10          8           0        3.785551   -0.818385    0.493730
     11          7           0        1.570585   -0.830155   -0.345714
     12          1           0       -4.113502   -0.479229    0.657263
     13          1           0       -3.373229   -1.553415   -0.545582
     14          1           0       -3.781922    0.123177   -0.975009
     15          1           0       -2.705317    1.420374    1.729105
     16          1           0       -1.081143    1.744784    1.081930
     17          1           0       -2.506985    2.048702    0.077292
     18          1           0       -1.417089   -2.038273    1.003005
     19          1           0       -0.481624   -0.705122    1.714867
     20          1           0       -2.141230   -1.002605    2.250036
     21          1           0        2.998793    1.818136    0.505514
     22          1           0        1.442799   -1.813706   -0.527589
 ---------------------------------------------------------------------

 SCF Done:  E(UB3LYP) =  -873.134254632     A.U. after   32 cycles

 The electronic state is 2-A.
 Alpha  occ. eigenvalues --  -88.74866 -18.99541 -14.28173 -14.26789 -14.24822
 Alpha  occ. eigenvalues --  -10.20792 -10.16465 -10.11673 -10.06667 -10.05962
 Alpha  occ. eigenvalues --  -10.05600  -7.83510  -5.79930  -5.79514  -5.78859
 Alpha  occ. eigenvalues --   -0.99333  -0.92680  -0.82881  -0.74927  -0.72333
 Alpha  occ. eigenvalues --   -0.63180  -0.59458  -0.58897  -0.56844  -0.51849
 Alpha  occ. eigenvalues --   -0.46026  -0.43500  -0.41254  -0.39046  -0.36794
 Alpha  occ. eigenvalues --   -0.34598  -0.34382  -0.34121  -0.30531  -0.29132
 Alpha  occ. eigenvalues --   -0.27921  -0.27141  -0.26994  -0.24535  -0.24380
 Alpha  occ. eigenvalues --   -0.23782  -0.23377  -0.20730  -0.17796  -0.14778
 Alpha  occ. eigenvalues --   -0.13247   0.04493
 Alpha virt. eigenvalues --    0.06888   0.07506   0.07747   0.08934   0.09531
 Alpha virt. eigenvalues --    0.10546   0.11013   0.11595   0.11898   0.13249
 Alpha virt. eigenvalues --    0.13447   0.14159   0.14254   0.14561   0.15438

  Beta  occ. eigenvalues --  -88.74852 -18.99541 -14.28132 -14.26739 -14.24750
  Beta  occ. eigenvalues --  -10.20795 -10.16435 -10.11599 -10.06638 -10.05925
  Beta  occ. eigenvalues --  -10.05571  -7.83492  -5.79905  -5.79506  -5.78844
  Beta  occ. eigenvalues --   -0.99280  -0.92657  -0.82784  -0.74827  -0.72237
  Beta  occ. eigenvalues --   -0.63078  -0.59395  -0.58833  -0.56768  -0.51751
  Beta  occ. eigenvalues --   -0.45935  -0.43394  -0.41191  -0.38916  -0.36715
  Beta  occ. eigenvalues --   -0.34551  -0.34322  -0.34107  -0.30466  -0.29086
  Beta  occ. eigenvalues --   -0.27834  -0.27058  -0.26921  -0.24466  -0.24321
  Beta  occ. eigenvalues --   -0.23610  -0.23305  -0.20621  -0.17757  -0.14711
  Beta  occ. eigenvalues --   -0.13074
  Beta virt. eigenvalues --    0.07005   0.07759   0.08036   0.08848   0.09672
  Beta virt. eigenvalues --    0.10118   0.11176   0.11436   0.11963   0.12235
  Beta virt. eigenvalues --    0.13530   0.13599   0.14298   0.14487   0.14983

 Mulliken charges and spin densities:
               1          2
     1  C    0.155862  -0.753160
     2  C   -1.294716   2.083980
     3  C    0.642515  -1.357128
     4  C    0.935725  -1.632354
     5  S    0.287676  -0.544620
     6  C    0.499066  -0.760551
     7  N    0.122198  -0.111832
     8  N   -0.312303   0.133625
     9  C    0.468307  -0.156389
    10  O   -0.438496   0.011500
    11  N   -0.255456   0.140760
    12  H   -0.408249   0.570171
    13  H   -0.180882   0.333510
    14  H   -0.033819   0.176569
    15  H   -0.275233   0.422377
    16  H    0.003653   0.183634
    17  H   -0.045348   0.175635
    18  H   -0.158888   0.317716
    19  H   -0.267293   0.473454
    20  H   -0.371788   0.536533
    21  H   -0.013177   0.361558
    22  H   -0.059353   0.395011
 Sum of Mulliken charges =  -1.00000   1.00000

 Dipole moment (field-independent basis, Debye):
    X=              2.0430    Y=              1.6529    Z=             -3.5668  Tot=              4.4304
 Quadrupole moment (field-independent basis, Debye-Ang):
   XX=           -144.7738   YY=           -107.0926   ZZ=           -107.4885
   XY=              2.4264   XZ=              8.0476   YZ=              2.1808

 Summary of Natural Population Analysis:

                                       Natural Population
                Natural  -----------------------------------------------
    Atom  No    Charge         Core      Valence    Rydberg      Total
 -----------------------------------------------------------------------
      C    1   -0.29459      0.99960     2.28677    0.00823     3.29459
      C    2   -0.07143      0.99958     2.05651    0.01534     3.07143
      C    3   -0.29463      0.99958     2.28667    0.00838     3.29463
      C    4   -0.29493      0.99959     2.28505    0.01029     3.29493
      S    5    0.11185      4.99949     2.87148    0.01717     7.88815
      C    6    0.10797      0.99960     1.86987    0.02256     2.89203
      N    7   -0.14835      0.99965     2.63511    0.01359     3.64835
      N    8   -0.21766      0.99968     2.70655    0.01143     3.71766
      C    9    0.38039      0.99970     1.59695    0.02296     2.61961
      O   10   -0.33230      0.99987     3.32652    0.00590     4.33230
      N   11   -0.31007      0.99963     2.80085    0.00959     3.81007
      H   12    0.11029      0.00000     0.38763    0.00208     0.38971
      H   13    0.10404      0.00000     0.39487    0.00109     0.39596
      H   14    0.10131      0.00000     0.39775    0.00094     0.39869
      H   15    0.10431      0.00000     0.39381    0.00188     0.39569
      H   16    0.11012      0.00000     0.38818    0.00170     0.38988
      H   17    0.10087      0.00000     0.39807    0.00105     0.39913
      H   18    0.10407      0.00000     0.39433    0.00160     0.39593
      H   19    0.10310      0.00000     0.39515    0.00175     0.39690
      H   20    0.10832      0.00000     0.38906    0.00261     0.39168
      H   21    0.20276      0.00000     0.29439    0.00285     0.29724
      H   22    0.21454      0.00000     0.28198    0.00347     0.28546
 =======================================================================
   * Total *    0.00000     14.99597    30.83755    0.16647    46.00000

 Normal termination of Gaussian 16 at Tue Dec  8 21:56:34 2020.
