 Gaussian 16, Revision A.03,

 -----------------------------------------------------------
 # opt freq B3LYP/6-31G(d) empiricaldispersion=gd3bj scf=xqc
 -----------------------------------------------------------

 ------------------------------
 CID_58112074_JID_6493_neutraal
 ------------------------------
 Symbolic Z-matrix:
 Charge =  0 Multiplicity = 1

 SCF Done:  E(RB3LYP) =  -1426.21181744     A.U. after   15 cycles
 SCF Done:  E(RB3LYP) =  -1426.21683863     A.U. after   12 cycles
 SCF Done:  E(RB3LYP) =  -1426.21728689     A.U. after   11 cycles
 SCF Done:  E(RB3LYP) =  -1426.21735053     A.U. after   12 cycles
 SCF Done:  E(RB3LYP) =  -1426.21738546     A.U. after   11 cycles
 SCF Done:  E(RB3LYP) =  -1426.21740936     A.U. after   10 cycles
 SCF Done:  E(RB3LYP) =  -1426.21742990     A.U. after   11 cycles
 SCF Done:  E(RB3LYP) =  -1426.21744654     A.U. after   11 cycles
 SCF Done:  E(RB3LYP) =  -1426.21745622     A.U. after   11 cycles
 SCF Done:  E(RB3LYP) =  -1426.21746727     A.U. after   11 cycles
 SCF Done:  E(RB3LYP) =  -1426.21747325     A.U. after    9 cycles
 SCF Done:  E(RB3LYP) =  -1426.21747396     A.U. after    8 cycles
 SCF Done:  E(RB3LYP) =  -1426.21747471     A.U. after    8 cycles
 SCF Done:  E(RB3LYP) =  -1426.21747503     A.U. after    8 cycles
 SCF Done:  E(RB3LYP) =  -1426.21747523     A.U. after    8 cycles
 SCF Done:  E(RB3LYP) =  -1426.21747529     A.U. after    7 cycles
 Optimization completed.
    -- Stationary point found.
 Normal termination of Gaussian 16 at Thu Dec 10 23:13:38 2020.

 --------------------------------------------------------------------
 #N Geom=AllCheck Guess=TCheck SCRF=Check GenChk RB3LYP/6-31G(d) Freq
 --------------------------------------------------------------------

 Structure from the checkpoint file:  "JID_6493.chk"
 ------------------------------
 CID_58112074_JID_6493_neutraal
 ------------------------------
 Charge =  0 Multiplicity = 1

 SCF Done:  E(RB3LYP) =  -1426.21747529     A.U. after    1 cycles

  Exact polarizability: 373.271  -3.887 155.873  -0.003   0.007  66.806
 Approx polarizability: 523.453  -6.947 309.621   0.024   0.026 107.002

                      1                      2                      3
                      A                      A                      A
 Frequencies --     14.4487                37.9703                50.0432
 Red. masses --      5.0973                 8.6935                 6.7802
 Frc consts  --      0.0006                 0.0074                 0.0100
 IR Inten    --      1.0766                 0.7074                 0.8956

                      4                      5                      6
                      A                      A                      A
 Frequencies --     63.7231                80.1224                87.4784
 Red. masses --      1.1840                 2.9736                 9.1846
 Frc consts  --      0.0028                 0.0112                 0.0414
 IR Inten    --      0.5741                 0.2854                 0.0548

                      7                      8                      9
                      A                      A                      A
 Frequencies --    138.2972               145.6993               181.4862
 Red. masses --      7.4106                 3.6637                 8.9072
 Frc consts  --      0.0835                 0.0458                 0.1729
 IR Inten    --      1.3854                 0.1059                 0.0966

                     10                     11                     12
                      A                      A                      A
 Frequencies --    226.5577               232.5361               257.8520
 Red. masses --      5.2928                 3.0642                 3.6283
 Frc consts  --      0.1601                 0.0976                 0.1421
 IR Inten    --      0.9181                 4.0994                 0.0030

                     13                     14                     15
                      A                      A                      A
 Frequencies --    321.1802               325.6628               388.8131
 Red. masses --      6.4679                 3.9686                10.2271
 Frc consts  --      0.3931                 0.2480                 0.9109
 IR Inten    --      0.0005                 2.0248                29.8992

                     16                     17                     18
                      A                      A                      A
 Frequencies --    441.6121               482.4304               490.9148
 Red. masses --      6.8634                 3.6747                 6.8820
 Frc consts  --      0.7886                 0.5039                 0.9772
 IR Inten    --      0.8145                21.0916                 2.9392

                     19                     20                     21
                      A                      A                      A
 Frequencies --    522.3044               570.1165               575.1529
 Red. masses --      3.8958                 8.0829                 1.9508
 Frc consts  --      0.6262                 1.5479                 0.3802
 IR Inten    --      5.9035                 1.0993                24.7281

                     22                     23                     24
                      A                      A                      A
 Frequencies --    600.2979               613.9788               649.2774
 Red. masses --      1.8432                 5.8814                 5.0310
 Frc consts  --      0.3913                 1.3063                 1.2496
 IR Inten    --     43.2986                12.0614                17.8905

                     25                     26                     27
                      A                      A                      A
 Frequencies --    672.0075               687.3007               712.0911
 Red. masses --      7.2194                 3.8017                 4.8008
 Frc consts  --      1.9209                 1.0581                 1.4343
 IR Inten    --     48.1295                 0.2457                37.0259

                     28                     29                     30
                      A                      A                      A
 Frequencies --    740.5854               754.9889               762.3476
 Red. masses --      1.4666                 5.2265                 6.5851
 Frc consts  --      0.4739                 1.7553                 2.2548
 IR Inten    --     32.8238                59.8711                 3.6675

                     31                     32                     33
                      A                      A                      A
 Frequencies --    817.1018               831.0295               872.9691
 Red. masses --      1.3883                 5.2137                 2.1983
 Frc consts  --      0.5461                 2.1214                 0.9870
 IR Inten    --     16.4072                 8.6636                 0.0241

                     34                     35                     36
                      A                      A                      A
 Frequencies --    892.8237               920.0084               991.7742
 Red. masses --      3.9931                 1.4117                 2.6581
 Frc consts  --      1.8754                 0.7040                 1.5405
 IR Inten    --      8.8582                 0.4043                17.0460

                     37                     38                     39
                      A                      A                      A
 Frequencies --    999.8229              1032.6613              1042.5970
 Red. masses --      1.0988                 2.4470                 2.4706
 Frc consts  --      0.6472                 1.5374                 1.5823
 IR Inten    --     28.8248                 7.7604                36.2773

                     40                     41                     42
                      A                      A                      A
 Frequencies --   1064.8832              1104.8922              1155.6073
 Red. masses --      1.4138                 2.6461                 2.2546
 Frc consts  --      0.9446                 1.9032                 1.7739
 IR Inten    --      0.7372               154.0173                44.2299

                     43                     44                     45
                      A                      A                      A
 Frequencies --   1182.9178              1213.8847              1225.9174
 Red. masses --      2.4914                 2.2937                 1.7879
 Frc consts  --      2.0540                 1.9913                 1.5831
 IR Inten    --     65.1348                 8.4353               496.4032

                     46                     47                     48
                      A                      A                      A
 Frequencies --   1260.3319              1270.8351              1350.5475
 Red. masses --      1.8694                 1.7625                 1.5113
 Frc consts  --      1.7496                 1.6771                 1.6241
 IR Inten    --      1.3506                 7.4376                22.3827

                     49                     50                     51
                      A                      A                      A
 Frequencies --   1381.9038              1393.6218              1414.0773
 Red. masses --      3.3812                 2.4189                 2.9357
 Frc consts  --      3.8044                 2.7680                 3.4587
 IR Inten    --     75.2607                68.8565               121.5335

                     52                     53                     54
                      A                      A                      A
 Frequencies --   1434.6105              1493.4037              1505.5333
 Red. masses --      1.2663                 6.0852                 1.1312
 Frc consts  --      1.5355                 7.9961                 1.5107
 IR Inten    --      1.3682               303.3034                10.5038

                     55                     56                     57
                      A                      A                      A
 Frequencies --   1507.5391              1542.4042              1584.5136
 Red. masses --      1.0428                 6.9666                 5.3905
 Frc consts  --      1.3964                 9.7649                 7.9739
 IR Inten    --      9.6586                 6.3748                27.0739

                     58                     59                     60
                      A                      A                      A
 Frequencies --   1588.0852              1692.8067              1806.1901
 Red. masses --      5.9045                 5.1329                 9.6586
 Frc consts  --      8.7737                 8.6663                18.5648
 IR Inten    --     10.0111                22.7879               496.9943

                     61                     62                     63
                      A                      A                      A
 Frequencies --   3058.7580              3114.6549              3161.3916
 Red. masses --      1.0371                 1.1017                 1.1010
 Frc consts  --      5.7169                 6.2970                 6.4832
 IR Inten    --     19.4495                 9.6369                 3.4691

                     64                     65                     66
                      A                      A                      A
 Frequencies --   3168.5788              3198.9679              3229.2202
 Red. masses --      1.0893                 1.0879                 1.0899
 Frc consts  --      6.4438                 6.5590                 6.6963
 IR Inten    --     10.1490                11.8136                 4.8959

                     67                     68                     69
                      A                      A                      A
 Frequencies --   3248.7466              3278.2976              3702.7267
 Red. masses --      1.0965                 1.0938                 1.0642
 Frc consts  --      6.8187                 6.9258                 8.5961
 IR Inten    --      1.6763                 2.8088               114.0902

 - Thermochemistry -
 -------------------
 Temperature   298.150 Kelvin.  Pressure   1.00000 Atm.
 Atom     1 has atomic number  6 and mass  12.00000

 Molecular mass:   251.00747 amu.
 Principal axes and moments of inertia in atomic units:
                           1         2         3
     Eigenvalues --   957.14944********************
           X            1.00000   0.00269  -0.00001
           Y           -0.00269   1.00000  -0.00002
           Z            0.00001   0.00002   1.00000
 This molecule is an asymmetric top.
 Rotational symmetry number  1.
 Warning -- assumption of classical behavior for rotation
           may cause significant error
 Rotational temperatures (Kelvin)      0.09049     0.00610     0.00572
 Rotational constants (GHZ):           1.88554     0.12720     0.11925
 Zero-point vibrational energy     469916.6 (Joules/Mol)
                                  112.31275 (Kcal/Mol)
 Warning -- explicit consideration of  23 degrees of freedom as
           vibrations may cause significant error
 Vibrational temperatures:     20.79    54.63    72.00    91.68   115.28
          (Kelvin)            125.86   198.98   209.63   261.12   325.97
                              334.57   370.99   462.11   468.56   559.42
                              635.38   694.11   706.32   751.48   820.27
                              827.52   863.69   883.38   934.17   966.87
                              988.87  1024.54  1065.54  1086.26  1096.85
                             1175.63  1195.67  1256.01  1284.57  1323.69
                             1426.94  1438.52  1485.77  1500.06  1532.13
                             1589.69  1662.66  1701.95  1746.51  1763.82
                             1813.34  1828.45  1943.14  1988.25  2005.11
                             2034.54  2064.08  2148.67  2166.13  2169.01
                             2219.18  2279.76  2284.90  2435.57  2598.70
                             4400.87  4481.29  4548.54  4558.88  4602.60
                             4646.13  4674.22  4716.74  5327.40

 Zero-point correction=                           0.178982 (Hartree/Particle)
 Thermal correction to Energy=                    0.194314
 Thermal correction to Enthalpy=                  0.195258
 Thermal correction to Gibbs Free Energy=         0.133068
 Sum of electronic and zero-point Energies=          -1426.038494
 Sum of electronic and thermal Energies=             -1426.023161
 Sum of electronic and thermal Enthalpies=           -1426.022217
 Sum of electronic and thermal Free Energies=        -1426.084408

                     E (Thermal)             CV                S
                      KCal/Mol        Cal/Mol-Kelvin    Cal/Mol-Kelvin
 Total                  121.934             55.544            130.891
 Electronic               0.000              0.000              0.000
 Translational            0.889              2.981             42.461
 Rotational               0.889              2.981             33.685
 Vibrational            120.157             49.582             54.745
 Vibration     1          0.593              1.986              7.280
 Vibration     2          0.594              1.982              5.362
 Vibration     3          0.595              1.978              4.816
 Vibration     4          0.597              1.972              4.338
 Vibration     5          0.600              1.963              3.888
 Vibration     6          0.601              1.958              3.716
 Vibration     7          0.614              1.915              2.827
 Vibration     8          0.617              1.907              2.728
 Vibration     9          0.630              1.865              2.313
 Vibration    10          0.650              1.801              1.906
 Vibration    11          0.653              1.791              1.859
 Vibration    12          0.667              1.749              1.676
 Vibration    13          0.707              1.633              1.304
 Vibration    14          0.710              1.624              1.282
 Vibration    15          0.757              1.494              1.005
 Vibration    16          0.801              1.379              0.822
 Vibration    17          0.839              1.289              0.704
 Vibration    18          0.847              1.270              0.681
 Vibration    19          0.877              1.201              0.605
 Vibration    20          0.926              1.096              0.504
 Vibration    21          0.932              1.085              0.494
 Vibration    22          0.958              1.031              0.449
 Vibration    23          0.973              1.002              0.426

                           ! Non-Optimized Parameters !
 Normal termination of Gaussian 16 at Thu Dec 10 23:19:34 2020.

 ----------------------------------------------------------------------
 # B3LYP/6-311++G(d,p) empiricaldispersion=gd3bj scf=xqc pop=npa geom=c
 heck
 ----------------------------------------------------------------------

 --------------------------------------
 CID_58112074_JID_6493_Energie_neutraal
 --------------------------------------
 Structure from the checkpoint file:  "JID_6493.chk"
 Charge =  0 Multiplicity = 1

 SCF Done:  E(RB3LYP) =  -1426.44851063     A.U. after   16 cycles
 Normal termination of Gaussian 16 at Thu Dec 10 23:22:03 2020.

 ----------------------------------------------------------------------
 # B3LYP/6-311++G(d,p) empiricaldispersion=gd3bj scf=xqc pop=npa geom=c
 heck
 ----------------------------------------------------------------------

 ------------------------------------
 CID_58112074_JID_6493_Energie_kation
 ------------------------------------
 Structure from the checkpoint file:  "JID_6493.chk"
 Charge =  1 Multiplicity = 2

 SCF Done:  E(UB3LYP) =  -1426.17508390     A.U. after   23 cycles
 Normal termination of Gaussian 16 at Thu Dec 10 23:27:06 2020.
 Gaussian 16:  ES64L-G16RevA.03 25-Dec-2016

 ----------------------------------------------------------------------
 # B3LYP/6-311++G(d,p) empiricaldispersion=gd3bj scf=xqc pop=npa geom=c
 heck
 ----------------------------------------------------------------------

 -----------------------------------
 CID_58112074_JID_6493_Energie_anion
 -----------------------------------
 Structure from the checkpoint file:  "JID_6493.chk"
 Charge = -1 Multiplicity = 2

                         Standard orientation:
 ---------------------------------------------------------------------
 Center     Atomic      Atomic             Coordinates (Angstroms)
 Number     Number       Type             X           Y           Z
 ---------------------------------------------------------------------
      1          6           0        6.055051    1.359612   -0.001740
      2          6           0        4.798283    0.547551   -0.000332
      3          7           0        3.599622    1.044077   -0.000451
      4          6           0        2.620943    0.056689    0.000290
      5          6           0        3.111973   -1.228817    0.001071
      6         16           0        4.839453   -1.220519    0.000756
      7          6           0        1.232368    0.484487    0.000315
      8          6           0        0.150394   -0.323706    0.000018
      9          6           0       -1.221557    0.133076    0.000237
     10          6           0       -1.730448    1.425126    0.001112
     11          6           0       -3.139756    1.466482    0.001006
     12          6           0       -3.717589    0.212328    0.000035
     13         16           0       -2.512912   -1.042206   -0.000695
     14          6           0       -5.128831   -0.157000   -0.000366
     15          8           0       -5.553916   -1.297574   -0.001141
     16          8           0       -5.946295    0.930188    0.000309
     17          1           0        6.670198    1.147397    0.879828
     18          1           0        6.663045    1.154908   -0.890082
     19          1           0        5.783838    2.417459    0.003650
     20          1           0        2.560820   -2.158265    0.002013
     21          1           0        1.107011    1.563769    0.000528
     22          1           0        0.293630   -1.402562   -0.000446
     23          1           0       -1.102411    2.308274    0.001842
     24          1           0       -3.728483    2.375855    0.001617
     25          1           0       -6.852954    0.572339    0.000021
 ---------------------------------------------------------------------

 SCF Done:  E(UB3LYP) =  -1426.48795087     A.U. after   23 cycles

 The electronic state is 2-A.
 Alpha  occ. eigenvalues --  -88.76536 -88.73350 -19.04869 -18.97665 -14.20268
 Alpha  occ. eigenvalues --  -10.16934 -10.13110 -10.09380 -10.08473 -10.07025
 Alpha  occ. eigenvalues --  -10.06827 -10.06157 -10.05372 -10.04089 -10.04069
 Alpha  occ. eigenvalues --  -10.03292  -7.85201  -7.82037  -5.81470  -5.81130
 Alpha  occ. eigenvalues --   -5.80832  -5.78329  -5.77976  -5.77646  -0.98402
 Alpha  occ. eigenvalues --   -0.89046  -0.85199  -0.75280  -0.68866  -0.68403
 Alpha  occ. eigenvalues --   -0.65867  -0.61665  -0.60803  -0.57407  -0.52264
 Alpha  occ. eigenvalues --   -0.49515  -0.45742  -0.43750  -0.42399  -0.40483
 Alpha  occ. eigenvalues --   -0.38080  -0.36924  -0.35836  -0.35093  -0.34364
 Alpha  occ. eigenvalues --   -0.32974  -0.32298  -0.30270  -0.29077  -0.28716
 Alpha  occ. eigenvalues --   -0.27986  -0.27252  -0.26415  -0.25604  -0.24459
 Alpha  occ. eigenvalues --   -0.22652  -0.21307  -0.20721  -0.19088  -0.17480
 Alpha  occ. eigenvalues --   -0.16878  -0.15830  -0.13769  -0.12901  -0.08007
 Alpha  occ. eigenvalues --    0.01259
 Alpha virt. eigenvalues --    0.06546   0.07166   0.08062   0.09013   0.09745
 Alpha virt. eigenvalues --    0.09989   0.10256   0.11250   0.11470   0.11985
 Alpha virt. eigenvalues --    0.12667   0.13105   0.13983   0.14096   0.14911

  Beta  occ. eigenvalues --  -88.76502 -88.73280 -19.04829 -18.97508 -14.20267
  Beta  occ. eigenvalues --  -10.16817 -10.13132 -10.09379 -10.08530 -10.06840
  Beta  occ. eigenvalues --  -10.06460 -10.05997 -10.05363 -10.04046 -10.04034
  Beta  occ. eigenvalues --  -10.02987  -7.85170  -7.81975  -5.81455  -5.81117
  Beta  occ. eigenvalues --   -5.80714  -5.78295  -5.77943  -5.77422  -0.98243
  Beta  occ. eigenvalues --   -0.88809  -0.85164  -0.75034  -0.68639  -0.68084
  Beta  occ. eigenvalues --   -0.65577  -0.61296  -0.60548  -0.57137  -0.51813
  Beta  occ. eigenvalues --   -0.49181  -0.45518  -0.43579  -0.42230  -0.40268
  Beta  occ. eigenvalues --   -0.37939  -0.36749  -0.35668  -0.35084  -0.34247
  Beta  occ. eigenvalues --   -0.32270  -0.32199  -0.30154  -0.28914  -0.28316
  Beta  occ. eigenvalues --   -0.27894  -0.27117  -0.26229  -0.24881  -0.24286
  Beta  occ. eigenvalues --   -0.22462  -0.21073  -0.20024  -0.18114  -0.16844
  Beta  occ. eigenvalues --   -0.16699  -0.15663  -0.12694  -0.12018  -0.06531
  Beta virt. eigenvalues --    0.06121   0.06519   0.08061   0.08172   0.09022
  Beta virt. eigenvalues --    0.09722   0.10242   0.10515   0.11453   0.11678
  Beta virt. eigenvalues --    0.11965   0.12691   0.13071   0.13982   0.14252

 Mulliken charges and spin densities:
               1          2
     1  C   -0.098781   0.013319
     2  C    0.477957  -0.011100
     3  N    0.119265  -0.000025
     4  C   -1.297208  -0.066336
     5  C    0.900547   0.286977
     6  S   -0.618768   0.055685
     7  C   -0.568989   0.239933
     8  C   -0.641479   0.009211
     9  C    0.699240   0.103373
    10  C    0.212264   0.056034
    11  C    0.023674   0.043269
    12  C   -0.601993   0.049156
    13  S   -0.708918   0.107697
    14  C    0.230720   0.088949
    15  O   -0.398983   0.055648
    16  O   -0.212864   0.009415
    17  H    0.142097   0.002981
    18  H    0.142593   0.002945
    19  H    0.159336  -0.000163
    20  H    0.288968  -0.014487
    21  H    0.139816  -0.018362
    22  H    0.071791  -0.011958
    23  H    0.112938  -0.000730
    24  H    0.160853  -0.001037
    25  H    0.265925  -0.000395
 Sum of Mulliken charges =  -1.00000   1.00000

 Dipole moment (field-independent basis, Debye):
    X=              4.8887    Y=              1.6380    Z=              0.0012  Tot=              5.1558
 Quadrupole moment (field-independent basis, Debye-Ang):
   XX=           -174.0927   YY=           -119.8066   ZZ=           -117.5627
   XY=             -9.2477   XZ=             -0.0141   YZ=             -0.0028

 Summary of Natural Population Analysis:

                                       Natural Population
                Natural  -----------------------------------------------
    Atom  No    Charge         Core      Valence    Rydberg      Total
 -----------------------------------------------------------------------
      C    1   -0.30416      0.99961     2.29947    0.00508     3.30416
      C    2    0.01954      0.99964     1.96439    0.01643     2.98046
      N    3   -0.23866      0.99963     2.72680    0.01222     3.73866
      C    4    0.03002      0.99950     1.95729    0.01319     2.96998
      C    5   -0.12536      0.99949     2.11677    0.00910     3.12536
      S    6    0.17502      4.99944     2.80428    0.02126     7.82498
      C    7   -0.02543      0.99942     2.01654    0.00947     3.02543
      C    8   -0.10130      0.99941     2.09260    0.00928     3.10130
      C    9   -0.06133      0.99951     2.04906    0.01275     3.06133
      C   10   -0.13559      0.99949     2.12705    0.00904     3.13559
      C   11   -0.09910      0.99951     2.09022    0.00936     3.09910
      C   12   -0.14387      0.99945     2.13201    0.01241     3.14387
      S   13    0.24260      4.99941     2.73641    0.02159     7.75740
      C   14    0.39191      0.99959     1.58393    0.02457     2.60809
      O   15   -0.31405      0.99987     3.30654    0.00763     4.31405
      O   16   -0.35146      0.99988     3.34579    0.00579     4.35146
      H   17    0.10196      0.00000     0.39713    0.00092     0.39804
      H   18    0.10198      0.00000     0.39710    0.00092     0.39802
      H   19    0.11147      0.00000     0.38744    0.00109     0.38853
      H   20    0.10522      0.00000     0.39367    0.00111     0.39478
      H   21    0.09325      0.00000     0.40483    0.00193     0.40675
      H   22    0.09007      0.00000     0.40788    0.00205     0.40993
      H   23    0.10074      0.00000     0.39781    0.00145     0.39926
      H   24    0.10444      0.00000     0.39447    0.00109     0.39556
      H   25    0.23209      0.00000     0.26476    0.00314     0.26791
 =======================================================================
   * Total *    0.00000     23.99287    40.79424    0.21289    65.00000

 Normal termination of Gaussian 16 at Thu Dec 10 23:32:19 2020.
