 Gaussian 16, Revision A.03,

 -----------------------------------------------------------
 # opt freq B3LYP/6-31G(d) empiricaldispersion=gd3bj scf=xqc
 -----------------------------------------------------------

 -------------------------------
 CID_130797566_JID_3029_neutraal
 -------------------------------
 Symbolic Z-matrix:
 Charge =  0 Multiplicity = 1

 SCF Done:  E(RB3LYP) =  -918.290754172     A.U. after   15 cycles
 SCF Done:  E(RB3LYP) =  -918.295309264     A.U. after   13 cycles
 SCF Done:  E(RB3LYP) =  -918.296005316     A.U. after   12 cycles
 SCF Done:  E(RB3LYP) =  -918.296363098     A.U. after   12 cycles
 SCF Done:  E(RB3LYP) =  -918.296512073     A.U. after   13 cycles
 SCF Done:  E(RB3LYP) =  -918.296588649     A.U. after   11 cycles
 SCF Done:  E(RB3LYP) =  -918.296637797     A.U. after   12 cycles
 SCF Done:  E(RB3LYP) =  -918.296661938     A.U. after   10 cycles
 SCF Done:  E(RB3LYP) =  -918.296673527     A.U. after   10 cycles
 SCF Done:  E(RB3LYP) =  -918.296678461     A.U. after    9 cycles
 SCF Done:  E(RB3LYP) =  -918.296680112     A.U. after    8 cycles
 SCF Done:  E(RB3LYP) =  -918.296681079     A.U. after    8 cycles
 SCF Done:  E(RB3LYP) =  -918.296681452     A.U. after    8 cycles
 SCF Done:  E(RB3LYP) =  -918.296681502     A.U. after    7 cycles
 Optimization completed.
    -- Stationary point found.
 Normal termination of Gaussian 16 at Wed Dec  9 22:23:22 2020.

 --------------------------------------------------------------------
 #N Geom=AllCheck Guess=TCheck SCRF=Check GenChk RB3LYP/6-31G(d) Freq
 --------------------------------------------------------------------

 Structure from the checkpoint file:  "JID_3029.chk"
 -------------------------------
 CID_130797566_JID_3029_neutraal
 -------------------------------
 Charge =  0 Multiplicity = 1

 SCF Done:  E(RB3LYP) =  -918.296681502     A.U. after    1 cycles

  Exact polarizability: 146.024  -6.963 120.610   1.161   3.561  95.835
 Approx polarizability: 215.807  -7.744 208.578   7.265  17.420 145.054

                      1                      2                      3
                      A                      A                      A
 Frequencies --     37.0431                94.9668               102.9813
 Red. masses --      5.5464                 2.3586                 3.1705
 Frc consts  --      0.0045                 0.0125                 0.0198
 IR Inten    --      1.1571                 0.1341                 0.7498

                      4                      5                      6
                      A                      A                      A
 Frequencies --    141.9065               188.3449               216.5150
 Red. masses --      2.7883                 3.1404                 1.2681
 Frc consts  --      0.0331                 0.0656                 0.0350
 IR Inten    --      0.3696                 0.6026                 0.7406

                      7                      8                      9
                      A                      A                      A
 Frequencies --    247.0310               266.4876               292.8680
 Red. masses --      1.3544                 2.5075                 2.5692
 Frc consts  --      0.0487                 0.1049                 0.1298
 IR Inten    --      0.0860                 3.6717                 2.1611

                     10                     11                     12
                      A                      A                      A
 Frequencies --    307.8106               341.0263               356.7693
 Red. masses --      3.6639                 2.9892                 2.0170
 Frc consts  --      0.2045                 0.2048                 0.1513
 IR Inten    --      1.0007                 1.0801                15.9218

                     13                     14                     15
                      A                      A                      A
 Frequencies --    367.8039               395.1819               407.8836
 Red. masses --      2.0917                 2.0671                 2.3209
 Frc consts  --      0.1667                 0.1902                 0.2275
 IR Inten    --     36.4549                68.8472                18.7945

                     16                     17                     18
                      A                      A                      A
 Frequencies --    475.6334               559.5041               577.9148
 Red. masses --      3.0787                 4.6105                 4.2586
 Frc consts  --      0.4104                 0.8504                 0.8380
 IR Inten    --      6.0077                 9.7632                 7.6079

                     19                     20                     21
                      A                      A                      A
 Frequencies --    587.1655               627.6260               652.6917
 Red. masses --      3.6875                 3.6705                 6.2891
 Frc consts  --      0.7490                 0.8519                 1.5785
 IR Inten    --      3.2048                 0.6946                 1.7669

                     22                     23                     24
                      A                      A                      A
 Frequencies --    699.8526               729.4594               757.1511
 Red. masses --      4.4580                 8.7407                 1.3986
 Frc consts  --      1.2865                 2.7403                 0.4724
 IR Inten    --      3.2305                14.0107                 2.3811

                     25                     26                     27
                      A                      A                      A
 Frequencies --    820.7875               840.5694               848.8885
 Red. masses --      2.2842                 1.6192                 2.0912
 Frc consts  --      0.9067                 0.6741                 0.8879
 IR Inten    --     18.7128                21.0180                 1.5858

                     28                     29                     30
                      A                      A                      A
 Frequencies --    855.9479               908.8037               922.3770
 Red. masses --      2.5169                 2.3655                 1.4242
 Frc consts  --      1.0865                 1.1511                 0.7139
 IR Inten    --      2.3823                 0.0913                 0.7544

                     31                     32                     33
                      A                      A                      A
 Frequencies --    939.1867               963.6053               981.1162
 Red. masses --      2.4290                 1.4610                 1.8721
 Frc consts  --      1.2623                 0.7993                 1.0618
 IR Inten    --      2.4817                 1.4536                 3.1483

                     34                     35                     36
                      A                      A                      A
 Frequencies --   1010.4028              1041.8804              1050.0166
 Red. masses --      1.6246                 1.8021                 2.8312
 Frc consts  --      0.9772                 1.1526                 1.8392
 IR Inten    --      3.3967                 4.0709                 4.8970

                     37                     38                     39
                      A                      A                      A
 Frequencies --   1051.7990              1082.8689              1101.8397
 Red. masses --      2.1743                 1.6680                 2.1115
 Frc consts  --      1.4172                 1.1524                 1.5104
 IR Inten    --     11.9648                 1.9458                37.6055

                     40                     41                     42
                      A                      A                      A
 Frequencies --   1119.2482              1185.2609              1213.2818
 Red. masses --      1.9881                 2.9527                 1.8240
 Frc consts  --      1.4674                 2.4440                 1.5820
 IR Inten    --     32.7140                18.1043                 1.7767

                     43                     44                     45
                      A                      A                      A
 Frequencies --   1250.1162              1258.2555              1269.4240
 Red. masses --      1.8235                 1.7086                 1.4783
 Frc consts  --      1.6791                 1.5938                 1.4036
 IR Inten    --      3.8843                 1.6253                23.9519

                     46                     47                     48
                      A                      A                      A
 Frequencies --   1275.7391              1307.6171              1323.2778
 Red. masses --      1.4482                 1.7673                 1.4765
 Frc consts  --      1.3887                 1.7804                 1.5233
 IR Inten    --      3.9638                11.3362                 2.2096

                     49                     50                     51
                      A                      A                      A
 Frequencies --   1334.2966              1341.8547              1361.9168
 Red. masses --      1.7220                 1.7663                 1.6357
 Frc consts  --      1.8062                 1.8738                 1.7876
 IR Inten    --     23.9741                13.1694                 0.7448

                     52                     53                     54
                      A                      A                      A
 Frequencies --   1379.2849              1434.3044              1454.5465
 Red. masses --      1.6805                 1.2458                 1.2196
 Frc consts  --      1.8836                 1.5100                 1.5203
 IR Inten    --     31.2056                 2.0583                 8.0375

                     55                     56                     57
                      A                      A                      A
 Frequencies --   1480.2644              1513.4298              1514.8975
 Red. masses --      5.4297                 1.0487                 1.0599
 Frc consts  --      7.0098                 1.4152                 1.4331
 IR Inten    --     21.5018                 2.3562                 0.4884

                     58                     59                     60
                      A                      A                      A
 Frequencies --   1522.5828              1533.6495              1536.3274
 Red. masses --      1.0693                 1.0588                 1.0648
 Frc consts  --      1.4605                 1.4673                 1.4808
 IR Inten    --      0.7226                 3.0015                15.9435

                     61                     62                     63
                      A                      A                      A
 Frequencies --   1544.0251              1550.4306              1578.8217
 Red. masses --      1.0627                 1.0954                 5.4196
 Frc consts  --      1.4927                 1.5514                 7.9595
 IR Inten    --      2.5735                14.7595                 7.6183

                     64                     65                     66
                      A                      A                      A
 Frequencies --   3036.8959              3060.2501              3065.7623
 Red. masses --      1.0439                 1.0407                 1.0581
 Frc consts  --      5.6724                 5.7423                 5.8593
 IR Inten    --     28.2587                25.3698                19.1855

                     67                     68                     69
                      A                      A                      A
 Frequencies --   3078.5704              3092.3970              3095.1475
 Red. masses --      1.0621                 1.0639                 1.1021
 Frc consts  --      5.9309                 5.9946                 6.2205
 IR Inten    --     27.2442                11.8852                17.5487

                     70                     71                     72
                      A                      A                      A
 Frequencies --   3099.4328              3115.7644              3125.9347
 Red. masses --      1.0942                 1.1048                 1.1000
 Frc consts  --      6.1930                 6.3192                 6.3328
 IR Inten    --     20.7361                25.8925                35.2193

                     73                     74                     75
                      A                      A                      A
 Frequencies --   3137.4512              3140.3071              3143.4006
 Red. masses --      1.1046                 1.0994                 1.1027
 Frc consts  --      6.4063                 6.3881                 6.4197
 IR Inten    --     24.9447                30.7909                29.4288

                     76                     77                     78
                      A                      A                      A
 Frequencies --   3198.7031              3255.6344              3718.5220
 Red. masses --      1.0915                 1.0946                 1.0658
 Frc consts  --      6.5800                 6.8353                 8.6826
 IR Inten    --     17.8906                 1.5198                 8.2187

 - Thermochemistry -
 -------------------
 Temperature   298.150 Kelvin.  Pressure   1.00000 Atm.
 Atom     1 has atomic number  6 and mass  12.00000

 Molecular mass:   197.08744 amu.
 Principal axes and moments of inertia in atomic units:
                           1         2         3
     Eigenvalues --  1456.564573104.766063383.67767
           X            0.99968  -0.02323  -0.01041
           Y            0.02226   0.99615  -0.08476
           Z            0.01234   0.08451   0.99635
 This molecule is an asymmetric top.
 Rotational symmetry number  1.
 Warning -- assumption of classical behavior for rotation
           may cause significant error
 Rotational temperatures (Kelvin)      0.05946     0.02790     0.02560
 Rotational constants (GHZ):           1.23904     0.58128     0.53337
 Zero-point vibrational energy     625041.2 (Joules/Mol)
                                  149.38844 (Kcal/Mol)
 Warning -- explicit consideration of  19 degrees of freedom as
           vibrations may cause significant error
 Vibrational temperatures:     53.30   136.64   148.17   204.17   270.99
          (Kelvin)            311.52   355.42   383.42   421.37   442.87
                              490.66   513.31   529.19   568.58   586.85
                              684.33   805.00   831.49   844.80   903.01
                              939.08  1006.93  1049.53  1089.37  1180.93
                             1209.39  1221.36  1231.52  1307.57  1327.09
                             1351.28  1386.41  1411.61  1453.74  1499.03
                             1510.74  1513.30  1558.01  1585.30  1610.35
                             1705.33  1745.64  1798.64  1810.35  1826.42
                             1835.50  1881.37  1903.90  1919.76  1930.63
                             1959.49  1984.48  2063.64  2092.77  2129.77
                             2177.49  2179.60  2190.66  2206.58  2210.43
                             2221.51  2230.72  2271.57  4369.42  4403.02
                             4410.95  4429.38  4449.27  4453.23  4459.39
                             4482.89  4497.52  4514.09  4518.20  4522.65
                             4602.22  4684.13  5350.12

 Zero-point correction=                           0.238066 (Hartree/Particle)
 Thermal correction to Energy=                    0.250729
 Thermal correction to Enthalpy=                  0.251673
 Thermal correction to Gibbs Free Energy=         0.199481
 Sum of electronic and zero-point Energies=           -918.058616
 Sum of electronic and thermal Energies=              -918.045953
 Sum of electronic and thermal Enthalpies=            -918.045008
 Sum of electronic and thermal Free Energies=         -918.097201

                     E (Thermal)             CV                S
                      KCal/Mol        Cal/Mol-Kelvin    Cal/Mol-Kelvin
 Total                  157.335             50.083            109.848
 Electronic               0.000              0.000              0.000
 Translational            0.889              2.981             41.740
 Rotational               0.889              2.981             31.104
 Vibrational            155.557             44.122             37.003
 Vibration     1          0.594              1.982              5.411
 Vibration     2          0.603              1.953              3.555
 Vibration     3          0.605              1.947              3.397
 Vibration     4          0.615              1.911              2.778
 Vibration     5          0.633              1.856              2.244
 Vibration     6          0.645              1.816              1.988
 Vibration     7          0.661              1.768              1.752
 Vibration     8          0.672              1.735              1.619
 Vibration     9          0.688              1.687              1.457
 Vibration    10          0.698              1.659              1.374
 Vibration    11          0.721              1.593              1.207
 Vibration    12          0.732              1.561              1.136
 Vibration    13          0.740              1.538              1.089
 Vibration    14          0.762              1.480              0.981
 Vibration    15          0.772              1.453              0.934
 Vibration    16          0.832              1.304              0.722
 Vibration    17          0.915              1.119              0.525
 Vibration    18          0.934              1.079              0.489
 Vibration    19          0.944              1.059              0.472

 Optimization completed.
    -- Stationary point found.
 Normal termination of Gaussian 16 at Wed Dec  9 22:31:13 2020.

 ----------------------------------------------------------------------
 # B3LYP/6-311++G(d,p) empiricaldispersion=gd3bj scf=xqc pop=npa geom=c
 heck
 ----------------------------------------------------------------------

 ---------------------------------------
 CID_130797566_JID_3029_Energie_neutraal
 ---------------------------------------
 Structure from the checkpoint file:  "JID_3029.chk"
 Charge =  0 Multiplicity = 1

 SCF Done:  E(RB3LYP) =  -918.471432238     A.U. after   15 cycles
 Normal termination of Gaussian 16 at Wed Dec  9 22:34:17 2020.

 ----------------------------------------------------------------------
 # B3LYP/6-311++G(d,p) empiricaldispersion=gd3bj scf=xqc pop=npa geom=c
 heck
 ----------------------------------------------------------------------

 -------------------------------------
 CID_130797566_JID_3029_Energie_kation
 -------------------------------------
 Structure from the checkpoint file:  "JID_3029.chk"
 Charge =  1 Multiplicity = 2

 SCF Done:  E(UB3LYP) =  -918.135673302     A.U. after   33 cycles
 SCF Done:  E(UB3LYP) =  -918.137196103     a.u. after    6 cycles
 Normal termination of Gaussian 16 at Wed Dec  9 23:13:16 2020.
 Gaussian 16:  ES64L-G16RevA.03 25-Dec-2016

 ----------------------------------------------------------------------
 # B3LYP/6-311++G(d,p) empiricaldispersion=gd3bj scf=xqc pop=npa geom=c
 heck
 ----------------------------------------------------------------------

 ------------------------------------
 CID_130797566_JID_3029_Energie_anion
 ------------------------------------
 Structure from the checkpoint file:  "JID_3029.chk"
 Charge = -1 Multiplicity = 2

                         Standard orientation:
 ---------------------------------------------------------------------
 Center     Atomic      Atomic             Coordinates (Angstroms)
 Number     Number       Type             X           Y           Z
 ---------------------------------------------------------------------
      1          6           0       -1.077152   -0.598600    2.017011
      2          6           0       -1.556286   -0.120781    0.642529
      3          6           0       -1.605147    1.417980    0.512272
      4          6           0       -1.449172    1.731818   -1.002547
      5          6           0       -1.017111    0.409712   -1.681719
      6          6           0       -0.592803   -0.531578   -0.533176
      7          6           0        0.881425   -0.343457   -0.214200
      8          6           0        1.868270   -1.288261   -0.357912
      9          6           0        3.148177   -0.756840   -0.027631
     10          7           0        3.203748    0.505310    0.342125
     11         16           0        1.640752    1.133555    0.309995
     12          8           0       -0.791233   -1.876466   -0.959008
     13          6           0       -2.959590   -0.698941    0.377752
     14          1           0       -0.997429   -1.693763    2.051503
     15          1           0       -1.792309   -0.304844    2.793342
     16          1           0       -0.101350   -0.183140    2.281366
     17          1           0       -2.536002    1.816697    0.928612
     18          1           0       -0.793716    1.876387    1.087900
     19          1           0       -0.705596    2.518837   -1.158608
     20          1           0       -2.385350    2.096967   -1.434780
     21          1           0       -0.213731    0.541393   -2.410305
     22          1           0       -1.852858   -0.067835   -2.199994
     23          1           0        1.692034   -2.294145   -0.715009
     24          1           0        4.077309   -1.319989   -0.064717
     25          1           0       -0.619336   -2.449728   -0.193795
     26          1           0       -2.948210   -1.791822    0.353828
     27          1           0       -3.638322   -0.379482    1.176299
     28          1           0       -3.377201   -0.354161   -0.572647
 ---------------------------------------------------------------------

 SCF Done:  E(UB3LYP) =  -918.461669214     A.U. after   33 cycles
 SCF Done:  E(UB3LYP) =  -918.461669214     a.u. after    1 cycles

 The electronic state is 2-A.
 Alpha  occ. eigenvalues --  -88.76169 -19.01705 -14.19269 -10.12817 -10.08071
 Alpha  occ. eigenvalues --  -10.07459 -10.07440 -10.06456 -10.05911 -10.05792
 Alpha  occ. eigenvalues --  -10.05118 -10.04622 -10.04512  -7.84649  -5.81037
 Alpha  occ. eigenvalues --   -5.80556  -5.80192  -0.92414  -0.82939  -0.74087
 Alpha  occ. eigenvalues --   -0.66731  -0.65389  -0.61904  -0.59788  -0.57485
 Alpha  occ. eigenvalues --   -0.54653  -0.47813  -0.45568  -0.44336  -0.43414
 Alpha  occ. eigenvalues --   -0.40030  -0.37225  -0.35932  -0.34671  -0.32833
 Alpha  occ. eigenvalues --   -0.31936  -0.29300  -0.29130  -0.28368  -0.28006
 Alpha  occ. eigenvalues --   -0.27248  -0.26341  -0.25492  -0.23975  -0.23141
 Alpha  occ. eigenvalues --   -0.22558  -0.21617  -0.21240  -0.20587  -0.18044
 Alpha  occ. eigenvalues --   -0.15897  -0.14041  -0.13690   0.04899
 Alpha virt. eigenvalues --    0.07088   0.07639   0.08597   0.08966   0.09832
 Alpha virt. eigenvalues --    0.10506   0.10959   0.11281   0.11644   0.12430
 Alpha virt. eigenvalues --    0.12950   0.13362   0.14193   0.14308   0.14776

  Beta  occ. eigenvalues --  -88.76144 -19.01690 -14.19005 -10.12836 -10.08031
  Beta  occ. eigenvalues --  -10.07436 -10.07143 -10.06448 -10.05879 -10.05777
  Beta  occ. eigenvalues --  -10.05143 -10.04595 -10.04475  -7.84627  -5.81030
  Beta  occ. eigenvalues --   -5.80551  -5.80098  -0.92376  -0.82614  -0.74021
  Beta  occ. eigenvalues --   -0.66405  -0.65271  -0.61748  -0.59716  -0.57420
  Beta  occ. eigenvalues --   -0.54595  -0.47641  -0.45397  -0.44191  -0.43276
  Beta  occ. eigenvalues --   -0.39917  -0.37175  -0.35885  -0.34578  -0.32753
  Beta  occ. eigenvalues --   -0.31850  -0.29249  -0.29024  -0.28215  -0.27802
  Beta  occ. eigenvalues --   -0.26831  -0.26290  -0.25412  -0.23929  -0.22986
  Beta  occ. eigenvalues --   -0.22478  -0.21551  -0.21102  -0.20493  -0.17865
  Beta  occ. eigenvalues --   -0.15664  -0.13265  -0.12791
  Beta virt. eigenvalues --    0.07477   0.08197   0.08752   0.09280   0.09414
  Beta virt. eigenvalues --    0.10106   0.10792   0.11226   0.11515   0.11950
  Beta virt. eigenvalues --    0.12697   0.13189   0.13660   0.14481   0.14570

 Mulliken charges and spin densities:
               1          2
     1  C    0.249733  -0.783080
     2  C   -1.365858   1.428524
     3  C    0.588307  -0.824364
     4  C   -0.461516   0.054339
     5  C    0.081980  -0.615437
     6  C    0.075952  -0.209424
     7  C   -0.239685  -0.297563
     8  C    1.034432   0.219513
     9  C   -0.354076  -0.206842
    10  N   -0.257926   0.104412
    11  S   -0.118583   0.124190
    12  O   -0.135009  -0.020957
    13  C    0.686204  -1.174520
    14  H   -0.334521   0.459926
    15  H   -0.132874   0.289401
    16  H    0.017251   0.143382
    17  H   -0.114372   0.294497
    18  H   -0.021963   0.184825
    19  H    0.162161  -0.027092
    20  H   -0.020227   0.167206
    21  H    0.204472  -0.038983
    22  H    0.058200   0.128854
    23  H   -0.079770   0.239946
    24  H    0.128388   0.019593
    25  H    0.068258   0.167684
    26  H   -0.142728   0.297549
    27  H   -0.400315   0.545925
    28  H   -0.175918   0.328497
 Sum of Mulliken charges =  -1.00000   1.00000

 Dipole moment (field-independent basis, Debye):
    X=              1.8497    Y=              1.7920    Z=             -3.0748  Tot=              4.0109
 Quadrupole moment (field-independent basis, Debye-Ang):
   XX=           -147.0516   YY=           -115.5148   ZZ=           -116.5765
   XY=             -6.5302   XZ=              2.6916   YZ=              0.0219

 Summary of Natural Population Analysis:

                                       Natural Population
                Natural  -----------------------------------------------
    Atom  No    Charge         Core      Valence    Rydberg      Total
 -----------------------------------------------------------------------
      C    1   -0.28887      0.99962     2.28160    0.00766     3.28887
      C    2   -0.04421      0.99953     2.02897    0.01571     3.04421
      C    3   -0.19471      0.99959     2.18575    0.00937     3.19471
      C    4   -0.19745      0.99964     2.19005    0.00776     3.19745
      C    5   -0.18850      0.99959     2.17929    0.00962     3.18850
      C    6    0.12283      0.99936     1.85833    0.01948     2.87717
      C    7   -0.05402      0.99943     2.03972    0.01487     3.05402
      C    8   -0.16844      0.99945     2.15765    0.01134     3.16844
      C    9    0.01458      0.99962     1.96929    0.01651     2.98542
      N   10   -0.28552      0.99974     2.77434    0.01144     3.78552
      S   11    0.28522      4.99939     2.69011    0.02528     7.71478
      O   12   -0.37088      0.99989     3.36417    0.00683     4.37088
      C   13   -0.28514      0.99962     2.27747    0.00805     3.28514
      H   14    0.09771      0.00000     0.40063    0.00166     0.40229
      H   15    0.10154      0.00000     0.39742    0.00104     0.39846
      H   16    0.10800      0.00000     0.39054    0.00146     0.39200
      H   17    0.10287      0.00000     0.39596    0.00117     0.39713
      H   18    0.10256      0.00000     0.39592    0.00153     0.39744
      H   19    0.09899      0.00000     0.39994    0.00107     0.40101
      H   20    0.09804      0.00000     0.40108    0.00089     0.40196
      H   21    0.10379      0.00000     0.39540    0.00080     0.39621
      H   22    0.10514      0.00000     0.39388    0.00099     0.39486
      H   23    0.11123      0.00000     0.38780    0.00097     0.38877
      H   24    0.09023      0.00000     0.40868    0.00109     0.40977
      H   25    0.23048      0.00000     0.26607    0.00344     0.26952
      H   26    0.10404      0.00000     0.39470    0.00127     0.39596
      H   27    0.10101      0.00000     0.39735    0.00165     0.39899
      H   28    0.09949      0.00000     0.39929    0.00122     0.40051
 =======================================================================
   * Total *   -0.00000     16.99446    35.82139    0.18414    53.00000

 Normal termination of Gaussian 16 at Wed Dec  9 23:22:04 2020.
