 Gaussian 16, Revision A.03,

 -----------------------------------------------------------
 # opt freq B3LYP/6-31G(d) empiricaldispersion=gd3bj scf=xqc
 -----------------------------------------------------------

 -------------------------------
 CID_138460641_JID_4130_neutraal
 -------------------------------
 Symbolic Z-matrix:
 Charge =  0 Multiplicity = 1

 SCF Done:  E(RB3LYP) =  -618.601373058     A.U. after   13 cycles
 SCF Done:  E(RB3LYP) =  -618.606224413     A.U. after   12 cycles
 SCF Done:  E(RB3LYP) =  -618.607890617     A.U. after   12 cycles
 SCF Done:  E(RB3LYP) =  -618.608502450     A.U. after   12 cycles
 SCF Done:  E(RB3LYP) =  -618.608825026     A.U. after   11 cycles
 SCF Done:  E(RB3LYP) =  -618.608910713     A.U. after   10 cycles
 SCF Done:  E(RB3LYP) =  -618.608941239     A.U. after   10 cycles
 SCF Done:  E(RB3LYP) =  -618.608978215     A.U. after   10 cycles
 SCF Done:  E(RB3LYP) =  -618.609024090     A.U. after   10 cycles
 SCF Done:  E(RB3LYP) =  -618.609061550     A.U. after   11 cycles
 SCF Done:  E(RB3LYP) =  -618.613845891     A.U. after   10 cycles
 SCF Done:  E(RB3LYP) =  -618.613912184     A.U. after   10 cycles
 SCF Done:  E(RB3LYP) =  -618.613929744     A.U. after    9 cycles
 SCF Done:  E(RB3LYP) =  -618.613933345     A.U. after    9 cycles
 SCF Done:  E(RB3LYP) =  -618.613934127     A.U. after    8 cycles
 Optimization completed.
    -- Stationary point found.
 Normal termination of Gaussian 16 at Thu Dec 10 09:26:17 2020.

 --------------------------------------------------------------------
 #N Geom=AllCheck Guess=TCheck SCRF=Check GenChk RB3LYP/6-31G(d) Freq
 --------------------------------------------------------------------

 Structure from the checkpoint file:  "JID_4130.chk"
 -------------------------------
 CID_138460641_JID_4130_neutraal
 -------------------------------
 Charge =  0 Multiplicity = 1

 SCF Done:  E(RB3LYP) =  -618.613934127     A.U. after    1 cycles

  Exact polarizability: 178.440  -6.643 144.598  -3.058   0.263  81.982
 Approx polarizability: 234.471 -10.085 219.960  -6.473   2.904 121.643

                      1                      2                      3
                      A                      A                      A
 Frequencies --     40.8601                44.8081                81.0090
 Red. masses --      3.6459                 2.5849                 3.2373
 Frc consts  --      0.0036                 0.0031                 0.0125
 IR Inten    --      1.1892                 0.0065                 2.2880

                      4                      5                      6
                      A                      A                      A
 Frequencies --     82.8883               130.7557               149.8669
 Red. masses --      3.4360                 2.3131                 1.2806
 Frc consts  --      0.0139                 0.0233                 0.0169
 IR Inten    --      1.0523                 0.9803                 0.0107

                      7                      8                      9
                      A                      A                      A
 Frequencies --    158.9015               203.7412               222.5080
 Red. masses --      2.2376                 2.9290                 1.0983
 Frc consts  --      0.0333                 0.0716                 0.0320
 IR Inten    --      1.2205                 0.8370                 0.0242

                     10                     11                     12
                      A                      A                      A
 Frequencies --    237.5635               247.8178               256.6328
 Red. masses --      2.1372                 2.1327                 1.4072
 Frc consts  --      0.0711                 0.0772                 0.0546
 IR Inten    --      0.2492                 1.5175                 0.5437

                     13                     14                     15
                      A                      A                      A
 Frequencies --    259.3605               262.5105               346.9046
 Red. masses --      2.5277                 1.6687                 3.5411
 Frc consts  --      0.1002                 0.0678                 0.2511
 IR Inten    --      1.7254                 0.4127                 1.6774

                     16                     17                     18
                      A                      A                      A
 Frequencies --    362.4102               407.9190               417.1645
 Red. masses --      2.5961                 3.7738                 2.8702
 Frc consts  --      0.2009                 0.3700                 0.2943
 IR Inten    --      0.6690                 1.7076                 1.1803

                     19                     20                     21
                      A                      A                      A
 Frequencies --    444.0854               470.0145               499.1317
 Red. masses --      2.4048                 3.0252                 3.6557
 Frc consts  --      0.2794                 0.3937                 0.5366
 IR Inten    --      1.0321                 0.6866                 5.8386

                     22                     23                     24
                      A                      A                      A
 Frequencies --    593.8726               610.5776               641.9453
 Red. masses --      3.7846                 6.9412                 3.9816
 Frc consts  --      0.7864                 1.5246                 0.9667
 IR Inten    --      3.4852                 2.7341                 2.7005

                     25                     26                     27
                      A                      A                      A
 Frequencies --    712.5905               734.8014               795.7055
 Red. masses --      3.2616                 5.3624                 1.9663
 Frc consts  --      0.9758                 1.7059                 0.7335
 IR Inten    --      0.4376                 6.4723                 9.1257

                     28                     29                     30
                      A                      A                      A
 Frequencies --    796.5279               842.7751               852.9446
 Red. masses --      2.2887                 1.6395                 2.5120
 Frc consts  --      0.8555                 0.6861                 1.0767
 IR Inten    --      9.3644                32.7993                 1.6416

                     31                     32                     33
                      A                      A                      A
 Frequencies --    924.0044               942.4501               947.6471
 Red. masses --      1.2774                 1.4141                 1.2103
 Frc consts  --      0.6426                 0.7401                 0.6404
 IR Inten    --      0.5584                 8.8119                 1.3035

                     34                     35                     36
                      A                      A                      A
 Frequencies --    965.3724               978.9448               989.5144
 Red. masses --      2.6631                 1.5137                 1.8238
 Frc consts  --      1.4623                 0.8547                 1.0521
 IR Inten    --      5.2691                 0.3598                 5.9417

                     37                     38                     39
                      A                      A                      A
 Frequencies --   1027.4555              1075.8128              1076.8279
 Red. masses --      1.5640                 3.9610                 1.4617
 Frc consts  --      0.9728                 2.7010                 0.9986
 IR Inten    --     11.8624                68.5022                 2.1128

                     40                     41                     42
                      A                      A                      A
 Frequencies --   1093.9710              1164.9682              1173.5891
 Red. masses --      4.2501                 2.0469                 1.6401
 Frc consts  --      2.9968                 1.6367                 1.3310
 IR Inten    --     26.0211                10.6446                98.9680

                     43                     44                     45
                      A                      A                      A
 Frequencies --   1187.3697              1199.5722              1209.4064
 Red. masses --      1.2715                 1.8020                 1.8440
 Frc consts  --      1.0562                 1.5278                 1.5891
 IR Inten    --      0.8191                42.4272               122.5736

                     46                     47                     48
                      A                      A                      A
 Frequencies --   1215.2360              1233.0211              1246.8271
 Red. masses --      1.7088                 2.4182                 1.9675
 Frc consts  --      1.4868                 2.1661                 1.8021
 IR Inten    --      0.2998                12.0929               252.2844

                     49                     50                     51
                      A                      A                      A
 Frequencies --   1293.5501              1310.4974              1330.3069
 Red. masses --      1.2017                 2.6280                 1.8962
 Frc consts  --      1.1847                 2.6592                 1.9771
 IR Inten    --      2.0693                91.8617                59.9022

                     52                     53                     54
                      A                      A                      A
 Frequencies --   1349.1161              1384.6347              1394.4385
 Red. masses --      1.3787                 5.9695                 1.3572
 Frc consts  --      1.4785                 6.7430                 1.5549
 IR Inten    --      6.3652                44.9284                 5.0296

                     55                     56                     57
                      A                      A                      A
 Frequencies --   1428.7058              1436.3247              1444.2098
 Red. masses --      1.2957                 1.4153                 1.2799
 Frc consts  --      1.5583                 1.7203                 1.5729
 IR Inten    --      5.5965                10.5670                 0.0131

                     58                     59                     60
                      A                      A                      A
 Frequencies --   1453.5399              1480.6326              1501.4035
 Red. masses --      1.2822                 2.6133                 1.2792
 Frc consts  --      1.5961                 3.3755                 1.6989
 IR Inten    --     31.7782                31.6843                30.4515

                     61                     62                     63
                      A                      A                      A
 Frequencies --   1507.5836              1519.6094              1519.8521
 Red. masses --      1.0449                 1.0480                 1.0633
 Frc consts  --      1.3992                 1.4259                 1.4471
 IR Inten    --      5.6531                 4.9118                 0.4180

                     64                     65                     66
                      A                      A                      A
 Frequencies --   1521.5849              1526.7446              1534.2385
 Red. masses --      1.0439                 1.1302                 1.0500
 Frc consts  --      1.4240                 1.5521                 1.4562
 IR Inten    --      1.7406                10.3029                 5.4350

                     67                     68                     69
                      A                      A                      A
 Frequencies --   1537.0600              1542.5699              1544.9802
 Red. masses --      1.0893                 1.0843                 1.1484
 Frc consts  --      1.5163                 1.5202                 1.6151
 IR Inten    --     71.6323                 1.3744                43.0464

                     70                     71                     72
                      A                      A                      A
 Frequencies --   1563.9918              1643.4027              1678.0450
 Red. masses --      2.3524                 6.4040                 6.2817
 Frc consts  --      3.3902                10.1903                10.4217
 IR Inten    --     91.6897                71.5548               162.1550

                     73                     74                     75
                      A                      A                      A
 Frequencies --   3004.6741              3023.6704              3033.2806
 Red. masses --      1.0557                 1.0347                 1.0856
 Frc consts  --      5.6155                 5.5736                 5.8850
 IR Inten    --     24.5831                62.7944                 5.5788

                     76                     77                     78
                      A                      A                      A
 Frequencies --   3040.9583              3044.3911              3046.0008
 Red. masses --      1.0374                 1.0364                 1.0466
 Frc consts  --      5.6523                 5.6596                 5.7213
 IR Inten    --     23.7601                37.0424                19.5663

                     79                     80                     81
                      A                      A                      A
 Frequencies --   3052.7995              3080.9752              3094.0573
 Red. masses --      1.0964                 1.1065                 1.1003
 Frc consts  --      6.0205                 6.1882                 6.2059
 IR Inten    --     56.5890                45.5942                21.1282

                     82                     83                     84
                      A                      A                      A
 Frequencies --   3103.6159              3109.0955              3119.3638
 Red. masses --      1.1007                 1.1006                 1.1015
 Frc consts  --      6.2469                 6.2681                 6.3149
 IR Inten    --     16.8181                58.2945                41.3509

                     85                     86                     87
                      A                      A                      A
 Frequencies --   3125.9555              3140.8638              3155.4473
 Red. masses --      1.1022                 1.1002                 1.0997
 Frc consts  --      6.3455                 6.3946                 6.4512
 IR Inten    --     24.3925                24.8622                29.6016

                     88                     89                     90
                      A                      A                      A
 Frequencies --   3181.0801              3233.8191              3243.5868
 Red. masses --      1.0893                 1.0912                 1.0899
 Frc consts  --      6.4944                 6.7231                 6.7557
 IR Inten    --     20.8351                12.0174                 3.5759

 - Thermochemistry -
 -------------------
 Temperature   298.150 Kelvin.  Pressure   1.00000 Atm.
 Atom     1 has atomic number  6 and mass  12.00000

 Molecular mass:   194.13068 amu.
 Principal axes and moments of inertia in atomic units:
                           1         2         3
     Eigenvalues --  1602.030995186.417486576.91862
           X            0.99997   0.00727   0.00164
           Y           -0.00727   0.99997  -0.00320
           Z           -0.00166   0.00319   0.99999
 This molecule is an asymmetric top.
 Rotational symmetry number  1.
 Warning -- assumption of classical behavior for rotation
           may cause significant error
 Rotational temperatures (Kelvin)      0.05407     0.01670     0.01317
 Rotational constants (GHZ):           1.12653     0.34797     0.27441
 Zero-point vibrational energy     734753.8 (Joules/Mol)
                                  175.61037 (Kcal/Mol)
 Warning -- explicit consideration of  23 degrees of freedom as
           vibrations may cause significant error
 Vibrational temperatures:     58.79    64.47   116.55   119.26   188.13
          (Kelvin)            215.63   228.62   293.14   320.14   341.80
                              356.55   369.24   373.16   377.69   499.12
                              521.43   586.90   600.21   638.94   676.25
                              718.14   854.45   878.48   923.62  1025.26
                             1057.22  1144.84  1146.03  1212.57  1227.20
                             1329.44  1355.98  1363.45  1388.96  1408.48
                             1423.69  1478.28  1547.85  1549.32  1573.98
                             1676.13  1688.53  1708.36  1725.92  1740.07
                             1748.45  1774.04  1793.91  1861.13  1885.51
                             1914.01  1941.08  1992.18  2006.29  2055.59
                             2066.55  2077.90  2091.32  2130.30  2160.18
                             2169.08  2186.38  2186.73  2189.22  2196.65
                             2207.43  2211.49  2219.41  2222.88  2250.24
                             2364.49  2414.33  4323.06  4350.39  4364.21
                             4375.26  4380.20  4382.52  4392.30  4432.84
                             4451.66  4465.41  4473.29  4488.07  4497.55
                             4519.00  4539.98  4576.86  4652.74  4666.80

 Zero-point correction=                           0.279853 (Hartree/Particle)
 Thermal correction to Energy=                    0.295018
 Thermal correction to Enthalpy=                  0.295962
 Thermal correction to Gibbs Free Energy=         0.237363
 Sum of electronic and zero-point Energies=           -618.334081
 Sum of electronic and thermal Energies=              -618.318917
 Sum of electronic and thermal Enthalpies=            -618.317972
 Sum of electronic and thermal Free Energies=         -618.376571

                     E (Thermal)             CV                S
                      KCal/Mol        Cal/Mol-Kelvin    Cal/Mol-Kelvin
 Total                  185.126             56.457            123.331
 Electronic               0.000              0.000              0.000
 Translational            0.889              2.981             41.695
 Rotational               0.889              2.981             32.369
 Vibrational            183.349             50.495             49.266
 Vibration     1          0.594              1.981              5.217
 Vibration     2          0.595              1.979              5.034
 Vibration     3          0.600              1.962              3.866
 Vibration     4          0.600              1.961              3.821
 Vibration     5          0.612              1.923              2.935
 Vibration     6          0.618              1.903              2.674
 Vibration     7          0.621              1.893              2.563
 Vibration     8          0.639              1.835              2.099
 Vibration     9          0.648              1.807              1.939
 Vibration    10          0.656              1.783              1.821
 Vibration    11          0.661              1.766              1.746
 Vibration    12          0.666              1.752              1.685
 Vibration    13          0.668              1.747              1.666
 Vibration    14          0.670              1.741              1.645
 Vibration    15          0.725              1.582              1.180
 Vibration    16          0.736              1.550              1.112
 Vibration    17          0.772              1.453              0.934
 Vibration    18          0.780              1.433              0.902
 Vibration    19          0.804              1.374              0.814
 Vibration    20          0.827              1.317              0.738
 Vibration    21          0.855              1.252              0.660
 Vibration    22          0.951              1.045              0.460
 Vibration    23          0.970              1.009              0.432

 Optimization completed.
    -- Stationary point found.
 Normal termination of Gaussian 16 at Thu Dec 10 09:34:04 2020.

 ----------------------------------------------------------------------
 # B3LYP/6-311++G(d,p) empiricaldispersion=gd3bj scf=xqc pop=npa geom=c
 heck
 ----------------------------------------------------------------------

 ---------------------------------------
 CID_138460641_JID_4130_Energie_neutraal
 ---------------------------------------
 Structure from the checkpoint file:  "JID_4130.chk"
 Charge =  0 Multiplicity = 1

 SCF Done:  E(RB3LYP) =  -618.784380526     A.U. after   14 cycles
 Normal termination of Gaussian 16 at Thu Dec 10 09:37:16 2020.

 ----------------------------------------------------------------------
 # B3LYP/6-311++G(d,p) empiricaldispersion=gd3bj scf=xqc pop=npa geom=c
 heck
 ----------------------------------------------------------------------

 -------------------------------------
 CID_138460641_JID_4130_Energie_kation
 -------------------------------------
 Structure from the checkpoint file:  "JID_4130.chk"
 Charge =  1 Multiplicity = 2

 SCF Done:  E(UB3LYP) =  -618.507539220     A.U. after   21 cycles
 Normal termination of Gaussian 16 at Thu Dec 10 09:43:50 2020.
 Gaussian 16:  ES64L-G16RevA.03 25-Dec-2016

 ----------------------------------------------------------------------
 # B3LYP/6-311++G(d,p) empiricaldispersion=gd3bj scf=xqc pop=npa geom=c
 heck
 ----------------------------------------------------------------------

 ------------------------------------
 CID_138460641_JID_4130_Energie_anion
 ------------------------------------
 Structure from the checkpoint file:  "JID_4130.chk"
 Charge = -1 Multiplicity = 2

                         Standard orientation:
 ---------------------------------------------------------------------
 Center     Atomic      Atomic             Coordinates (Angstroms)
 Number     Number       Type             X           Y           Z
 ---------------------------------------------------------------------
      1          6           0       -0.144623    2.986745    0.179658
      2          6           0        0.714763    1.752749    0.108150
      3          6           0        0.116148    0.473104    0.117585
      4          6           0        0.885818   -0.683860    0.050285
      5          6           0        2.283411   -0.586700   -0.029025
      6          6           0        2.901729    0.662196   -0.039941
      7          6           0        2.100395    1.809406    0.029446
      8          8           0        2.941857   -1.783853   -0.090864
      9          6           0        4.355448   -1.751183   -0.172775
     10          8           0       -1.246606    0.472644    0.198647
     11          6           0       -1.934218   -0.773389    0.189002
     12          6           0       -3.432852   -0.493073    0.244268
     13          6           0       -3.889045    0.328315   -0.966261
     14          6           0       -4.201980   -1.814847    0.351803
     15          1           0       -0.836091    3.044080   -0.669913
     16          1           0       -0.763491    2.992781    1.084762
     17          1           0        0.473425    3.889824    0.179281
     18          1           0        0.445575   -1.672504    0.057675
     19          1           0        3.978283    0.761591   -0.100294
     20          1           0        2.581455    2.784519    0.020693
     21          1           0        4.694896   -1.230177   -1.077954
     22          1           0        4.799134   -1.265362    0.706506
     23          1           0        4.679207   -2.792847   -0.212195
     24          1           0       -1.683022   -1.331888   -0.725542
     25          1           0       -1.619675   -1.377973    1.051774
     26          1           0       -3.615880    0.095177    1.154075
     27          1           0       -3.728433   -0.232185   -1.896522
     28          1           0       -4.956957    0.563916   -0.897866
     29          1           0       -3.331130    1.265997   -1.035552
     30          1           0       -3.898993   -2.389311    1.235061
     31          1           0       -5.279261   -1.631158    0.423337
     32          1           0       -4.031031   -2.441587   -0.532751
 ---------------------------------------------------------------------

 SCF Done:  E(UB3LYP) =  -618.769145293     A.U. after   33 cycles
 SCF Done:  E(UB3LYP) =  -618.769145293     a.u. after    1 cycles

 The electronic state is 2-A.
 Alpha  occ. eigenvalues --  -19.06102 -19.05934 -10.14182 -10.14114 -10.13236
 Alpha  occ. eigenvalues --  -10.12548 -10.08786 -10.08279 -10.08212 -10.07632
 Alpha  occ. eigenvalues --  -10.07502 -10.07265 -10.06979 -10.06593  -0.97895
 Alpha  occ. eigenvalues --   -0.97494  -0.76451  -0.72063  -0.68532  -0.65511
 Alpha  occ. eigenvalues --   -0.62514  -0.60195  -0.59573  -0.57313  -0.51802
 Alpha  occ. eigenvalues --   -0.49145  -0.47672  -0.45162  -0.41580  -0.39729
 Alpha  occ. eigenvalues --   -0.39594  -0.37663  -0.37491  -0.35930  -0.34900
 Alpha  occ. eigenvalues --   -0.33826  -0.33132  -0.32618  -0.30891  -0.30310
 Alpha  occ. eigenvalues --   -0.29436  -0.28873  -0.28247  -0.27385  -0.26199
 Alpha  occ. eigenvalues --   -0.25613  -0.25151  -0.24011  -0.23834  -0.23366
 Alpha  occ. eigenvalues --   -0.20959  -0.14457  -0.12132   0.04175
 Alpha virt. eigenvalues --    0.05343   0.06581   0.07628   0.07839   0.07903
 Alpha virt. eigenvalues --    0.08468   0.08914   0.09419   0.09806   0.10124
 Alpha virt. eigenvalues --    0.10403   0.11026   0.11259   0.11758   0.12167

  Beta  occ. eigenvalues --  -19.06097 -19.05925 -10.14181 -10.14115 -10.13223
  Beta  occ. eigenvalues --  -10.12499 -10.08778 -10.08274 -10.08211 -10.07623
  Beta  occ. eigenvalues --  -10.07500 -10.07251 -10.06939 -10.06570  -0.97884
  Beta  occ. eigenvalues --   -0.97475  -0.76442  -0.72039  -0.68518  -0.65492
  Beta  occ. eigenvalues --   -0.62472  -0.60159  -0.59510  -0.57275  -0.51773
  Beta  occ. eigenvalues --   -0.49110  -0.47621  -0.45125  -0.41560  -0.39702
  Beta  occ. eigenvalues --   -0.39569  -0.37638  -0.37461  -0.35899  -0.34870
  Beta  occ. eigenvalues --   -0.33789  -0.33108  -0.32600  -0.30857  -0.30283
  Beta  occ. eigenvalues --   -0.29403  -0.28843  -0.28227  -0.27363  -0.26172
  Beta  occ. eigenvalues --   -0.25588  -0.25109  -0.23975  -0.23805  -0.23337
  Beta  occ. eigenvalues --   -0.20944  -0.14450  -0.12123
  Beta virt. eigenvalues --    0.06125   0.06609   0.06980   0.07937   0.08187
  Beta virt. eigenvalues --    0.08491   0.08603   0.09404   0.09894   0.10219
  Beta virt. eigenvalues --    0.10409   0.10626   0.11366   0.11520   0.12011

 Mulliken charges and spin densities:
               1          2
     1  C    0.276417  -0.946512
     2  C   -0.054712   0.494145
     3  C   -0.527234   0.596110
     4  C    0.247816  -0.629859
     5  C   -0.421605   0.134919
     6  C    0.133027   0.050286
     7  C    0.591867  -0.906561
     8  O   -0.215210   0.065515
     9  C    0.914440  -1.239828
    10  O   -0.049082   0.013247
    11  C    1.233689  -1.660695
    12  C   -2.315551   2.546270
    13  C    0.495240  -1.008027
    14  C    0.900261  -1.546848
    15  H    0.096269   0.056637
    16  H    0.071766   0.089677
    17  H    0.036522   0.106719
    18  H    0.093723   0.142636
    19  H   -0.217847   0.412812
    20  H   -0.242774   0.375459
    21  H   -0.317062   0.467931
    22  H   -0.325909   0.476631
    23  H   -0.523380   0.698920
    24  H    0.130303   0.032593
    25  H    0.097999   0.057434
    26  H   -0.006937   0.166509
    27  H   -0.057080   0.184027
    28  H   -0.277480   0.431541
    29  H    0.102474   0.032926
    30  H   -0.266903   0.397994
    31  H   -0.546235   0.718291
    32  H   -0.056810   0.189101
 Sum of Mulliken charges =  -1.00000   1.00000

 Dipole moment (field-independent basis, Debye):
    X=             -0.7016    Y=              3.3124    Z=             -0.0993  Tot=              3.3874
 Quadrupole moment (field-independent basis, Debye-Ang):
   XX=           -211.8961   YY=           -129.6882   ZZ=           -115.3507
   XY=              1.8101   XZ=              2.9277   YZ=              1.5530

 Summary of Natural Population Analysis:

                                       Natural Population
                Natural  -----------------------------------------------
    Atom  No    Charge         Core      Valence    Rydberg      Total
 -----------------------------------------------------------------------
      C    1   -0.28914      0.99964     2.28451    0.00499     3.28914
      C    2   -0.05033      0.99948     2.04274    0.00811     3.05033
      C    3    0.17298      0.99935     1.81626    0.01141     2.82702
      C    4   -0.16109      0.99948     2.15378    0.00782     3.16109
      C    5    0.16746      0.99939     1.81893    0.01422     2.83254
      C    6   -0.15867      0.99952     2.14999    0.00916     3.15867
      C    7   -0.08579      0.99954     2.07649    0.00976     3.08579
      O    8   -0.27406      0.99986     3.26395    0.01025     4.27406
      C    9   -0.10042      0.99960     2.09158    0.00924     3.10042
      O   10   -0.27717      0.99985     3.26878    0.00854     4.27717
      C   11   -0.00656      0.99953     1.99672    0.01031     3.00656
      C   12   -0.12348      0.99962     2.11298    0.01088     3.12348
      C   13   -0.28658      0.99965     2.28051    0.00642     3.28658
      C   14   -0.28520      0.99965     2.27978    0.00578     3.28520
      H   15    0.10413      0.00000     0.39445    0.00142     0.39587
      H   16    0.10463      0.00000     0.39399    0.00138     0.39537
      H   17    0.09809      0.00000     0.40106    0.00084     0.40191
      H   18    0.11084      0.00000     0.38741    0.00175     0.38916
      H   19    0.10779      0.00000     0.39072    0.00150     0.39221
      H   20    0.09824      0.00000     0.40079    0.00097     0.40176
      H   21    0.08550      0.00000     0.41248    0.00202     0.41450
      H   22    0.08544      0.00000     0.41254    0.00202     0.41456
      H   23    0.09453      0.00000     0.40401    0.00146     0.40547
      H   24    0.08396      0.00000     0.41443    0.00161     0.41604
      H   25    0.08741      0.00000     0.41089    0.00171     0.41259
      H   26    0.09593      0.00000     0.40204    0.00203     0.40407
      H   27    0.09526      0.00000     0.40387    0.00087     0.40474
      H   28    0.10029      0.00000     0.39871    0.00101     0.39971
      H   29    0.10500      0.00000     0.39380    0.00120     0.39500
      H   30    0.10021      0.00000     0.39853    0.00126     0.39979
      H   31    0.10415      0.00000     0.39429    0.00157     0.39585
      H   32    0.09667      0.00000     0.40222    0.00112     0.40333
 =======================================================================
   * Total *   -0.00000     13.99416    38.85322    0.15263    53.00000

 Normal termination of Gaussian 16 at Thu Dec 10 09:53:57 2020.
