 Gaussian 16, Revision A.03,

 -----------------------------------------------------------
 # opt freq B3LYP/6-31G(d) empiricaldispersion=gd3bj scf=xqc
 -----------------------------------------------------------

 ------------------------------
 CID_17856007_JID_7543_neutraal
 ------------------------------
 Symbolic Z-matrix:
 Charge =  0 Multiplicity = 1

 SCF Done:  E(RB3LYP) =  -743.950293640     A.U. after   15 cycles
 SCF Done:  E(RB3LYP) =  -743.959363038     A.U. after   13 cycles
 SCF Done:  E(RB3LYP) =  -743.962536673     A.U. after   13 cycles
 SCF Done:  E(RB3LYP) =  -743.965249844     A.U. after   13 cycles
 SCF Done:  E(RB3LYP) =  -743.966931180     A.U. after   13 cycles
 SCF Done:  E(RB3LYP) =  -743.967653915     A.U. after   12 cycles
 SCF Done:  E(RB3LYP) =  -743.967771605     A.U. after   12 cycles
 SCF Done:  E(RB3LYP) =  -743.967863589     A.U. after   11 cycles
 SCF Done:  E(RB3LYP) =  -743.967907194     A.U. after   10 cycles
 SCF Done:  E(RB3LYP) =  -743.967959410     A.U. after   11 cycles
 SCF Done:  E(RB3LYP) =  -743.968221748     A.U. after   10 cycles
 SCF Done:  E(RB3LYP) =  -743.968227353     A.U. after   10 cycles
 SCF Done:  E(RB3LYP) =  -743.968229192     A.U. after    9 cycles
 SCF Done:  E(RB3LYP) =  -743.968229309     A.U. after    9 cycles
 SCF Done:  E(RB3LYP) =  -743.968229383     A.U. after    8 cycles
 Optimization completed.
    -- Stationary point found.
 Normal termination of Gaussian 16 at Mon Dec 14 13:33:29 2020.

 --------------------------------------------------------------------
 #N Geom=AllCheck Guess=TCheck SCRF=Check GenChk RB3LYP/6-31G(d) Freq
 --------------------------------------------------------------------

 Structure from the checkpoint file:  "JID_7543.chk"
 ------------------------------
 CID_17856007_JID_7543_neutraal
 ------------------------------
 Charge =  0 Multiplicity = 1

 SCF Done:  E(RB3LYP) =  -743.968229383     A.U. after    1 cycles

  Exact polarizability: 231.526  -8.058 140.148  10.979  16.317 100.846
 Approx polarizability: 321.240  -7.662 228.436  21.489  36.361 158.133

                      1                      2                      3
                      A                      A                      A
 Frequencies --     29.9115                45.5057                49.0923
 Red. masses --      3.7221                 4.0688                 5.5409
 Frc consts  --      0.0020                 0.0050                 0.0079
 IR Inten    --      0.1880                 0.6017                 0.7779

                      4                      5                      6
                      A                      A                      A
 Frequencies --     58.9638                79.5322               103.6752
 Red. masses --      2.7076                 1.1617                 1.1650
 Frc consts  --      0.0055                 0.0043                 0.0074
 IR Inten    --      0.8841                 0.9721                 0.2683

                      7                      8                      9
                      A                      A                      A
 Frequencies --    107.3193               124.6289               156.9784
 Red. masses --      3.2422                 4.7078                 2.7551
 Frc consts  --      0.0220                 0.0431                 0.0400
 IR Inten    --      1.6330                 1.9347                 0.8996

                     10                     11                     12
                      A                      A                      A
 Frequencies --    203.0398               243.9637               263.2900
 Red. masses --      1.0410                 3.1697                 4.7336
 Frc consts  --      0.0253                 0.1112                 0.1933
 IR Inten    --      0.9996                 1.1748                 1.3433

                     13                     14                     15
                      A                      A                      A
 Frequencies --    276.6660               300.2979               327.0081
 Red. masses --      3.1310                 5.9476                 4.5005
 Frc consts  --      0.1412                 0.3160                 0.2835
 IR Inten    --      1.6917                 2.8527                 0.8383

                     16                     17                     18
                      A                      A                      A
 Frequencies --    340.7221               398.9329               422.2722
 Red. masses --      4.1143                 4.7091                 3.0847
 Frc consts  --      0.2814                 0.4416                 0.3241
 IR Inten    --      6.7489                 0.4086                 0.2911

                     19                     20                     21
                      A                      A                      A
 Frequencies --    472.4640               501.7644               506.0114
 Red. masses --      6.3324                 1.3998                 3.0612
 Frc consts  --      0.8328                 0.2076                 0.4618
 IR Inten    --      4.0950                42.1384                 1.3770

                     22                     23                     24
                      A                      A                      A
 Frequencies --    525.9176               605.2750               617.8814
 Red. masses --      2.9013                 3.8170                 2.2752
 Frc consts  --      0.4728                 0.8239                 0.5118
 IR Inten    --     14.4024                 0.3959                46.6340

                     25                     26                     27
                      A                      A                      A
 Frequencies --    622.2150               631.4188               663.7724
 Red. masses --      3.8916                 6.0813                 6.2750
 Frc consts  --      0.8877                 1.4285                 1.6289
 IR Inten    --      4.5385                 0.9927                 6.6950

                     28                     29                     30
                      A                      A                      A
 Frequencies --    686.5163               707.2800               713.9322
 Red. masses --      5.7054                 2.6225                 3.5926
 Frc consts  --      1.5843                 0.7730                 1.0789
 IR Inten    --     11.8073                26.6655                 4.4709

                     31                     32                     33
                      A                      A                      A
 Frequencies --    777.1450               795.3568               822.7522
 Red. masses --      1.7390                 4.7936                 4.3949
 Frc consts  --      0.6188                 1.7866                 1.7528
 IR Inten    --     36.4638                14.4099                 2.1385

                     34                     35                     36
                      A                      A                      A
 Frequencies --    850.5744               920.5462               924.7063
 Red. masses --      1.2444                 3.4747                 1.4155
 Frc consts  --      0.5304                 1.7348                 0.7132
 IR Inten    --      0.2218                 3.8842                 4.0227

                     37                     38                     39
                      A                      A                      A
 Frequencies --    968.4076               995.0788              1012.1068
 Red. masses --      1.3342                 1.2527                 1.8275
 Frc consts  --      0.7372                 0.7308                 1.1029
 IR Inten    --      0.4308                 0.2492                 2.9769

                     40                     41                     42
                      A                      A                      A
 Frequencies --   1023.6163              1033.0540              1050.5119
 Red. masses --      6.1128                 1.5874                 1.8424
 Frc consts  --      3.7737                 0.9981                 1.1979
 IR Inten    --      0.6818                23.9211                 0.2065

                     43                     44                     45
                      A                      A                      A
 Frequencies --   1054.8539              1065.1824              1070.3557
 Red. masses --      3.6178                 1.7247                 2.0641
 Frc consts  --      2.3718                 1.1529                 1.3933
 IR Inten    --     27.3273                 7.3009                 6.5209

                     46                     47                     48
                      A                      A                      A
 Frequencies --   1077.3312              1079.4213              1111.4758
 Red. masses --      1.5001                 1.5860                 1.6584
 Frc consts  --      1.0258                 1.0888                 1.2071
 IR Inten    --      0.5180                 2.9162                 6.1292

                     49                     50                     51
                      A                      A                      A
 Frequencies --   1166.5403              1194.5307              1210.1742
 Red. masses --      4.0382                 1.0969                 1.1401
 Frc consts  --      3.2377                 0.9222                 0.9837
 IR Inten    --     19.2288                 0.2616                 0.6926

                     52                     53                     54
                      A                      A                      A
 Frequencies --   1252.0668              1322.5869              1345.5408
 Red. masses --      3.6939                 3.4321                 2.6051
 Frc consts  --      3.4119                 3.5372                 2.7789
 IR Inten    --     11.6078                10.3891               237.8161

                     55                     56                     57
                      A                      A                      A
 Frequencies --   1360.7986              1368.3358              1422.5804
 Red. masses --      2.4448                 2.4650                 1.9663
 Frc consts  --      2.6673                 2.7193                 2.3445
 IR Inten    --      9.9239                 1.0574                93.8507

                     58                     59                     60
                      A                      A                      A
 Frequencies --   1425.7126              1441.5003              1442.7633
 Red. masses --      1.6265                 1.4239                 1.5748
 Frc consts  --      1.9479                 1.7433                 1.9314
 IR Inten    --     59.2389                20.5935                21.9325

                     61                     62                     63
                      A                      A                      A
 Frequencies --   1451.6479              1488.6805              1496.1803
 Red. masses --      1.7763                 2.5137                 1.0666
 Frc consts  --      2.2055                 3.2822                 1.4067
 IR Inten    --     34.1231                14.1556                 8.4063

                     64                     65                     66
                      A                      A                      A
 Frequencies --   1503.5718              1506.5809              1510.6130
 Red. masses --      1.2528                 1.0605                 1.5114
 Frc consts  --      1.6688                 1.4182                 2.0320
 IR Inten    --      5.2408                 7.9580                 5.9614

                     67                     68                     69
                      A                      A                      A
 Frequencies --   1512.6905              1523.4600              1530.3528
 Red. masses --      1.0459                 1.4449                 1.4495
 Frc consts  --      1.4101                 1.9758                 2.0001
 IR Inten    --      7.3938                13.4678                11.6379

                     70                     71                     72
                      A                      A                      A
 Frequencies --   1546.5966              1563.5115              1628.7423
 Red. masses --      3.1672                 3.6250                 6.4385
 Frc consts  --      4.4635                 5.2211                10.0632
 IR Inten    --      3.9983               136.5523                 9.0607

                     73                     74                     75
                      A                      A                      A
 Frequencies --   1654.7249              1665.2089              1806.3550
 Red. masses --      6.3892                 5.6595                 8.3890
 Frc consts  --     10.3074                 9.2462                16.1275
 IR Inten    --      6.0343                55.1060               432.0734

                     76                     77                     78
                      A                      A                      A
 Frequencies --   3051.7168              3052.2715              3068.9587
 Red. masses --      1.0392                 1.0397                 1.0377
 Frc consts  --      5.7021                 5.7068                 5.7583
 IR Inten    --     41.6473                 4.0174                 5.2923

                     79                     80                     81
                      A                      A                      A
 Frequencies --   3102.3844              3110.7391              3128.9067
 Red. masses --      1.1001                 1.0961                 1.1001
 Frc consts  --      6.2384                 6.2495                 6.3453
 IR Inten    --     16.6661                10.2940                 8.7348

                     82                     83                     84
                      A                      A                      A
 Frequencies --   3143.1900              3151.4559              3181.0873
 Red. masses --      1.1025                 1.1005                 1.1022
 Frc consts  --      6.4178                 6.4395                 6.5716
 IR Inten    --      9.5212                 8.9936                14.4489

                     85                     86                     87
                      A                      A                      A
 Frequencies --   3191.0267              3200.6961              3213.8682
 Red. masses --      1.0857                 1.0902                 1.0954
 Frc consts  --      6.5134                 6.5805                 6.6663
 IR Inten    --      0.4702                15.1675                31.4623

                     88                     89                     90
                      A                      A                      A
 Frequencies --   3234.7017              3241.6721              3565.6150
 Red. masses --      1.0927                 1.0930                 1.0752
 Frc consts  --      6.7360                 6.7674                 8.0537
 IR Inten    --      6.8825                 0.8028                18.4434

 - Thermochemistry -
 -------------------
 Temperature   298.150 Kelvin.  Pressure   1.00000 Atm.
 Atom     1 has atomic number  6 and mass  12.00000

 Molecular mass:   229.12151 amu.
 Principal axes and moments of inertia in atomic units:
                           1         2         3
     Eigenvalues --  1617.618407334.796998100.72958
           X            0.99993  -0.01136  -0.00232
           Y            0.01140   0.99979   0.01681
           Z            0.00213  -0.01683   0.99986
 This molecule is an asymmetric top.
 Rotational symmetry number  1.
 Warning -- assumption of classical behavior for rotation
           may cause significant error
 Rotational temperatures (Kelvin)      0.05354     0.01181     0.01069
 Rotational constants (GHZ):           1.11568     0.24605     0.22279
 Zero-point vibrational energy     690239.7 (Joules/Mol)
                                  164.97124 (Kcal/Mol)
 Warning -- explicit consideration of  24 degrees of freedom as
           vibrations may cause significant error
 Vibrational temperatures:     43.04    65.47    70.63    84.84   114.43
          (Kelvin)            149.17   154.41   179.31   225.86   292.13
                              351.01   378.82   398.06   432.06   470.49
                              490.22   573.98   607.56   679.77   721.93
                              728.04   756.68   870.86   888.99   895.23
                              908.47   955.02   987.74  1017.62  1027.19
                             1118.14  1144.34  1183.76  1223.79  1324.46
                             1330.45  1393.32  1431.70  1456.20  1472.76
                             1486.33  1511.45  1517.70  1532.56  1540.00
                             1550.04  1553.05  1599.17  1678.39  1718.66
                             1741.17  1801.44  1902.91  1935.93  1957.89
                             1968.73  2046.78  2051.28  2074.00  2075.81
                             2088.60  2141.88  2152.67  2163.30  2167.63
                             2173.44  2176.42  2191.92  2201.84  2225.21
                             2249.54  2343.40  2380.78  2395.86  2598.94
                             4390.74  4391.54  4415.55  4463.64  4475.66
                             4501.80  4522.35  4534.24  4576.88  4591.18
                             4605.09  4624.04  4654.01  4664.04  5130.12

 Zero-point correction=                           0.262898 (Hartree/Particle)
 Thermal correction to Energy=                    0.279317
 Thermal correction to Enthalpy=                  0.280261
 Thermal correction to Gibbs Free Energy=         0.217373
 Sum of electronic and zero-point Energies=           -743.705331
 Sum of electronic and thermal Energies=              -743.688912
 Sum of electronic and thermal Enthalpies=            -743.687968
 Sum of electronic and thermal Free Energies=         -743.750857

                     E (Thermal)             CV                S
                      KCal/Mol        Cal/Mol-Kelvin    Cal/Mol-Kelvin
 Total                  175.274             60.825            132.360
 Electronic               0.000              0.000              0.000
 Translational            0.889              2.981             42.189
 Rotational               0.889              2.981             32.930
 Vibrational            173.497             54.864             57.241
 Vibration     1          0.594              1.984              5.835
 Vibration     2          0.595              1.979              5.004
 Vibration     3          0.595              1.978              4.854
 Vibration     4          0.596              1.974              4.492
 Vibration     5          0.600              1.963              3.902
 Vibration     6          0.605              1.946              3.384
 Vibration     7          0.606              1.943              3.317
 Vibration     8          0.610              1.928              3.027
 Vibration     9          0.621              1.895              2.586
 Vibration    10          0.639              1.836              2.105
 Vibration    11          0.659              1.773              1.774
 Vibration    12          0.670              1.740              1.640
 Vibration    13          0.678              1.717              1.554
 Vibration    14          0.693              1.673              1.415
 Vibration    15          0.711              1.622              1.275
 Vibration    16          0.720              1.594              1.209
 Vibration    17          0.765              1.472              0.967
 Vibration    18          0.785              1.422              0.884
 Vibration    19          0.829              1.311              0.731
 Vibration    20          0.857              1.246              0.654
 Vibration    21          0.861              1.237              0.643
 Vibration    22          0.881              1.193              0.596
 Vibration    23          0.964              1.021              0.441
 Vibration    24          0.978              0.994              0.420

 Optimization completed.
    -- Stationary point found.
 Normal termination of Gaussian 16 at Mon Dec 14 13:44:48 2020.

 ----------------------------------------------------------------------
 # B3LYP/6-311++G(d,p) empiricaldispersion=gd3bj scf=xqc pop=npa geom=c
 heck
 ----------------------------------------------------------------------

 --------------------------------------
 CID_17856007_JID_7543_Energie_neutraal
 --------------------------------------
 Structure from the checkpoint file:  "JID_7543.chk"
 Charge =  0 Multiplicity = 1

 SCF Done:  E(RB3LYP) =  -744.169913161     A.U. after   16 cycles
 Normal termination of Gaussian 16 at Mon Dec 14 13:50:32 2020.

 ----------------------------------------------------------------------
 # B3LYP/6-311++G(d,p) empiricaldispersion=gd3bj scf=xqc pop=npa geom=c
 heck
 ----------------------------------------------------------------------

 ------------------------------------
 CID_17856007_JID_7543_Energie_kation
 ------------------------------------
 Structure from the checkpoint file:  "JID_7543.chk"
 Charge =  1 Multiplicity = 2

 SCF Done:  E(UB3LYP) =  -743.873262059     A.U. after   27 cycles
 Normal termination of Gaussian 16 at Mon Dec 14 14:04:30 2020.
 Gaussian 16:  ES64L-G16RevA.03 25-Dec-2016

 ----------------------------------------------------------------------
 # B3LYP/6-311++G(d,p) empiricaldispersion=gd3bj scf=xqc pop=npa geom=c
 heck
 ----------------------------------------------------------------------

 -----------------------------------
 CID_17856007_JID_7543_Energie_anion
 -----------------------------------
 Structure from the checkpoint file:  "JID_7543.chk"
 Charge = -1 Multiplicity = 2

                         Standard orientation:
 ---------------------------------------------------------------------
 Center     Atomic      Atomic             Coordinates (Angstroms)
 Number     Number       Type             X           Y           Z
 ---------------------------------------------------------------------
      1          6           0       -0.135767   -2.149137   -0.216673
      2          6           0       -0.310216   -0.675208   -0.366054
      3          6           0       -1.486681    0.041865   -0.528702
      4          6           0       -1.113799    1.413751   -0.539783
      5          7           0        0.198902    1.541973   -0.393439
      6          7           0        0.684081    0.264122   -0.300151
      7          6           0        2.072598    0.079961   -0.074064
      8          6           0        2.748155    0.989975    0.745592
      9          6           0        4.111088    0.826054    0.975867
     10          6           0        4.803216   -0.243831    0.403523
     11          6           0        4.124544   -1.142041   -0.419384
     12          6           0        2.762489   -0.978619   -0.670882
     13          6           0       -2.001989    2.606195   -0.690803
     14          7           0       -2.786288   -0.498043   -0.632894
     15          6           0       -3.708680   -0.612155    0.389492
     16          8           0       -4.841283   -1.013362    0.171209
     17          6           0       -3.214027   -0.226095    1.772338
     18          1           0        0.596999   -2.393515    0.558633
     19          1           0        0.192584   -2.629733   -1.146060
     20          1           0       -1.099769   -2.588386    0.054845
     21          1           0        2.194809    1.813648    1.180113
     22          1           0        4.633298    1.534335    1.612456
     23          1           0        5.864945   -0.371337    0.592026
     24          1           0        4.656734   -1.966557   -0.884645
     25          1           0        2.248466   -1.652313   -1.345755
     26          1           0       -2.573368    2.559279   -1.624922
     27          1           0       -2.730251    2.669481    0.126743
     28          1           0       -1.401801    3.519119   -0.692221
     29          1           0       -3.159009   -0.739766   -1.544427
     30          1           0       -2.332892   -0.811399    2.054973
     31          1           0       -2.922507    0.828837    1.807312
     32          1           0       -4.020418   -0.405437    2.483842
 ---------------------------------------------------------------------

 SCF Done:  E(UB3LYP) =  -744.162456801     A.U. after   33 cycles
 SCF Done:  E(UB3LYP) =  -744.162456801     a.u. after    1 cycles

 The electronic state is 2-A.
 Alpha  occ. eigenvalues --  -18.99930 -14.29020 -14.24838 -14.22257 -10.18530
 Alpha  occ. eigenvalues --  -10.11486 -10.11272 -10.09921 -10.09799 -10.08210
 Alpha  occ. eigenvalues --  -10.07952 -10.07880 -10.07736 -10.07653 -10.07350
 Alpha  occ. eigenvalues --  -10.07057 -10.06950  -0.95151  -0.94741  -0.83497
 Alpha  occ. eigenvalues --   -0.77596  -0.73583  -0.69912  -0.65421  -0.65028
 Alpha  occ. eigenvalues --   -0.64788  -0.61189  -0.60768  -0.53673  -0.51457
 Alpha  occ. eigenvalues --   -0.49699  -0.47589  -0.46036  -0.43400  -0.41340
 Alpha  occ. eigenvalues --   -0.38858  -0.38740  -0.37075  -0.35805  -0.35136
 Alpha  occ. eigenvalues --   -0.34135  -0.33452  -0.32678  -0.32513  -0.31916
 Alpha  occ. eigenvalues --   -0.31473  -0.30970  -0.30423  -0.29845  -0.28873
 Alpha  occ. eigenvalues --   -0.27216  -0.26911  -0.26133  -0.24952  -0.20463
 Alpha  occ. eigenvalues --   -0.18710  -0.17127  -0.16729  -0.15820  -0.14593
 Alpha  occ. eigenvalues --   -0.12877   0.04185
 Alpha virt. eigenvalues --    0.06399   0.06605   0.07035   0.07801   0.08212
 Alpha virt. eigenvalues --    0.08313   0.08851   0.09640   0.10130   0.10331
 Alpha virt. eigenvalues --    0.10758   0.10980   0.11397   0.11972   0.12649

  Beta  occ. eigenvalues --  -18.99927 -14.29024 -14.24828 -14.22190 -10.18525
  Beta  occ. eigenvalues --  -10.11408 -10.11170 -10.09907 -10.09797 -10.08185
  Beta  occ. eigenvalues --  -10.07922 -10.07861 -10.07756 -10.07652 -10.07302
  Beta  occ. eigenvalues --  -10.06991 -10.06847  -0.95122  -0.94690  -0.83476
  Beta  occ. eigenvalues --   -0.77460  -0.73479  -0.69786  -0.65324  -0.64973
  Beta  occ. eigenvalues --   -0.64680  -0.61109  -0.60683  -0.53604  -0.51322
  Beta  occ. eigenvalues --   -0.49631  -0.47545  -0.45936  -0.43328  -0.41283
  Beta  occ. eigenvalues --   -0.38808  -0.38649  -0.36941  -0.35755  -0.35053
  Beta  occ. eigenvalues --   -0.34048  -0.33371  -0.32619  -0.32460  -0.31889
  Beta  occ. eigenvalues --   -0.31418  -0.30945  -0.30338  -0.29778  -0.28837
  Beta  occ. eigenvalues --   -0.27175  -0.26644  -0.26052  -0.24884  -0.20388
  Beta  occ. eigenvalues --   -0.18418  -0.17011  -0.16687  -0.15568  -0.14272
  Beta  occ. eigenvalues --   -0.12567
  Beta virt. eigenvalues --    0.06298   0.06923   0.07385   0.07687   0.08075
  Beta virt. eigenvalues --    0.08374   0.08650   0.09113   0.09834   0.10396
  Beta virt. eigenvalues --    0.10590   0.10929   0.11281   0.11445   0.12344

 Mulliken charges and spin densities:
               1          2
     1  C    1.343415  -1.819585
     2  C   -0.500901   0.542220
     3  C   -0.132253   0.239889
     4  C   -0.066178  -0.158743
     5  N   -0.131410   0.228431
     6  N    0.365968  -0.069938
     7  C   -0.488359  -0.225320
     8  C   -0.275834   0.358283
     9  C   -0.302540   0.008226
    10  C    0.637961  -0.938919
    11  C   -0.107675  -0.017764
    12  C    0.133311   0.362823
    13  C    0.233398  -0.895285
    14  N   -0.286514   0.116308
    15  C   -0.673470   0.608540
    16  O   -0.339351  -0.001875
    17  C    0.517731  -0.871921
    18  H   -0.017149   0.192499
    19  H   -0.575055   0.771694
    20  H    0.081079   0.082470
    21  H    0.039120   0.140772
    22  H   -0.065867   0.226950
    23  H   -0.039990   0.165478
    24  H   -0.583344   0.764110
    25  H    0.054371   0.103839
    26  H    0.008669   0.146589
    27  H   -0.016502   0.158758
    28  H    0.078487   0.078529
    29  H    0.119907   0.190532
    30  H   -0.028759   0.192048
    31  H   -0.037084   0.188351
    32  H    0.054817   0.132010
 Sum of Mulliken charges =  -1.00000   1.00000

 Dipole moment (field-independent basis, Debye):
    X=             -1.1272    Y=              3.1540    Z=              0.6880  Tot=              3.4193
 Quadrupole moment (field-independent basis, Debye-Ang):
   XX=           -191.6905   YY=           -142.0546   ZZ=           -125.3954
   XY=              2.4286   XZ=              4.6202   YZ=             -5.0112

 Summary of Natural Population Analysis:

                                       Natural Population
                Natural  -----------------------------------------------
    Atom  No    Charge         Core      Valence    Rydberg      Total
 -----------------------------------------------------------------------
      C    1   -0.30661      0.99964     2.30135    0.00562     3.30661
      C    2    0.11342      0.99946     1.87577    0.01134     2.88658
      C    3    0.00275      0.99934     1.98518    0.01274     2.99725
      C    4    0.08086      0.99954     1.90595    0.01365     2.91914
      N    5   -0.15106      0.99970     2.64066    0.01070     3.65106
      N    6   -0.10765      0.99959     2.59553    0.01253     3.60765
      C    7    0.09011      0.99946     1.89776    0.01266     2.90989
      C    8   -0.08912      0.99952     2.08126    0.00834     3.08912
      C    9   -0.10506      0.99957     2.09594    0.00955     3.10506
      C   10   -0.09122      0.99956     2.08216    0.00949     3.09122
      C   11   -0.09275      0.99957     2.08253    0.01064     3.09275
      C   12   -0.11007      0.99953     2.10108    0.00946     3.11007
      C   13   -0.29779      0.99963     2.29340    0.00476     3.29779
      N   14   -0.32123      0.99965     2.81117    0.01041     3.82123
      C   15    0.34802      0.99970     1.63104    0.02124     2.65198
      O   16   -0.32463      0.99987     3.31838    0.00638     4.32463
      C   17   -0.33467      0.99962     2.33109    0.00396     3.33467
      H   18    0.11245      0.00000     0.38644    0.00111     0.38755
      H   19    0.11343      0.00000     0.38311    0.00346     0.38657
      H   20    0.10973      0.00000     0.38914    0.00113     0.39027
      H   21    0.11149      0.00000     0.38722    0.00129     0.38851
      H   22    0.09819      0.00000     0.40100    0.00081     0.40181
      H   23    0.09747      0.00000     0.40164    0.00089     0.40253
      H   24    0.10122      0.00000     0.39754    0.00124     0.39878
      H   25    0.10682      0.00000     0.39119    0.00199     0.39318
      H   26    0.10325      0.00000     0.39547    0.00129     0.39675
      H   27    0.10289      0.00000     0.39555    0.00155     0.39711
      H   28    0.10880      0.00000     0.39010    0.00110     0.39120
      H   29    0.19576      0.00000     0.30205    0.00218     0.30424
      H   30    0.11340      0.00000     0.38545    0.00116     0.38660
      H   31    0.11219      0.00000     0.38646    0.00134     0.38781
      H   32    0.10958      0.00000     0.38951    0.00090     0.39042
 =======================================================================
   * Total *   -0.00000     16.99294    43.81217    0.19489    61.00000

 Normal termination of Gaussian 16 at Mon Dec 14 14:21:26 2020.
