 Gaussian 16, Revision A.03,

 -----------------------------------------------------------
 # opt freq B3LYP/6-31G(d) empiricaldispersion=gd3bj scf=xqc
 -----------------------------------------------------------

 ------------------------------
 CID_13115539_JID_2801_neutraal
 ------------------------------
 Symbolic Z-matrix:
 Charge =  0 Multiplicity = 1

 SCF Done:  E(RB3LYP) =  -590.565932853     A.U. after   14 cycles
 SCF Done:  E(RB3LYP) =  -590.570003233     A.U. after   14 cycles
 SCF Done:  E(RB3LYP) =  -590.563196892     A.U. after   16 cycles
 SCF Done:  E(RB3LYP) =  -590.571105660     A.U. after   13 cycles
 SCF Done:  E(RB3LYP) =  -590.571164879     A.U. after   12 cycles
 SCF Done:  E(RB3LYP) =  -590.571408708     A.U. after   14 cycles
 SCF Done:  E(RB3LYP) =  -590.523350428     A.U. after   16 cycles
 SCF Done:  E(RB3LYP) =  -590.573948206     A.U. after   15 cycles
 SCF Done:  E(RB3LYP) =  -590.576319211     A.U. after   16 cycles
 SCF Done:  E(RB3LYP) =  -590.581986422     A.U. after   16 cycles
 SCF Done:  E(RB3LYP) =  -590.585018289     A.U. after    8 cycles
 SCF Done:  E(RB3LYP) =  -590.585018396     A.U. after    7 cycles
 SCF Done:  E(RB3LYP) =  -590.585018451     A.U. after    7 cycles
 SCF Done:  E(RB3LYP) =  -590.585018526     A.U. after    7 cycles
 SCF Done:  E(RB3LYP) =  -590.585018563     A.U. after    7 cycles
 SCF Done:  E(RB3LYP) =  -590.585018581     A.U. after    6 cycles
 Optimization completed.
    -- Stationary point found.
 Normal termination of Gaussian 16 at Wed Dec  9 18:02:48 2020.

 --------------------------------------------------------------------
 #N Geom=AllCheck Guess=TCheck SCRF=Check GenChk RB3LYP/6-31G(d) Freq
 --------------------------------------------------------------------

 Structure from the checkpoint file:  "JID_2801.chk"
 ------------------------------
 CID_13115539_JID_2801_neutraal
 ------------------------------
 Charge =  0 Multiplicity = 1

 SCF Done:  E(RB3LYP) =  -590.585018581     A.U. after    1 cycles

  Exact polarizability: 130.488  -5.584 114.323   0.001  -0.001  57.471
 Approx polarizability: 189.492 -10.256 201.160   0.004  -0.004  86.039

                      1                      2                      3
                      A                      A                      A
 Frequencies --     59.2276                89.7678               126.1784
 Red. masses --      7.1872                 3.4137                 1.2466
 Frc consts  --      0.0149                 0.0162                 0.0117
 IR Inten    --      0.0016                 0.5984                 0.0615

                      4                      5                      6
                      A                      A                      A
 Frequencies --    156.9962               185.9633               197.8157
 Red. masses --      2.4794                 5.8777                 4.0117
 Frc consts  --      0.0360                 0.1198                 0.0925
 IR Inten    --      0.1239                 2.7026                 1.7711

                      7                      8                      9
                      A                      A                      A
 Frequencies --    198.0073               280.9810               285.0338
 Red. masses --      3.3043                 4.0549                 3.7728
 Frc consts  --      0.0763                 0.1886                 0.1806
 IR Inten    --      1.9057                 4.1663                 1.5468

                     10                     11                     12
                      A                      A                      A
 Frequencies --    397.7176               406.7200               444.9907
 Red. masses --      3.8200                 5.2451                 6.2700
 Frc consts  --      0.3560                 0.5112                 0.7315
 IR Inten    --      0.0609                 1.9203                 0.0351

                     13                     14                     15
                      A                      A                      A
 Frequencies --    516.0159               623.5762               659.6343
 Red. masses --      4.5743                 4.4504                 4.0747
 Frc consts  --      0.7176                 1.0196                 1.0446
 IR Inten    --      2.0689                 0.0871                 3.8686

                     16                     17                     18
                      A                      A                      A
 Frequencies --    694.5375               719.5875               770.2692
 Red. masses --      6.2428                 3.7153                 7.6598
 Frc consts  --      1.7743                 1.1335                 2.6777
 IR Inten    --      0.1559                 2.5919                16.4595

                     19                     20                     21
                      A                      A                      A
 Frequencies --    800.5645               836.1374               837.9578
 Red. masses --      1.1730                 1.7804                 1.3393
 Frc consts  --      0.4429                 0.7334                 0.5541
 IR Inten    --     11.1716                 5.9618                14.1328

                     22                     23                     24
                      A                      A                      A
 Frequencies --    840.0483               900.6336               927.3405
 Red. masses --      5.0881                 2.3010                 4.0937
 Frc consts  --      2.1155                 1.0997                 2.0742
 IR Inten    --     33.7876                 0.2060                37.7774

                     25                     26                     27
                      A                      A                      A
 Frequencies --    976.7777              1025.9021              1062.2964
 Red. masses --      3.6479                 1.7796                 1.6689
 Frc consts  --      2.0506                 1.1036                 1.1096
 IR Inten    --      1.2909                 4.0456                64.9915

                     28                     29                     30
                      A                      A                      A
 Frequencies --   1078.8510              1082.8559              1103.7894
 Red. masses --      1.3007                 1.4585                 1.3450
 Frc consts  --      0.8920                 1.0076                 0.9655
 IR Inten    --      0.1648                 2.9375                 3.7352

                     31                     32                     33
                      A                      A                      A
 Frequencies --   1140.1534              1146.0330              1199.0059
 Red. masses --      1.0883                 1.9744                 2.3825
 Frc consts  --      0.8336                 1.5278                 2.0181
 IR Inten    --      2.6761                 2.1879                23.1684

                     34                     35                     36
                      A                      A                      A
 Frequencies --   1211.1830              1216.9488              1256.4413
 Red. masses --      6.2947                 1.3651                 1.9519
 Frc consts  --      5.4406                 1.1911                 1.8155
 IR Inten    --     62.7979                 0.2799                14.6288

                     37                     38                     39
                      A                      A                      A
 Frequencies --   1266.3389              1373.1349              1428.6286
 Red. masses --      5.1959                 4.9472                 3.8814
 Frc consts  --      4.9092                 5.4958                 4.6674
 IR Inten    --      5.4313                94.6169               197.5739

                     40                     41                     42
                      A                      A                      A
 Frequencies --   1447.4837              1463.9932              1480.0901
 Red. masses --      1.3254                 1.8874                 1.0866
 Frc consts  --      1.6361                 2.3834                 1.4025
 IR Inten    --      3.7588                57.6394                 3.6331

                     43                     44                     45
                      A                      A                      A
 Frequencies --   1501.5184              1518.2157              1523.5126
 Red. masses --      1.0421                 1.1539                 1.5289
 Frc consts  --      1.3843                 1.5670                 2.0908
 IR Inten    --      7.8031                12.0835                 6.5654

                     46                     47                     48
                      A                      A                      A
 Frequencies --   1592.1612              1624.9528              1680.5609
 Red. masses --      7.3561                12.2683                 7.1704
 Frc consts  --     10.9868                19.0861                11.9317
 IR Inten    --     38.8887               299.7721                33.6075

                     49                     50                     51
                      A                      A                      A
 Frequencies --   3050.4600              3102.5261              3149.2732
 Red. masses --      1.0380                 1.1018                 1.0997
 Frc consts  --      5.6908                 6.2484                 6.4264
 IR Inten    --     27.4288                12.9736                 7.3156

                     52                     53                     54
                      A                      A                      A
 Frequencies --   3166.5666              3168.5106              3186.3541
 Red. masses --      1.0555                 1.0614                 1.0878
 Frc consts  --      6.2356                 6.2781                 6.5068
 IR Inten    --     13.8661                15.4313                 6.8688

                     55                     56                     57
                      A                      A                      A
 Frequencies --   3266.4436              3274.2422              3307.7016
 Red. masses --      1.1141                 1.1139                 1.0983
 Frc consts  --      7.0039                 7.0357                 7.0798
 IR Inten    --      0.1763                 1.7511                 4.0207

 - Thermochemistry -
 -------------------
 Temperature   298.150 Kelvin.  Pressure   1.00000 Atm.
 Atom     1 has atomic number  6 and mass  12.00000

 Molecular mass:   167.05824 amu.
 Principal axes and moments of inertia in atomic units:
                           1         2         3
     Eigenvalues --  1404.610512148.860563400.81351
           X            0.99879  -0.04920  -0.00000
           Y            0.04920   0.99879  -0.00000
           Z            0.00000   0.00000   1.00000
 This molecule is an asymmetric top.
 Rotational symmetry number  1.
 Warning -- assumption of classical behavior for rotation
           may cause significant error
 Rotational temperatures (Kelvin)      0.06166     0.04031     0.02547
 Rotational constants (GHZ):           1.28487     0.83986     0.53068
 Zero-point vibrational energy     430826.8 (Joules/Mol)
                                  102.97007 (Kcal/Mol)
 Warning -- explicit consideration of  13 degrees of freedom as
           vibrations may cause significant error
 Vibrational temperatures:     85.22   129.16   181.54   225.88   267.56
          (Kelvin)            284.61   284.89   404.27   410.10   572.23
                              585.18   640.24   742.43   897.19   949.07
                              999.28  1035.33  1108.25  1151.83  1203.02
                             1205.63  1208.64  1295.81  1334.24  1405.37
                             1476.04  1528.41  1552.23  1557.99  1588.11
                             1640.43  1648.89  1725.10  1742.62  1750.92
                             1807.74  1821.98  1975.63  2055.48  2082.61
                             2106.36  2129.52  2160.35  2184.37  2191.99
                             2290.76  2337.94  2417.95  4388.93  4463.84
                             4531.10  4555.98  4558.78  4584.45  4699.68
                             4710.90  4759.04

 Zero-point correction=                           0.164093 (Hartree/Particle)
 Thermal correction to Energy=                    0.174825
 Thermal correction to Enthalpy=                  0.175769
 Thermal correction to Gibbs Free Energy=         0.127251
 Sum of electronic and zero-point Energies=           -590.420925
 Sum of electronic and thermal Energies=              -590.410194
 Sum of electronic and thermal Enthalpies=            -590.409250
 Sum of electronic and thermal Free Energies=         -590.457768

                     E (Thermal)             CV                S
                      KCal/Mol        Cal/Mol-Kelvin    Cal/Mol-Kelvin
 Total                  109.704             39.976            102.115
 Electronic               0.000              0.000              0.000
 Translational            0.889              2.981             41.248
 Rotational               0.889              2.981             30.707
 Vibrational            107.927             34.014             30.160
 Vibration     1          0.597              1.974              4.483
 Vibration     2          0.602              1.956              3.665
 Vibration     3          0.611              1.927              3.003
 Vibration     4          0.621              1.895              2.586
 Vibration     5          0.632              1.859              2.268
 Vibration     6          0.637              1.843              2.153
 Vibration     7          0.637              1.843              2.152
 Vibration     8          0.681              1.709              1.528
 Vibration     9          0.683              1.701              1.503
 Vibration    10          0.764              1.475              0.971
 Vibration    11          0.771              1.456              0.938
 Vibration    12          0.804              1.372              0.811
 Vibration    13          0.871              1.215              0.619

 Optimization completed.
    -- Stationary point found.
 Normal termination of Gaussian 16 at Wed Dec  9 18:07:13 2020.

 ----------------------------------------------------------------------
 # B3LYP/6-311++G(d,p) empiricaldispersion=gd3bj scf=xqc pop=npa geom=c
 heck
 ----------------------------------------------------------------------

 --------------------------------------
 CID_13115539_JID_2801_Energie_neutraal
 --------------------------------------
 Structure from the checkpoint file:  "JID_2801.chk"
 Charge =  0 Multiplicity = 1

 SCF Done:  E(RB3LYP) =  -590.750637559     A.U. after   15 cycles
 Normal termination of Gaussian 16 at Wed Dec  9 18:08:50 2020.

 ----------------------------------------------------------------------
 # B3LYP/6-311++G(d,p) empiricaldispersion=gd3bj scf=xqc pop=npa geom=c
 heck
 ----------------------------------------------------------------------

 ------------------------------------
 CID_13115539_JID_2801_Energie_kation
 ------------------------------------
 Structure from the checkpoint file:  "JID_2801.chk"
 Charge =  1 Multiplicity = 2

 SCF Done:  E(UB3LYP) =  -590.440550171     A.U. after   22 cycles
 Normal termination of Gaussian 16 at Wed Dec  9 18:12:26 2020.
 Gaussian 16:  ES64L-G16RevA.03 25-Dec-2016

 ----------------------------------------------------------------------
 # B3LYP/6-311++G(d,p) empiricaldispersion=gd3bj scf=xqc pop=npa geom=c
 heck
 ----------------------------------------------------------------------

 -----------------------------------
 CID_13115539_JID_2801_Energie_anion
 -----------------------------------
 Structure from the checkpoint file:  "JID_2801.chk"
 Charge = -1 Multiplicity = 2

                         Standard orientation:
 ---------------------------------------------------------------------
 Center     Atomic      Atomic             Coordinates (Angstroms)
 Number     Number       Type             X           Y           Z
 ---------------------------------------------------------------------
      1          6           0       -3.617759   -0.803822    0.000023
      2          6           0       -2.217707   -0.309407   -0.000000
      3          6           0       -1.644743    0.917366   -0.000046
      4          6           0       -0.228181    0.691571   -0.000026
      5          6           0       -0.004070   -0.673625    0.000042
      6          8           0       -1.225888   -1.274214    0.000031
      7          6           0        1.110270   -1.625331    0.000036
      8          6           0        2.420158   -1.418262   -0.747499
      9          6           0        2.420343   -1.418223    0.747359
     10          7           0        0.731114    1.745105    0.000008
     11          8           0        1.936826    1.458300    0.000106
     12          8           0        0.297244    2.900283   -0.000050
     13          1           0       -3.824824   -1.417678   -0.884699
     14          1           0       -3.824939   -1.417273    0.885005
     15          1           0       -4.306998    0.044289   -0.000209
     16          1           0       -2.129899    1.880370   -0.000072
     17          1           0        0.730916   -2.642692    0.000179
     18          1           0        2.804128   -2.284485   -1.278294
     19          1           0        2.566939   -0.465095   -1.239259
     20          1           0        2.567332   -0.465155    1.239232
     21          1           0        2.804232   -2.284560    1.278025
 ---------------------------------------------------------------------

 SCF Done:  E(UB3LYP) =  -590.773217520     A.U. after   22 cycles

 The electronic state is 2-A.
 Alpha  occ. eigenvalues --  -19.03991 -18.91413 -18.91332 -14.28769 -10.09213
 Alpha  occ. eigenvalues --  -10.07307 -10.07294 -10.05631 -10.04423 -10.03785
 Alpha  occ. eigenvalues --  -10.03756 -10.03130  -0.99552  -0.96872  -0.82239
 Alpha  occ. eigenvalues --   -0.72922  -0.67386  -0.65916  -0.58111  -0.54198
 Alpha  occ. eigenvalues --   -0.47138  -0.46893  -0.44171  -0.38790  -0.38062
 Alpha  occ. eigenvalues --   -0.35093  -0.34275  -0.32746  -0.32238  -0.31612
 Alpha  occ. eigenvalues --   -0.29659  -0.29052  -0.28974  -0.26548  -0.24608
 Alpha  occ. eigenvalues --   -0.23474  -0.22876  -0.18346  -0.17663  -0.14084
 Alpha  occ. eigenvalues --   -0.11122  -0.09927  -0.07700  -0.07552   0.04882
 Alpha virt. eigenvalues --    0.07720   0.08910   0.10849   0.11007   0.11404
 Alpha virt. eigenvalues --    0.12092   0.12985   0.14764   0.14775   0.15560
 Alpha virt. eigenvalues --    0.16140   0.16450   0.17442   0.18187   0.18889

  Beta  occ. eigenvalues --  -19.03869 -18.90933 -18.90718 -14.27921 -10.09295
  Beta  occ. eigenvalues --  -10.07301 -10.06851 -10.05678 -10.04508 -10.03720
  Beta  occ. eigenvalues --  -10.03692 -10.03081  -0.98264  -0.96594  -0.81193
  Beta  occ. eigenvalues --   -0.72762  -0.67313  -0.65672  -0.57795  -0.53227
  Beta  occ. eigenvalues --   -0.46909  -0.46737  -0.43984  -0.38689  -0.37641
  Beta  occ. eigenvalues --   -0.34866  -0.33791  -0.32329  -0.31354  -0.29735
  Beta  occ. eigenvalues --   -0.29401  -0.28728  -0.27486  -0.26176  -0.24502
  Beta  occ. eigenvalues --   -0.23349  -0.22756  -0.17927  -0.17483  -0.13589
  Beta  occ. eigenvalues --   -0.09436  -0.07371  -0.07010  -0.06679
  Beta virt. eigenvalues --    0.07696   0.08845   0.10634   0.10966   0.11388
  Beta virt. eigenvalues --    0.12035   0.12948   0.13340   0.14736   0.15435
  Beta virt. eigenvalues --    0.15873   0.16115   0.16387   0.17796   0.18132

 Mulliken charges and spin densities:
               1          2
     1  C   -0.634216   0.011534
     2  C    0.126762  -0.063615
     3  C   -0.055265   0.071539
     4  C   -0.258719  -0.115486
     5  C   -0.178675   0.370635
     6  O   -0.048069   0.018528
     7  C    0.269473  -0.075391
     8  C   -0.370710  -0.010602
     9  C   -0.370718  -0.010596
    10  N   -0.293655   0.275674
    11  O   -0.254824   0.192137
    12  O   -0.229282   0.236786
    13  H    0.136725  -0.003577
    14  H    0.136726  -0.003579
    15  H    0.152471  -0.000268
    16  H    0.189976  -0.003904
    17  H    0.216761   0.000108
    18  H    0.080346   0.012850
    19  H    0.152271   0.042192
    20  H    0.152290   0.042198
    21  H    0.080332   0.012837
 Sum of Mulliken charges =  -1.00000   1.00000

 Dipole moment (field-independent basis, Debye):
    X=             -4.7260    Y=             -6.9701    Z=             -0.0001  Tot=              8.4213
 Quadrupole moment (field-independent basis, Debye-Ang):
   XX=            -87.1573   YY=           -100.8633   ZZ=            -76.4621
   XY=             -8.4563   XZ=             -0.0003   YZ=             -0.0001

 Summary of Natural Population Analysis:

                                       Natural Population
                Natural  -----------------------------------------------
    Atom  No    Charge         Core      Valence    Rydberg      Total
 -----------------------------------------------------------------------
      C    1   -0.30013      0.99963     2.29620    0.00429     3.30013
      C    2    0.10907      0.99948     1.87912    0.01233     2.89093
      C    3   -0.12823      0.99946     2.11993    0.00884     3.12823
      C    4   -0.01922      0.99939     2.00493    0.01491     3.01922
      C    5    0.24209      0.99945     1.74080    0.01766     2.75791
      O    6   -0.24216      0.99985     3.23255    0.00976     4.24216
      C    7   -0.13884      0.99958     2.13020    0.00905     3.13884
      C    8   -0.18593      0.99963     2.17979    0.00652     3.18593
      C    9   -0.18592      0.99963     2.17978    0.00651     3.18592
      N   10    0.33135      0.99969     2.14438    0.02458     3.16865
      O   11   -0.22300      0.99990     3.21416    0.00894     4.22300
      O   12   -0.19045      0.99990     3.18303    0.00752     4.19045
      H   13    0.09704      0.00000     0.40145    0.00151     0.40296
      H   14    0.09704      0.00000     0.40145    0.00151     0.40296
      H   15    0.10285      0.00000     0.39640    0.00075     0.39715
      H   16    0.11418      0.00000     0.38477    0.00105     0.38582
      H   17    0.10318      0.00000     0.39571    0.00111     0.39682
      H   18    0.08785      0.00000     0.41096    0.00119     0.41215
      H   19    0.12069      0.00000     0.37810    0.00121     0.37931
      H   20    0.12069      0.00000     0.37810    0.00121     0.37931
      H   21    0.08785      0.00000     0.41097    0.00119     0.41215
 =======================================================================
   * Total *   -0.00000     11.99558    31.86277    0.14165    44.00000

 Normal termination of Gaussian 16 at Wed Dec  9 18:16:17 2020.
