 Gaussian 16, Revision A.03,

 -----------------------------------------------------------
 # opt freq B3LYP/6-31G(d) empiricaldispersion=gd3bj scf=xqc
 -----------------------------------------------------------

 -------------------------------
 CID_131292675_JID_4952_neutraal
 -------------------------------
 Symbolic Z-matrix:
 Charge =  0 Multiplicity = 1

 SCF Done:  E(RB3LYP) =  -593.870773488     A.U. after   15 cycles
 SCF Done:  E(RB3LYP) =  -593.896011125     A.U. after   14 cycles
 SCF Done:  E(RB3LYP) =  -593.897972939     A.U. after   14 cycles
 SCF Done:  E(RB3LYP) =  -593.898916549     A.U. after   12 cycles
 SCF Done:  E(RB3LYP) =  -593.899094973     A.U. after   12 cycles
 SCF Done:  E(RB3LYP) =  -593.899215259     A.U. after   12 cycles
 SCF Done:  E(RB3LYP) =  -593.899287791     A.U. after   11 cycles
 SCF Done:  E(RB3LYP) =  -593.899316303     A.U. after   11 cycles
 SCF Done:  E(RB3LYP) =  -593.899357292     A.U. after   11 cycles
 SCF Done:  E(RB3LYP) =  -593.899364632     A.U. after   10 cycles
 SCF Done:  E(RB3LYP) =  -593.899365195     A.U. after    8 cycles
 SCF Done:  E(RB3LYP) =  -593.899365452     A.U. after    8 cycles
 SCF Done:  E(RB3LYP) =  -593.899365481     A.U. after    7 cycles
 Optimization completed.
    -- Stationary point found.
 Normal termination of Gaussian 16 at Thu Dec 10 10:59:09 2020.

 --------------------------------------------------------------------
 #N Geom=AllCheck Guess=TCheck SCRF=Check GenChk RB3LYP/6-31G(d) Freq
 --------------------------------------------------------------------

 Structure from the checkpoint file:  "JID_4952.chk"
 -------------------------------
 CID_131292675_JID_4952_neutraal
 -------------------------------
 Charge =  0 Multiplicity = 1

 SCF Done:  E(RB3LYP) =  -593.899365481     A.U. after    1 cycles

  Exact polarizability: 189.560  -2.755 132.263  14.917  12.317  68.498
 Approx polarizability: 270.518  -4.535 237.207  30.047  27.890 108.560

                      1                      2                      3
                      A                      A                      A
 Frequencies --     23.7922                63.5678                87.6725
 Red. masses --      4.9524                 6.3397                 4.4346
 Frc consts  --      0.0017                 0.0151                 0.0201
 IR Inten    --      1.7947                 2.5727                 6.4301

                      4                      5                      6
                      A                      A                      A
 Frequencies --    150.0203               171.2874               212.0800
 Red. masses --      4.9620                 5.3590                 2.8195
 Frc consts  --      0.0658                 0.0926                 0.0747
 IR Inten    --      2.4115                 1.9866                 5.8123

                      7                      8                      9
                      A                      A                      A
 Frequencies --    249.5995               279.3011               354.3518
 Red. masses --      2.8460                 3.5753                 1.1094
 Frc consts  --      0.1045                 0.1643                 0.0821
 IR Inten    --      2.5251                 0.5260               115.8316

                     10                     11                     12
                      A                      A                      A
 Frequencies --    362.3457               378.9595               396.6988
 Red. masses --      3.7647                 5.0108                 3.3265
 Frc consts  --      0.2912                 0.4240                 0.3084
 IR Inten    --      9.5888                 3.2588                 0.7041

                     13                     14                     15
                      A                      A                      A
 Frequencies --    428.3679               442.3470               471.3476
 Red. masses --      2.5871                 3.8348                 3.6576
 Frc consts  --      0.2797                 0.4421                 0.4788
 IR Inten    --      3.9110                 0.4471                 2.3737

                     16                     17                     18
                      A                      A                      A
 Frequencies --    481.9488               576.7731               596.0337
 Red. masses --      3.2213                 4.1334                 3.2086
 Frc consts  --      0.4408                 0.8102                 0.6716
 IR Inten    --      2.3551                 2.9311                 2.5738

                     19                     20                     21
                      A                      A                      A
 Frequencies --    605.2347               653.2890               736.7381
 Red. masses --      3.1824                 4.1500                 4.0811
 Frc consts  --      0.6868                 1.0435                 1.3051
 IR Inten    --      7.1504                 4.5559                 0.9251

                     22                     23                     24
                      A                      A                      A
 Frequencies --    765.9080               803.6433               817.0165
 Red. masses --      5.8052                 1.4401                 3.0833
 Frc consts  --      2.0064                 0.5480                 1.2126
 IR Inten    --      4.5942                24.1016                 3.0656

                     25                     26                     27
                      A                      A                      A
 Frequencies --    850.9441               869.8484               889.7116
 Red. masses --      2.8050                 1.5536                 1.6283
 Frc consts  --      1.1967                 0.6926                 0.7594
 IR Inten    --      1.7103                 2.4290                19.0310

                     28                     29                     30
                      A                      A                      A
 Frequencies --    897.9705               918.1570               925.8165
 Red. masses --      3.0250                 1.7651                 1.6641
 Frc consts  --      1.4371                 0.8767                 0.8404
 IR Inten    --      3.5349                 1.1958                 4.2028

                     31                     32                     33
                      A                      A                      A
 Frequencies --    960.9272               967.7064              1009.4583
 Red. masses --      1.9424                 3.4185                 2.5955
 Frc consts  --      1.0568                 1.8862                 1.5583
 IR Inten    --      1.2335                16.4723                 0.9089

                     34                     35                     36
                      A                      A                      A
 Frequencies --   1039.7860              1130.0808              1162.2284
 Red. masses --      2.1882                 2.1244                 1.2994
 Frc consts  --      1.3939                 1.5985                 1.0342
 IR Inten    --      1.7017                50.6538                 3.4978

                     37                     38                     39
                      A                      A                      A
 Frequencies --   1168.5334              1174.0611              1200.1479
 Red. masses --      1.6377                 1.3312                 1.2230
 Frc consts  --      1.3175                 1.0811                 1.0379
 IR Inten    --      8.0524                 8.6405                 1.8554

                     40                     41                     42
                      A                      A                      A
 Frequencies --   1214.8259              1238.5814              1245.5439
 Red. masses --      1.4438                 1.6279                 1.4825
 Frc consts  --      1.2554                 1.4714                 1.3551
 IR Inten    --    114.2640                 6.1769                 4.8223

                     43                     44                     45
                      A                      A                      A
 Frequencies --   1266.9936              1315.0093              1341.8757
 Red. masses --      1.4146                 3.5928                 1.8062
 Frc consts  --      1.3380                 3.6606                 1.9162
 IR Inten    --     27.5626                43.1643                22.4197

                     46                     47                     48
                      A                      A                      A
 Frequencies --   1353.3615              1373.8664              1387.7073
 Red. masses --      1.6348                 1.5674                 1.7078
 Frc consts  --      1.7641                 1.7431                 1.9376
 IR Inten    --     56.6402                27.4608                29.1681

                     49                     50                     51
                      A                      A                      A
 Frequencies --   1417.6836              1469.9504              1496.0252
 Red. masses --      3.5985                 1.1399                 1.0964
 Frc consts  --      4.2612                 1.4511                 1.4458
 IR Inten    --     62.3007                 8.5230                 7.7613

                     52                     53                     54
                      A                      A                      A
 Frequencies --   1501.6889              1511.4061              1540.7478
 Red. masses --      2.9750                 1.1202                 3.1485
 Frc consts  --      3.9528                 1.5077                 4.4036
 IR Inten    --      9.5216                 4.9623                30.2460

                     55                     56                     57
                      A                      A                      A
 Frequencies --   1640.9402              1675.5867              1684.9684
 Red. masses --      6.3742                 6.6320                 6.8459
 Frc consts  --     10.1126                10.9706                11.4516
 IR Inten    --     67.7800                14.6139                40.0475

                     58                     59                     60
                      A                      A                      A
 Frequencies --   2367.9781              3039.7872              3048.1426
 Red. masses --     12.5926                 1.0670                 1.0623
 Frc consts  --     41.6028                 5.8092                 5.8151
 IR Inten    --      7.4163                 6.1574                36.9239

                     61                     62                     63
                      A                      A                      A
 Frequencies --   3060.1964              3082.5287              3095.7929
 Red. masses --      1.0601                 1.0933                 1.1011
 Frc consts  --      5.8493                 6.1208                 6.2175
 IR Inten    --     11.4504                 3.1057                17.4655

                     64                     65                     66
                      A                      A                      A
 Frequencies --   3106.1945              3166.6672              3195.1217
 Red. masses --      1.1034                 1.0882                 1.0932
 Frc consts  --      6.2724                 6.4293                 6.5755
 IR Inten    --     12.8471                23.9952                18.6616

                     67                     68                     69
                      A                      A                      A
 Frequencies --   3203.8456              3208.9239              3752.9951
 Red. masses --      1.0942                 1.0914                 1.0659
 Frc consts  --      6.6172                 6.6215                 8.8453
 IR Inten    --     23.2622                 5.1084                54.2965

 - Thermochemistry -
 -------------------
 Temperature   298.150 Kelvin.  Pressure   1.00000 Atm.
 Atom     1 has atomic number  6 and mass  12.00000

 Molecular mass:   185.08406 amu.
 Principal axes and moments of inertia in atomic units:
                           1         2         3
     Eigenvalues --  1120.470425098.702305924.00095
           X            0.99992  -0.01102   0.00537
           Y            0.01090   0.99970   0.02203
           Z           -0.00561  -0.02197   0.99974
 This molecule is an asymmetric top.
 Rotational symmetry number  1.
 Warning -- assumption of classical behavior for rotation
           may cause significant error
 Rotational temperatures (Kelvin)      0.07730     0.01699     0.01462
 Rotational constants (GHZ):           1.61070     0.35396     0.30465
 Zero-point vibrational energy     528023.5 (Joules/Mol)
                                  126.20065 (Kcal/Mol)
 Warning -- explicit consideration of  19 degrees of freedom as
           vibrations may cause significant error
 Vibrational temperatures:     34.23    91.46   126.14   215.85   246.44
          (Kelvin)            305.14   359.12   401.85   509.83   521.33
                              545.24   570.76   616.33   636.44   678.16
                              693.42   829.85   857.56   870.80   939.94
                             1060.00  1101.97  1156.26  1175.50  1224.32
                             1251.52  1280.10  1291.98  1321.02  1332.04
                             1382.56  1392.31  1452.39  1496.02  1625.93
                             1672.19  1681.26  1689.21  1726.75  1747.86
                             1782.04  1792.06  1822.92  1892.01  1930.66
                             1947.19  1976.69  1996.60  2039.73  2114.93
                             2152.45  2160.60  2174.58  2216.79  2360.95
                             2410.80  2424.29  3406.99  4373.58  4385.60
                             4402.94  4435.07  4454.16  4469.12  4556.13
                             4597.07  4609.62  4616.93  5399.72

 Zero-point correction=                           0.201114 (Hartree/Particle)
 Thermal correction to Energy=                    0.213200
 Thermal correction to Enthalpy=                  0.214145
 Thermal correction to Gibbs Free Energy=         0.161847
 Sum of electronic and zero-point Energies=           -593.698252
 Sum of electronic and thermal Energies=              -593.686165
 Sum of electronic and thermal Enthalpies=            -593.685221
 Sum of electronic and thermal Free Energies=         -593.737518

                     E (Thermal)             CV                S
                      KCal/Mol        Cal/Mol-Kelvin    Cal/Mol-Kelvin
 Total                  133.785             46.939            110.069
 Electronic               0.000              0.000              0.000
 Translational            0.889              2.981             41.553
 Rotational               0.889              2.981             31.893
 Vibrational            132.008             40.978             36.623
 Vibration     1          0.593              1.985              6.289
 Vibration     2          0.597              1.972              4.343
 Vibration     3          0.601              1.958              3.711
 Vibration     4          0.618              1.903              2.672
 Vibration     5          0.626              1.878              2.421
 Vibration     6          0.643              1.822              2.026
 Vibration     7          0.662              1.763              1.733
 Vibration     8          0.680              1.712              1.538
 Vibration     9          0.730              1.566              1.147
 Vibration    10          0.736              1.550              1.112
 Vibration    11          0.749              1.515              1.043
 Vibration    12          0.763              1.477              0.975
 Vibration    13          0.790              1.408              0.864
 Vibration    14          0.802              1.378              0.819
 Vibration    15          0.828              1.314              0.734
 Vibration    16          0.838              1.290              0.705
 Vibration    17          0.933              1.082              0.491
 Vibration    18          0.954              1.040              0.457
 Vibration    19          0.964              1.021              0.441

 Optimization completed.
    -- Stationary point found.
 Normal termination of Gaussian 16 at Thu Dec 10 11:06:11 2020.

 ----------------------------------------------------------------------
 # B3LYP/6-311++G(d,p) empiricaldispersion=gd3bj scf=xqc pop=npa geom=c
 heck
 ----------------------------------------------------------------------

 ---------------------------------------
 CID_131292675_JID_4952_Energie_neutraal
 ---------------------------------------
 Structure from the checkpoint file:  "JID_4952.chk"
 Charge =  0 Multiplicity = 1

 SCF Done:  E(RB3LYP) =  -594.063536624     A.U. after   15 cycles
 Normal termination of Gaussian 16 at Thu Dec 10 11:09:25 2020.

 ----------------------------------------------------------------------
 # B3LYP/6-311++G(d,p) empiricaldispersion=gd3bj scf=xqc pop=npa geom=c
 heck
 ----------------------------------------------------------------------

 -------------------------------------
 CID_131292675_JID_4952_Energie_kation
 -------------------------------------
 Structure from the checkpoint file:  "JID_4952.chk"
 Charge =  1 Multiplicity = 2

 SCF Done:  E(UB3LYP) =  -593.788456531     A.U. after   19 cycles
 Normal termination of Gaussian 16 at Thu Dec 10 11:13:58 2020.
 Gaussian 16:  ES64L-G16RevA.03 25-Dec-2016

 ----------------------------------------------------------------------
 # B3LYP/6-311++G(d,p) empiricaldispersion=gd3bj scf=xqc pop=npa geom=c
 heck
 ----------------------------------------------------------------------

 ------------------------------------
 CID_131292675_JID_4952_Energie_anion
 ------------------------------------
 Structure from the checkpoint file:  "JID_4952.chk"
 Charge = -1 Multiplicity = 2

                         Standard orientation:
 ---------------------------------------------------------------------
 Center     Atomic      Atomic             Coordinates (Angstroms)
 Number     Number       Type             X           Y           Z
 ---------------------------------------------------------------------
      1          6           0        0.664144    0.574716    0.691007
      2          6           0        1.352426   -0.758540    0.448891
      3          6           0        0.448805   -1.666887    0.019471
      4          6           0       -0.878794   -1.063184   -0.072109
      5          6           0       -0.774130    0.288097    0.330288
      6          6           0       -1.879831    1.119669    0.346353
      7          6           0       -3.118680    0.590216   -0.046202
      8          6           0       -3.233184   -0.747101   -0.445832
      9          6           0       -2.112445   -1.580692   -0.460716
     10          8           0       -4.192611    1.439179   -0.017150
     11          6           0        2.815478   -0.994029    0.667167
     12          6           0        3.724207   -0.418738   -0.453615
     13          6           0        3.698959    1.043287   -0.524599
     14          7           0        3.666428    2.203232   -0.558411
     15          1           0        0.773431    0.895692    1.737050
     16          1           0        1.092085    1.382117    0.083438
     17          1           0        0.665572   -2.704272   -0.218899
     18          1           0       -1.822049    2.160515    0.649539
     19          1           0       -4.204336   -1.135630   -0.746763
     20          1           0       -2.212100   -2.616474   -0.773783
     21          1           0       -4.980157    0.955965   -0.310830
     22          1           0        3.139099   -0.567793    1.625340
     23          1           0        3.010701   -2.071222    0.711614
     24          1           0        4.761334   -0.734489   -0.287851
     25          1           0        3.410569   -0.821351   -1.423402
 ---------------------------------------------------------------------

 SCF Done:  E(UB3LYP) =  -594.057535149     A.U. after   33 cycles
 SCF Done:  E(UB3LYP) =  -594.057535149     a.u. after    1 cycles

 The electronic state is 2-A.
 Alpha  occ. eigenvalues --  -19.05497 -14.21781 -10.13476 -10.11872 -10.11835
 Alpha  occ. eigenvalues --  -10.09206 -10.08020 -10.07921 -10.07831 -10.07679
 Alpha  occ. eigenvalues --  -10.07512 -10.07325 -10.07192 -10.06719  -0.96516
 Alpha  occ. eigenvalues --   -0.81607  -0.78109  -0.73053  -0.69937  -0.66197
 Alpha  occ. eigenvalues --   -0.62373  -0.59882  -0.56876  -0.51395  -0.49658
 Alpha  occ. eigenvalues --   -0.44975  -0.43415  -0.41644  -0.39592  -0.38104
 Alpha  occ. eigenvalues --   -0.36509  -0.35117  -0.34272  -0.33317  -0.32348
 Alpha  occ. eigenvalues --   -0.31006  -0.30310  -0.28724  -0.28390  -0.27570
 Alpha  occ. eigenvalues --   -0.26260  -0.25056  -0.24735  -0.23913  -0.23552
 Alpha  occ. eigenvalues --   -0.22865  -0.18036  -0.15542  -0.10575   0.03807
 Alpha virt. eigenvalues --    0.05035   0.07045   0.07687   0.07863   0.08667
 Alpha virt. eigenvalues --    0.08795   0.08921   0.10245   0.10944   0.11560
 Alpha virt. eigenvalues --    0.11885   0.12590   0.12924   0.13088   0.13806

  Beta  occ. eigenvalues --  -19.05450 -14.21775 -10.13430 -10.11863 -10.11780
  Beta  occ. eigenvalues --  -10.09182 -10.07988 -10.07920 -10.07804 -10.07613
  Beta  occ. eigenvalues --  -10.07506 -10.07334 -10.07188 -10.06667  -0.96416
  Beta  occ. eigenvalues --   -0.81585  -0.78037  -0.72965  -0.69859  -0.66140
  Beta  occ. eigenvalues --   -0.62272  -0.59813  -0.56788  -0.51331  -0.49588
  Beta  occ. eigenvalues --   -0.44857  -0.43334  -0.41567  -0.39517  -0.38032
  Beta  occ. eigenvalues --   -0.36428  -0.35041  -0.34196  -0.33257  -0.32270
  Beta  occ. eigenvalues --   -0.30887  -0.30243  -0.28671  -0.28338  -0.27551
  Beta  occ. eigenvalues --   -0.26203  -0.25002  -0.24618  -0.23856  -0.23520
  Beta  occ. eigenvalues --   -0.22812  -0.17789  -0.15452  -0.10323
  Beta virt. eigenvalues --    0.06422   0.06665   0.07548   0.07899   0.08255
  Beta virt. eigenvalues --    0.08898   0.09191   0.09486   0.10551   0.11340
  Beta virt. eigenvalues --    0.11776   0.12078   0.12630   0.13011   0.13213

 Mulliken charges and spin densities:
               1          2
     1  C   -0.636705  -0.305948
     2  C    0.015523   0.896959
     3  C    0.618116  -0.996627
     4  C    0.454890  -0.235293
     5  C    0.079928   0.390457
     6  C   -0.583592   0.181619
     7  C    0.801866  -1.332954
     8  C    0.395630  -0.222459
     9  C   -0.926588   0.731549
    10  O   -0.277138   0.046743
    11  C    0.184717  -0.547243
    12  C    0.585405  -0.716809
    13  C    0.706341  -0.874232
    14  N   -0.373986   0.047205
    15  H    0.037098   0.140195
    16  H    0.183081  -0.053284
    17  H   -0.178734   0.311307
    18  H    0.135525   0.029133
    19  H   -0.660084   0.799000
    20  H    0.071542   0.062800
    21  H   -0.158960   0.429602
    22  H   -0.109776   0.273085
    23  H   -0.664796   0.868197
    24  H   -0.737198   0.950258
    25  H    0.037896   0.126741
 Sum of Mulliken charges =  -1.00000   1.00000

 Dipole moment (field-independent basis, Debye):
    X=             -2.4686    Y=              0.2076    Z=              0.1838  Tot=              2.4841
 Quadrupole moment (field-independent basis, Debye-Ang):
   XX=           -193.5082   YY=           -119.9834   ZZ=           -103.0581
   XY=              6.1292   XZ=             -5.0355   YZ=              4.9947

 Summary of Natural Population Analysis:

                                       Natural Population
                Natural  -----------------------------------------------
    Atom  No    Charge         Core      Valence    Rydberg      Total
 -----------------------------------------------------------------------
      C    1   -0.21781      0.99956     2.21117    0.00707     3.21781
      C    2    0.00912      0.99951     1.98076    0.01061     2.99088
      C    3   -0.09408      0.99943     2.08594    0.00871     3.09408
      C    4   -0.04545      0.99948     2.03753    0.00845     3.04545
      C    5    0.01496      0.99950     1.97795    0.00759     2.98504
      C    6   -0.12902      0.99947     2.12112    0.00843     3.12902
      C    7    0.16390      0.99940     1.82313    0.01357     2.83610
      C    8   -0.14569      0.99953     2.13601    0.01014     3.14569
      C    9   -0.08600      0.99953     2.07819    0.00828     3.08600
      O   10   -0.34257      0.99988     3.33582    0.00688     4.34257
      C   11   -0.19492      0.99957     2.18389    0.01146     3.19492
      C   12   -0.24280      0.99953     2.23391    0.00935     3.24280
      C   13    0.16626      0.99966     1.81764    0.01644     2.83374
      N   14   -0.19392      0.99979     2.68311    0.01102     3.69392
      H   15    0.11371      0.00000     0.38522    0.00107     0.38629
      H   16    0.12215      0.00000     0.37659    0.00126     0.37785
      H   17    0.10069      0.00000     0.39839    0.00092     0.39931
      H   18    0.10428      0.00000     0.39458    0.00114     0.39572
      H   19    0.10025      0.00000     0.39804    0.00171     0.39975
      H   20    0.09845      0.00000     0.40039    0.00116     0.40155
      H   21    0.23635      0.00000     0.25734    0.00630     0.26365
      H   22    0.10487      0.00000     0.39323    0.00190     0.39513
      H   23    0.11127      0.00000     0.38538    0.00335     0.38873
      H   24    0.12689      0.00000     0.36679    0.00632     0.37311
      H   25    0.11909      0.00000     0.37934    0.00157     0.38091
 =======================================================================
   * Total *   -0.00000     13.99384    34.84146    0.16470    49.00000

 Normal termination of Gaussian 16 at Thu Dec 10 11:21:43 2020.
