 Gaussian 16, Revision A.03,

 -----------------------------------------------------------
 # opt freq B3LYP/6-31G(d) empiricaldispersion=gd3bj scf=xqc
 -----------------------------------------------------------

 -------------------------------
 CID_130992590_JID_3900_neutraal
 -------------------------------
 Symbolic Z-matrix:
 Charge =  0 Multiplicity = 1

 SCF Done:  E(RB3LYP) =  -608.720068596     A.U. after   14 cycles
 SCF Done:  E(RB3LYP) =  -608.726487044     A.U. after   12 cycles
 SCF Done:  E(RB3LYP) =  -608.727529433     A.U. after   12 cycles
 SCF Done:  E(RB3LYP) =  -608.727828512     A.U. after   12 cycles
 SCF Done:  E(RB3LYP) =  -608.727837680     A.U. after   12 cycles
 SCF Done:  E(RB3LYP) =  -608.728237614     A.U. after   11 cycles
 SCF Done:  E(RB3LYP) =  -608.728285110     A.U. after   10 cycles
 SCF Done:  E(RB3LYP) =  -608.728303251     A.U. after   10 cycles
 SCF Done:  E(RB3LYP) =  -608.728311133     A.U. after    8 cycles
 SCF Done:  E(RB3LYP) =  -608.728315340     A.U. after    8 cycles
 SCF Done:  E(RB3LYP) =  -608.728497348     A.U. after   11 cycles
 SCF Done:  E(RB3LYP) =  -608.728506012     A.U. after   10 cycles
 SCF Done:  E(RB3LYP) =  -608.728517706     A.U. after   10 cycles
 SCF Done:  E(RB3LYP) =  -608.728518039     A.U. after    8 cycles
 SCF Done:  E(RB3LYP) =  -608.728518125     A.U. after    7 cycles
 Optimization completed.
    -- Stationary point found.
 Normal termination of Gaussian 16 at Mon Dec 14 16:42:17 2020.

 --------------------------------------------------------------------
 #N Geom=AllCheck Guess=TCheck SCRF=Check GenChk RB3LYP/6-31G(d) Freq
 --------------------------------------------------------------------

 Structure from the checkpoint file:  "JID_3900.chk"
 -------------------------------
 CID_130992590_JID_3900_neutraal
 -------------------------------
 Charge =  0 Multiplicity = 1

 SCF Done:  E(RB3LYP) =  -608.728518125     A.U. after    1 cycles

  Exact polarizability: 125.430   2.424 110.234  -6.551   1.195  90.301
 Approx polarizability: 167.315  -1.068 173.922 -15.650   6.299 134.889

                      1                      2                      3
                      A                      A                      A
 Frequencies --     43.7866                83.8050               102.7388
 Red. masses --      3.6925                 2.5944                 3.3156
 Frc consts  --      0.0042                 0.0107                 0.0206
 IR Inten    --      3.2646                 0.0992                 9.0195

                      4                      5                      6
                      A                      A                      A
 Frequencies --    110.6643               163.0583               200.0166
 Red. masses --      1.8730                 1.3258                 3.3538
 Frc consts  --      0.0135                 0.0208                 0.0791
 IR Inten    --      0.8156                 0.4845                 2.7922

                      7                      8                      9
                      A                      A                      A
 Frequencies --    206.9026               215.7003               223.8865
 Red. masses --      4.1315                 1.8004                 1.4055
 Frc consts  --      0.1042                 0.0494                 0.0415
 IR Inten    --      5.7645                 2.2930                 3.1019

                     10                     11                     12
                      A                      A                      A
 Frequencies --    253.3048               281.4679               289.6261
 Red. masses --      1.6773                 1.9163                 1.2379
 Frc consts  --      0.0634                 0.0894                 0.0612
 IR Inten    --      1.0273                 0.7287                 2.9780

                     13                     14                     15
                      A                      A                      A
 Frequencies --    315.4193               320.7321               337.0321
 Red. masses --      1.3014                 2.5782                 2.5414
 Frc consts  --      0.0763                 0.1563                 0.1701
 IR Inten    --     92.8181                17.6107                13.2010

                     16                     17                     18
                      A                      A                      A
 Frequencies --    349.4171               386.8169               425.2502
 Red. masses --      3.1312                 2.8919                 3.3170
 Frc consts  --      0.2252                 0.2549                 0.3534
 IR Inten    --     14.4598                 0.2489                 3.4576

                     19                     20                     21
                      A                      A                      A
 Frequencies --    446.6808               507.2861               611.1272
 Red. masses --      3.0431                 3.5113                 3.3704
 Frc consts  --      0.3577                 0.5324                 0.7416
 IR Inten    --      3.2291                 3.9146                19.3190

                     22                     23                     24
                      A                      A                      A
 Frequencies --    674.4458               692.3412               731.9400
 Red. masses --      4.7255                 4.7902                 7.0227
 Frc consts  --      1.2665                 1.3528                 2.2167
 IR Inten    --      5.9331                 3.9903                10.5717

                     25                     26                     27
                      A                      A                      A
 Frequencies --    759.1633               810.3997               818.6174
 Red. masses --      4.0814                 2.8726                 1.6141
 Frc consts  --      1.3859                 1.1115                 0.6373
 IR Inten    --     28.6347                 9.3435                10.1309

                     28                     29                     30
                      A                      A                      A
 Frequencies --    869.7906               923.1456               943.0184
 Red. masses --      1.3465                 2.0594                 1.6107
 Frc consts  --      0.6002                 1.0340                 0.8439
 IR Inten    --    100.0650                12.6173                 2.4493

                     31                     32                     33
                      A                      A                      A
 Frequencies --    972.2430               976.9423              1032.3975
 Red. masses --      1.6483                 6.3291                 1.4363
 Frc consts  --      0.9180                 3.5590                 0.9020
 IR Inten    --      5.8937                 1.9081                17.0821

                     34                     35                     36
                      A                      A                      A
 Frequencies --   1054.0618              1085.8492              1095.9285
 Red. masses --      4.8144                 3.8194                 1.6706
 Frc consts  --      3.1516                 2.6533                 1.1822
 IR Inten    --     36.8727                21.2315                23.1048

                     37                     38                     39
                      A                      A                      A
 Frequencies --   1108.9806              1140.0913              1171.1127
 Red. masses --      2.4726                 1.9647                 1.4133
 Frc consts  --      1.7917                 1.5046                 1.1420
 IR Inten    --      7.7460                 9.2888                 1.7141

                     40                     41                     42
                      A                      A                      A
 Frequencies --   1178.3027              1197.1360              1219.3117
 Red. masses --      1.2993                 1.8087                 1.7615
 Frc consts  --      1.0628                 1.5272                 1.5430
 IR Inten    --      3.3524                37.7975                54.8049

                     43                     44                     45
                      A                      A                      A
 Frequencies --   1230.6909              1260.1230              1281.6305
 Red. masses --      1.8757                 2.9656                 2.1795
 Frc consts  --      1.6738                 2.7745                 2.1093
 IR Inten    --     12.2477                 7.4313                 8.5917

                     46                     47                     48
                      A                      A                      A
 Frequencies --   1317.6065              1351.0404              1390.7677
 Red. masses --      2.0234                 1.9114                 2.8861
 Frc consts  --      2.0697                 2.0556                 3.2890
 IR Inten    --     24.5261                 9.8919                 9.3266

                     49                     50                     51
                      A                      A                      A
 Frequencies --   1414.4605              1423.4111              1436.2420
 Red. masses --      1.4346                 1.2391                 3.7028
 Frc consts  --      1.6911                 1.4792                 4.5002
 IR Inten    --      9.1320                10.5472                16.8204

                     52                     53                     54
                      A                      A                      A
 Frequencies --   1445.2305              1471.1618              1484.9906
 Red. masses --      1.2350                 1.4440                 1.1843
 Frc consts  --      1.5198                 1.8413                 1.5387
 IR Inten    --      8.2604                 7.7925                 1.2946

                     55                     56                     57
                      A                      A                      A
 Frequencies --   1499.7151              1507.7654              1514.7724
 Red. masses --      1.1484                 1.0912                 1.0542
 Frc consts  --      1.5218                 1.4616                 1.4251
 IR Inten    --     12.8823                 5.4414                 4.2427

                     58                     59                     60
                      A                      A                      A
 Frequencies --   1524.2351              1528.3998              1537.1908
 Red. masses --      1.1020                 1.0811                 2.3262
 Frc consts  --      1.5084                 1.4879                 3.2386
 IR Inten    --      5.3964                 3.2739                 2.6977

                     61                     62                     63
                      A                      A                      A
 Frequencies --   1541.5883              1544.0619              1553.8329
 Red. masses --      1.1492                 1.0823                 1.0794
 Frc consts  --      1.6091                 1.5203                 1.5355
 IR Inten    --      6.0647                 0.9908                14.2523

                     64                     65                     66
                      A                      A                      A
 Frequencies --   1561.2809              1566.3923              2989.9979
 Red. masses --      2.9795                 1.2948                 1.0567
 Frc consts  --      4.2792                 1.8717                 5.5660
 IR Inten    --     56.4506                12.4431                84.3411

                     67                     68                     69
                      A                      A                      A
 Frequencies --   3048.4905              3056.4224              3066.9968
 Red. masses --      1.0789                 1.0402                 1.0368
 Frc consts  --      5.9076                 5.7253                 5.7461
 IR Inten    --      8.9232                31.4832                15.4618

                     70                     71                     72
                      A                      A                      A
 Frequencies --   3073.2773              3091.1781              3120.7550
 Red. masses --      1.0320                 1.0763                 1.1005
 Frc consts  --      5.7430                 6.0595                 6.3149
 IR Inten    --     49.7386                38.7470                18.1605

                     73                     74                     75
                      A                      A                      A
 Frequencies --   3128.9200              3135.7536              3138.4248
 Red. masses --      1.1031                 1.1031                 1.1022
 Frc consts  --      6.3630                 6.3906                 6.3965
 IR Inten    --     35.3596                 2.3880                45.1004

                     76                     77                     78
                      A                      A                      A
 Frequencies --   3145.1260              3149.9345              3172.3263
 Red. masses --      1.1027                 1.1053                 1.1064
 Frc consts  --      6.4268                 6.4617                 6.5603
 IR Inten    --     16.0271                20.2835                 7.3158

                     79                     80                     81
                      A                      A                      A
 Frequencies --   3271.7450              3508.5932              3753.2065
 Red. masses --      1.0979                 1.0736                 1.0666
 Frc consts  --      6.9241                 7.7865                 8.8527
 IR Inten    --      1.9036                 1.6321                25.6038

 - Thermochemistry -
 -------------------
 Temperature   298.150 Kelvin.  Pressure   1.00000 Atm.
 Atom     1 has atomic number  6 and mass  12.00000

 Molecular mass:   184.13241 amu.
 Principal axes and moments of inertia in atomic units:
                           1         2         3
     Eigenvalues --  1398.573783079.565933317.45362
           X            0.99949   0.02679   0.01715
           Y           -0.02639   0.99938  -0.02312
           Z           -0.01776   0.02266   0.99959
 This molecule is an asymmetric top.
 Rotational symmetry number  1.
 Warning -- assumption of classical behavior for rotation
           may cause significant error
 Rotational temperatures (Kelvin)      0.06193     0.02813     0.02611
 Rotational constants (GHZ):           1.29042     0.58604     0.54401
 Zero-point vibrational energy     661341.6 (Joules/Mol)
                                  158.06443 (Kcal/Mol)
 Warning -- explicit consideration of  21 degrees of freedom as
           vibrations may cause significant error
 Vibrational temperatures:     63.00   120.58   147.82   159.22   234.60
          (Kelvin)            287.78   297.69   310.34   322.12   364.45
                              404.97   416.71   453.82   461.46   484.91
                              502.73   556.54   611.84   642.67   729.87
                              879.28   970.38   996.12  1053.10  1092.27
                             1165.98  1177.81  1251.43  1328.20  1356.79
                             1398.84  1405.60  1485.39  1516.56  1562.29
                             1576.80  1595.58  1640.34  1684.97  1695.31
                             1722.41  1754.32  1770.69  1813.04  1843.98
                             1895.74  1943.85  2001.00  2035.09  2047.97
                             2066.43  2079.36  2116.67  2136.57  2157.76
                             2169.34  2179.42  2193.03  2199.03  2211.67
                             2218.00  2221.56  2235.62  2246.34  2253.69
                             4301.94  4386.10  4397.51  4412.72  4421.76
                             4447.52  4490.07  4501.82  4511.65  4515.49
                             4525.13  4532.05  4564.27  4707.31  5048.08
                             5400.03

 Zero-point correction=                           0.251892 (Hartree/Particle)
 Thermal correction to Energy=                    0.265911
 Thermal correction to Enthalpy=                  0.266856
 Thermal correction to Gibbs Free Energy=         0.212042
 Sum of electronic and zero-point Energies=           -608.476626
 Sum of electronic and thermal Energies=              -608.462607
 Sum of electronic and thermal Enthalpies=            -608.461663
 Sum of electronic and thermal Free Energies=         -608.516476

                     E (Thermal)             CV                S
                      KCal/Mol        Cal/Mol-Kelvin    Cal/Mol-Kelvin
 Total                  166.862             52.608            115.365
 Electronic               0.000              0.000              0.000
 Translational            0.889              2.981             41.538
 Rotational               0.889              2.981             31.036
 Vibrational            165.084             46.647             42.791
 Vibration     1          0.595              1.980              5.080
 Vibration     2          0.601              1.960              3.800
 Vibration     3          0.605              1.947              3.402
 Vibration     4          0.606              1.941              3.257
 Vibration     5          0.623              1.888              2.514
 Vibration     6          0.638              1.840              2.133
 Vibration     7          0.641              1.830              2.071
 Vibration     8          0.645              1.817              1.995
 Vibration     9          0.649              1.805              1.927
 Vibration    10          0.664              1.757              1.707
 Vibration    11          0.681              1.708              1.525
 Vibration    12          0.686              1.693              1.476
 Vibration    13          0.703              1.644              1.334
 Vibration    14          0.706              1.634              1.306
 Vibration    15          0.718              1.602              1.226
 Vibration    16          0.727              1.576              1.169
 Vibration    17          0.755              1.498              1.012
 Vibration    18          0.787              1.415              0.874
 Vibration    19          0.806              1.368              0.806
 Vibration    20          0.862              1.234              0.640
 Vibration    21          0.970              1.008              0.431

 Optimization completed.
    -- Stationary point found.
 Normal termination of Gaussian 16 at Mon Dec 14 16:50:26 2020.

 ----------------------------------------------------------------------
 # B3LYP/6-311++G(d,p) empiricaldispersion=gd3bj scf=xqc pop=npa geom=c
 heck
 ----------------------------------------------------------------------

 ---------------------------------------
 CID_130992590_JID_3900_Energie_neutraal
 ---------------------------------------
 Structure from the checkpoint file:  "JID_3900.chk"
 Charge =  0 Multiplicity = 1

 SCF Done:  E(RB3LYP) =  -608.908613263     A.U. after   14 cycles
 Normal termination of Gaussian 16 at Mon Dec 14 16:53:50 2020.

 ----------------------------------------------------------------------
 # B3LYP/6-311++G(d,p) empiricaldispersion=gd3bj scf=xqc pop=npa geom=c
 heck
 ----------------------------------------------------------------------

 -------------------------------------
 CID_130992590_JID_3900_Energie_kation
 -------------------------------------
 Structure from the checkpoint file:  "JID_3900.chk"
 Charge =  1 Multiplicity = 2

 SCF Done:  E(UB3LYP) =  -608.600063978     A.U. after   33 cycles
 SCF Done:  E(UB3LYP) =  -608.600063978     a.u. after    1 cycles
 Normal termination of Gaussian 16 at Mon Dec 14 17:05:06 2020.
 Gaussian 16:  ES64L-G16RevA.03 25-Dec-2016

 ----------------------------------------------------------------------
 # B3LYP/6-311++G(d,p) empiricaldispersion=gd3bj scf=xqc pop=npa geom=c
 heck
 ----------------------------------------------------------------------

 ------------------------------------
 CID_130992590_JID_3900_Energie_anion
 ------------------------------------
 Structure from the checkpoint file:  "JID_3900.chk"
 Charge = -1 Multiplicity = 2

                         Standard orientation:
 ---------------------------------------------------------------------
 Center     Atomic      Atomic             Coordinates (Angstroms)
 Number     Number       Type             X           Y           Z
 ---------------------------------------------------------------------
      1          6           0       -1.172713   -1.028710   -1.495833
      2          6           0       -1.447635   -0.479355   -0.091197
      3          6           0       -2.661667   -1.200725    0.532215
      4          6           0       -0.218271   -0.762084    0.815925
      5          6           0        1.128093   -0.488395    0.210686
      6          7           0        1.908378   -1.455884   -0.233148
      7          7           0        3.066175   -0.881762   -0.717115
      8          6           0        2.948518    0.411509   -0.532376
      9          7           0        1.749227    0.726245    0.046156
     10          6           0        1.298318    2.057970    0.433683
     11          8           0       -0.412421   -0.032679    2.034646
     12          7           0       -1.627433    0.984649   -0.143171
     13          6           0       -2.676433    1.485325   -1.026820
     14          1           0       -2.088584   -1.044465   -2.094665
     15          1           0       -0.787914   -2.051047   -1.438355
     16          1           0       -0.426774   -0.418150   -2.012302
     17          1           0       -2.521532   -2.287573    0.517025
     18          1           0       -2.802046   -0.887840    1.571469
     19          1           0       -3.576412   -0.980102   -0.026389
     20          1           0       -0.215736   -1.842147    1.010602
     21          1           0        3.685491    1.159784   -0.790055
     22          1           0        0.273944    2.190316    0.083314
     23          1           0        1.329262    2.170074    1.520833
     24          1           0        1.962510    2.792330   -0.026935
     25          1           0        0.245122   -0.350068    2.672177
     26          1           0       -1.805814    1.298700    0.808367
     27          1           0       -3.674183    1.044450   -0.864866
     28          1           0       -2.761520    2.567094   -0.882879
     29          1           0       -2.400141    1.314124   -2.071269
 ---------------------------------------------------------------------

 SCF Done:  E(UB3LYP) =  -608.898829216     A.U. after   29 cycles

 The electronic state is 2-A.
 Alpha  occ. eigenvalues --  -19.03018 -14.27892 -14.21925 -14.21735 -14.19738
 Alpha  occ. eigenvalues --  -10.13733 -10.12907 -10.12750 -10.11755 -10.10021
 Alpha  occ. eigenvalues --  -10.08821 -10.06423 -10.06093  -0.96009  -0.93258
 Alpha  occ. eigenvalues --   -0.82091  -0.81136  -0.72069  -0.68207  -0.62454
 Alpha  occ. eigenvalues --   -0.59795  -0.59632  -0.56955  -0.52527  -0.48983
 Alpha  occ. eigenvalues --   -0.45124  -0.43126  -0.41537  -0.39589  -0.38046
 Alpha  occ. eigenvalues --   -0.36328  -0.35678  -0.35145  -0.33913  -0.31856
 Alpha  occ. eigenvalues --   -0.31228  -0.30261  -0.29866  -0.29410  -0.28370
 Alpha  occ. eigenvalues --   -0.28116  -0.25990  -0.24321  -0.24220  -0.21171
 Alpha  occ. eigenvalues --   -0.19374  -0.18535  -0.15932  -0.15651  -0.13024
 Alpha  occ. eigenvalues --    0.04235
 Alpha virt. eigenvalues --    0.06447   0.06816   0.07985   0.08988   0.09280
 Alpha virt. eigenvalues --    0.09747   0.10678   0.10812   0.11237   0.12075
 Alpha virt. eigenvalues --    0.12289   0.12698   0.13076   0.13668   0.14297

  Beta  occ. eigenvalues --  -19.02961 -14.27881 -14.21928 -14.21722 -14.19719
  Beta  occ. eigenvalues --  -10.13719 -10.12905 -10.12735 -10.11755 -10.09970
  Beta  occ. eigenvalues --  -10.08788 -10.06415 -10.06067  -0.95987  -0.93149
  Beta  occ. eigenvalues --   -0.82066  -0.81108  -0.72043  -0.68184  -0.62388
  Beta  occ. eigenvalues --   -0.59747  -0.59588  -0.56883  -0.52505  -0.48934
  Beta  occ. eigenvalues --   -0.45079  -0.43049  -0.41473  -0.39540  -0.38011
  Beta  occ. eigenvalues --   -0.36278  -0.35639  -0.35116  -0.33879  -0.31811
  Beta  occ. eigenvalues --   -0.31181  -0.30229  -0.29834  -0.29376  -0.28326
  Beta  occ. eigenvalues --   -0.28084  -0.25966  -0.24296  -0.24187  -0.21149
  Beta  occ. eigenvalues --   -0.19329  -0.18484  -0.15920  -0.15611  -0.12994
  Beta virt. eigenvalues --    0.06572   0.07530   0.07778   0.08508   0.09375
  Beta virt. eigenvalues --    0.09653   0.10245   0.10952   0.11129   0.11564
  Beta virt. eigenvalues --    0.12431   0.12712   0.12953   0.13410   0.14025

 Mulliken charges and spin densities:
               1          2
     1  C   -0.330034  -0.502817
     2  C   -1.120849   1.211816
     3  C    0.192658  -0.495508
     4  C    0.186816  -0.458332
     5  C   -0.057748  -0.687587
     6  N   -0.048978   0.134595
     7  N   -0.105930  -0.093406
     8  C    0.220340  -0.022379
     9  N   -0.223508   0.225489
    10  C    1.169271  -1.536596
    11  O   -0.237690   0.031938
    12  N    0.023993  -0.104056
    13  C    0.804403  -1.125556
    14  H    0.134481   0.033587
    15  H    0.134054   0.020767
    16  H    0.114871   0.076906
    17  H    0.077212   0.052877
    18  H   -0.190297   0.365914
    19  H   -0.124396   0.259177
    20  H    0.199729   0.071246
    21  H   -0.239605   0.421715
    22  H    0.077845   0.162765
    23  H   -0.496752   0.711470
    24  H   -0.453705   0.584003
    25  H   -0.257060   0.529825
    26  H    0.239709   0.020035
    27  H   -0.117386   0.242954
    28  H   -0.397209   0.542383
    29  H   -0.174232   0.326773
 Sum of Mulliken charges =  -1.00000   1.00000

 Dipole moment (field-independent basis, Debye):
    X=             -1.5872    Y=             -2.5411    Z=             -2.6535  Tot=              4.0022
 Quadrupole moment (field-independent basis, Debye-Ang):
   XX=           -136.0871   YY=           -125.8380   ZZ=           -119.4063
   XY=              7.3304   XZ=              0.3898   YZ=             -2.9401

 Summary of Natural Population Analysis:

                                       Natural Population
                Natural  -----------------------------------------------
    Atom  No    Charge         Core      Valence    Rydberg      Total
 -----------------------------------------------------------------------
      C    1   -0.29366      0.99961     2.28853    0.00552     3.29366
      C    2    0.06265      0.99956     1.92284    0.01495     2.93735
      C    3   -0.29784      0.99961     2.29102    0.00721     3.29784
      C    4    0.04705      0.99943     1.93720    0.01633     2.95295
      C    5    0.17442      0.99955     1.80626    0.01976     2.82558
      N    6   -0.16557      0.99969     2.65333    0.01256     3.66557
      N    7   -0.16724      0.99973     2.65427    0.01324     3.66724
      C    8    0.09832      0.99962     1.88530    0.01676     2.90168
      N    9   -0.20357      0.99961     2.69255    0.01142     3.70357
      C   10   -0.17889      0.99962     2.17092    0.00835     3.17889
      O   11   -0.37260      0.99989     3.36585    0.00685     4.37260
      N   12   -0.35445      0.99972     2.84134    0.01339     3.85445
      C   13   -0.17899      0.99964     2.17066    0.00868     3.17899
      H   14    0.09996      0.00000     0.39927    0.00076     0.40004
      H   15    0.10755      0.00000     0.39165    0.00080     0.39245
      H   16    0.10752      0.00000     0.39153    0.00095     0.39248
      H   17    0.09853      0.00000     0.40058    0.00089     0.40147
      H   18    0.10893      0.00000     0.38983    0.00124     0.39107
      H   19    0.10009      0.00000     0.39900    0.00091     0.39991
      H   20    0.09601      0.00000     0.40175    0.00223     0.40399
      H   21    0.09644      0.00000     0.40219    0.00138     0.40356
      H   22    0.12046      0.00000     0.37757    0.00198     0.37954
      H   23    0.10581      0.00000     0.39076    0.00342     0.39419
      H   24    0.09710      0.00000     0.40099    0.00190     0.40290
      H   25    0.23944      0.00000     0.25141    0.00915     0.26056
      H   26    0.18383      0.00000     0.31254    0.00363     0.31617
      H   27    0.07966      0.00000     0.41882    0.00152     0.42034
      H   28    0.09807      0.00000     0.40091    0.00102     0.40193
      H   29    0.09096      0.00000     0.40792    0.00111     0.40904
 =======================================================================
   * Total *   -0.00000     12.99529    36.81679    0.18791    50.00000

 Normal termination of Gaussian 16 at Mon Dec 14 17:15:06 2020.
