 Gaussian 16, Revision A.03,

 -----------------------------------------------------------
 # opt freq B3LYP/6-31G(d) empiricaldispersion=gd3bj scf=xqc
 -----------------------------------------------------------

 -------------------------------
 CID_122704179_JID_4223_neutraal
 -------------------------------
 Symbolic Z-matrix:
 Charge =  0 Multiplicity = 1

 SCF Done:  E(RB3LYP) =  -639.411145796     A.U. after   15 cycles
 SCF Done:  E(RB3LYP) =  -639.417945719     A.U. after   13 cycles
 SCF Done:  E(RB3LYP) =  -639.419283080     A.U. after   13 cycles
 SCF Done:  E(RB3LYP) =  -639.419935858     A.U. after   12 cycles
 SCF Done:  E(RB3LYP) =  -639.420459562     A.U. after   12 cycles
 SCF Done:  E(RB3LYP) =  -639.420653427     A.U. after   11 cycles
 SCF Done:  E(RB3LYP) =  -639.420727208     A.U. after   10 cycles
 SCF Done:  E(RB3LYP) =  -639.420739244     A.U. after   10 cycles
 SCF Done:  E(RB3LYP) =  -639.420741334     A.U. after    9 cycles
 SCF Done:  E(RB3LYP) =  -639.420741760     A.U. after    8 cycles
 SCF Done:  E(RB3LYP) =  -639.420741932     A.U. after    7 cycles
 Optimization completed.
    -- Stationary point found.

 1\1\GINC-NODE214\FOpt\RB3LYP\6-31G(d)\C8H10N6\VSC10255\10-Dec-2020\0\\
 # opt freq B3LYP/6-31G(d) empiricaldispersion=gd3bj scf=xqc\\CID_12270
 4179_JID_4223_neutraal\\0,1\C,1.2911377268,0.190729925,-0.1569409224\N
 ,0.0943860828,0.9005400874,-0.6387073848\C,-0.6180818573,0.2658575997,
 -1.691412043\C,-1.9073813234,-0.2671948589,-1.452609985\N,-2.691393107
 3,-0.8454573379,-2.3594860843\C,-2.1740959591,-0.9327647836,-3.5877368
 862\C,-0.8846357162,-0.4443342207,-3.9220647943\C,-0.0656935862,0.1811
 661923,-2.9814343715\C,1.2568792776,0.7416762681,-3.3969705387\N,2.085

 Normal termination of Gaussian 16 at Thu Dec 10 09:17:59 2020.

 --------------------------------------------------------------------
 #N Geom=AllCheck Guess=TCheck SCRF=Check GenChk RB3LYP/6-31G(d) Freq
 --------------------------------------------------------------------

 Structure from the checkpoint file:  "JID_4223.chk"
 -------------------------------
 CID_122704179_JID_4223_neutraal
 -------------------------------
 Charge =  0 Multiplicity = 1

 SCF Done:  E(RB3LYP) =  -639.420741932     A.U. after    1 cycles

  Exact polarizability: 161.126  12.394 132.232   6.444   6.558  64.762
 Approx polarizability: 250.428  22.026 238.324  18.753  20.911 106.019

                      1                      2                      3
                      A                      A                      A
 Frequencies --     82.9608                95.9734               121.3842
 Red. masses --      3.7029                 4.1887                 5.1502
 Frc consts  --      0.0150                 0.0227                 0.0447
 IR Inten    --      2.3289                 4.7648                 6.5911

                      4                      5                      6
                      A                      A                      A
 Frequencies --    139.9460               171.1176               183.6741
 Red. masses --      2.9925                 1.9421                 1.8567
 Frc consts  --      0.0345                 0.0335                 0.0369
 IR Inten    --      1.1569                 4.1062                 9.4343

                      7                      8                      9
                      A                      A                      A
 Frequencies --    233.5942               258.1786               315.0762
 Red. masses --      4.4723                 4.8180                 4.0376
 Frc consts  --      0.1438                 0.1892                 0.2362
 IR Inten    --      0.7046                 3.1625                 2.3980

                     10                     11                     12
                      A                      A                      A
 Frequencies --    348.0700               403.4396               441.7880
 Red. masses --      4.5654                 4.1928                 5.3475
 Frc consts  --      0.3259                 0.4021                 0.6149
 IR Inten    --      0.8312                 5.1239                 0.8426

                     13                     14                     15
                      A                      A                      A
 Frequencies --    482.0253               512.5577               530.2147
 Red. masses --      2.9274                 1.9920                 2.5142
 Frc consts  --      0.4008                 0.3083                 0.4164
 IR Inten    --      2.2919                70.8070                22.5792

                     16                     17                     18
                      A                      A                      A
 Frequencies --    569.0148               586.4587               603.5885
 Red. masses --      1.5718                 3.9934                 1.7709
 Frc consts  --      0.2998                 0.8092                 0.3801
 IR Inten    --     38.5135                13.1018               148.8251

                     19                     20                     21
                      A                      A                      A
 Frequencies --    618.6716               663.0333               671.9844
 Red. masses --      2.1448                 2.1198                 3.9113
 Frc consts  --      0.4837                 0.5491                 1.0406
 IR Inten    --     97.1676                15.0078                14.8760

                     22                     23                     24
                      A                      A                      A
 Frequencies --    696.6982               745.9434               768.1598
 Red. masses --      6.3461                 7.7745                 4.1945
 Frc consts  --      1.8149                 2.5488                 1.4582
 IR Inten    --      9.6923                15.3840                71.1589

                     25                     26                     27
                      A                      A                      A
 Frequencies --    810.0955               842.8662               858.7361
 Red. masses --      5.9157                 1.6260                 1.3992
 Frc consts  --      2.2873                 0.6806                 0.6079
 IR Inten    --     17.5162                64.5762                18.6248

                     28                     29                     30
                      A                      A                      A
 Frequencies --    874.0708               908.5142               938.8515
 Red. masses --      1.1557                 1.4321                 6.7311
 Frc consts  --      0.5202                 0.6964                 3.4957
 IR Inten    --     25.6231                11.0748                 8.7081

                     31                     32                     33
                      A                      A                      A
 Frequencies --    979.9218              1025.4293              1096.8782
 Red. masses --      4.2601                 3.2822                 2.3930
 Frc consts  --      2.4102                 2.0334                 1.6964
 IR Inten    --      2.0697                 1.5325                27.1824

                     34                     35                     36
                      A                      A                      A
 Frequencies --   1099.8834              1153.5169              1162.5581
 Red. masses --      2.9866                 1.8597                 1.3877
 Frc consts  --      2.1288                 1.4579                 1.1051
 IR Inten    --     26.6324                54.2686                20.4650

                     37                     38                     39
                      A                      A                      A
 Frequencies --   1185.1076              1192.4999              1233.7317
 Red. masses --      1.5279                 1.5779                 2.1666
 Frc consts  --      1.2643                 1.3221                 1.9430
 IR Inten    --     15.1210                33.4601                15.0150

                     40                     41                     42
                      A                      A                      A
 Frequencies --   1279.0924              1324.3167              1349.7624
 Red. masses --      2.2123                 3.9705                 4.9332
 Frc consts  --      2.1326                 4.1027                 5.2953
 IR Inten    --    105.4540                17.6525                40.3127

                     43                     44                     45
                      A                      A                      A
 Frequencies --   1358.3530              1402.4458              1411.4946
 Red. masses --      2.1028                 2.3349                 4.3973
 Frc consts  --      2.2859                 2.7057                 5.1617
 IR Inten    --      4.7731               144.5955                34.9157

                     46                     47                     48
                      A                      A                      A
 Frequencies --   1466.0105              1481.0569              1498.0257
 Red. masses --      2.7071                 1.2420                 1.4875
 Frc consts  --      3.4279                 1.6051                 1.9667
 IR Inten    --     57.1046                 7.4903                28.3576

                     49                     50                     51
                      A                      A                      A
 Frequencies --   1525.6105              1534.5941              1544.7255
 Red. masses --      1.0538                 4.7145                 1.1114
 Frc consts  --      1.4451                 6.5415                 1.5625
 IR Inten    --      4.0687                53.6099                14.5048

                     52                     53                     54
                      A                      A                      A
 Frequencies --   1560.1703              1620.7913              1657.2604
 Red. masses --      2.8986                 5.1927                 1.7710
 Frc consts  --      4.1570                 8.0371                 2.8658
 IR Inten    --     13.5502                16.8900                65.3607

                     55                     56                     57
                      A                      A                      A
 Frequencies --   1669.1778              1709.5192              3020.9823
 Red. masses --      3.9293                 3.8080                 1.0502
 Frc consts  --      6.4501                 6.5568                 5.6470
 IR Inten    --     12.3067               222.4596                71.7261

                     58                     59                     60
                      A                      A                      A
 Frequencies --   3113.9987              3143.6959              3156.0705
 Red. masses --      1.0864                 1.0894                 1.1032
 Frc consts  --      6.2068                 6.3436                 6.4742
 IR Inten    --     29.9724                33.5185                15.4650

                     61                     62                     63
                      A                      A                      A
 Frequencies --   3263.6929              3478.3455              3520.8891
 Red. masses --      1.0972                 1.0748                 1.0735
 Frc consts  --      6.8855                 7.6620                 7.8406
 IR Inten    --      1.8965                 1.0382                 9.4828

                     64                     65                     66
                      A                      A                      A
 Frequencies --   3526.4437              3633.9174              3654.2187
 Red. masses --      1.0495                 1.0810                 1.0996
 Frc consts  --      7.6896                 8.4103                 8.6511
 IR Inten    --     35.2701                59.6986                53.5882

 - Thermochemistry -
 -------------------
 Temperature   298.150 Kelvin.  Pressure   1.00000 Atm.
 Atom     1 has atomic number  6 and mass  12.00000

 Molecular mass:   190.09669 amu.
 Principal axes and moments of inertia in atomic units:
                           1         2         3
     Eigenvalues --  1587.505922863.046724131.91839
           X            0.99903   0.04375  -0.00508
           Y           -0.04377   0.99903  -0.00392
           Z            0.00491   0.00413   0.99998
 This molecule is an asymmetric top.
 Rotational symmetry number  1.
 Warning -- assumption of classical behavior for rotation
           may cause significant error
 Rotational temperatures (Kelvin)      0.05456     0.03025     0.02096
 Rotational constants (GHZ):           1.13684     0.63036     0.43678
 Zero-point vibrational energy     505487.3 (Joules/Mol)
                                  120.81436 (Kcal/Mol)
 Warning -- explicit consideration of  19 degrees of freedom as
           vibrations may cause significant error
 Vibrational temperatures:    119.36   138.08   174.64   201.35   246.20
          (Kelvin)            264.27   336.09   371.46   453.32   500.80
                              580.46   635.63   693.53   737.46   762.86
                              818.69   843.78   868.43   890.13   953.96
                              966.84  1002.39  1073.25  1105.21  1165.55
                             1212.70  1235.53  1257.59  1307.15  1350.80
                             1409.89  1475.36  1578.16  1582.49  1659.65
                             1672.66  1705.11  1715.74  1775.06  1840.33
                             1905.40  1942.01  1954.37  2017.81  2030.83
                             2109.26  2130.91  2155.32  2195.01  2207.94
                             2222.52  2244.74  2331.96  2384.43  2401.57
                             2459.62  4346.52  4480.35  4523.08  4540.88
                             4695.73  5004.56  5065.77  5073.77  5228.40
                             5257.61

 Zero-point correction=                           0.192530 (Hartree/Particle)
 Thermal correction to Energy=                    0.204282
 Thermal correction to Enthalpy=                  0.205227
 Thermal correction to Gibbs Free Energy=         0.155020
 Sum of electronic and zero-point Energies=           -639.228212
 Sum of electronic and thermal Energies=              -639.216460
 Sum of electronic and thermal Enthalpies=            -639.215515
 Sum of electronic and thermal Free Energies=         -639.265722

                     E (Thermal)             CV                S
                      KCal/Mol        Cal/Mol-Kelvin    Cal/Mol-Kelvin
 Total                  128.189             46.060            105.668
 Electronic               0.000              0.000              0.000
 Translational            0.889              2.981             41.633
 Rotational               0.889              2.981             31.308
 Vibrational            126.412             40.098             32.728
 Vibration     1          0.600              1.961              3.820
 Vibration     2          0.603              1.952              3.534
 Vibration     3          0.609              1.931              3.078
 Vibration     4          0.615              1.913              2.805
 Vibration     5          0.626              1.878              2.423
 Vibration     6          0.631              1.862              2.291
 Vibration     7          0.654              1.790              1.851
 Vibration     8          0.667              1.749              1.674
 Vibration     9          0.702              1.645              1.336
 Vibration    10          0.726              1.579              1.175
 Vibration    11          0.769              1.463              0.950
 Vibration    12          0.802              1.379              0.821
 Vibration    13          0.838              1.290              0.705
 Vibration    14          0.868              1.222              0.627
 Vibration    15          0.885              1.183              0.587
 Vibration    16          0.925              1.098              0.506
 Vibration    17          0.944              1.061              0.474
 Vibration    18          0.962              1.024              0.444
 Vibration    19          0.979              0.992              0.419

                           ! Non-Optimized Parameters !

 1\1\GINC-NODE214\Freq\RB3LYP\6-31G(d)\C8H10N6\VSC10255\10-Dec-2020\0\\
 #N Geom=AllCheck Guess=TCheck SCRF=Check GenChk RB3LYP/6-31G(d) Freq\\
 CID_122704179_JID_4223_neutraal\\0,1\C,1.2911377268,0.190729925,-0.156
 9409224\N,0.0943860828,0.9005400874,-0.6387073848\C,-0.6180818573,0.26
 58575997,-1.691412043\C,-1.9073813234,-0.2671948589,-1.452609985\N,-2.
 6913931073,-0.8454573379,-2.3594860843\C,-2.1740959591,-0.9327647836,-
 3.5877368862\C,-0.8846357162,-0.4443342207,-3.9220647943\C,-0.06569358
 62,0.1811661923,-2.9814343715\C,1.2568792776,0.7416762681,-3.396970538

 Normal termination of Gaussian 16 at Thu Dec 10 09:24:14 2020.

 ----------------------------------------------------------------------
 # B3LYP/6-311++G(d,p) empiricaldispersion=gd3bj scf=xqc pop=npa geom=c
 heck
 ----------------------------------------------------------------------

 ---------------------------------------
 CID_122704179_JID_4223_Energie_neutraal
 ---------------------------------------
 Structure from the checkpoint file:  "JID_4223.chk"
 Charge =  0 Multiplicity = 1

 SCF Done:  E(RB3LYP) =  -639.605491599     A.U. after   15 cycles
 Normal termination of Gaussian 16 at Thu Dec 10 09:26:47 2020.

 ----------------------------------------------------------------------
 # B3LYP/6-311++G(d,p) empiricaldispersion=gd3bj scf=xqc pop=npa geom=c
 heck
 ----------------------------------------------------------------------

 -------------------------------------
 CID_122704179_JID_4223_Energie_kation
 -------------------------------------
 Structure from the checkpoint file:  "JID_4223.chk"
 Charge =  1 Multiplicity = 2

 SCF Done:  E(UB3LYP) =  -639.306276105     A.U. after   25 cycles
 Normal termination of Gaussian 16 at Thu Dec 10 09:32:40 2020.
 Gaussian 16:  ES64L-G16RevA.03 25-Dec-2016

 ------------------------------------
 CID_122704179_JID_4223_Energie_anion
 ------------------------------------
 Structure from the checkpoint file:  "JID_4223.chk"
 Charge = -1 Multiplicity = 2

                         Standard orientation:
 ---------------------------------------------------------------------
 Center     Atomic      Atomic             Coordinates (Angstroms)
 Number     Number       Type             X           Y           Z
 ---------------------------------------------------------------------
      1          6           0       -3.082916   -0.880472    0.922720
      2          7           0       -2.294390   -1.208170   -0.276857
      3          6           0       -0.890125   -1.025397   -0.161730
      4          6           0       -0.027860   -2.147878   -0.163235
      5          7           0        1.301245   -2.109173   -0.104350
      6          6           0        1.832579   -0.887116   -0.014466
      7          6           0        1.051905    0.297324    0.011946
      8          6           0       -0.340564    0.265349   -0.069976
      9          6           0       -1.116571    1.543000   -0.108191
     10          7           0       -0.870135    2.566979    0.637170
     11          7           0       -2.082154    1.601683   -1.081510
     12          7           0        1.968987    1.323919    0.078001
     13          6           0        3.218972    0.732355    0.080077
     14          7           0        3.184551   -0.573978    0.037783
     15          1           0       -2.983503    0.182909    1.151006
     16          1           0       -2.772407   -1.454387    1.808303
     17          1           0       -4.137048   -1.085640    0.715664
     18          1           0       -2.487067   -2.165550   -0.559274
     19          1           0       -0.477386   -3.139666   -0.226310
     20          1           0       -0.137190    2.336516    1.309663
     21          1           0       -2.481946    0.712517   -1.363244
     22          1           0       -2.724083    2.379603   -0.996299
     23          1           0        1.752395    2.309744    0.025006
     24          1           0        4.118988    1.332143    0.120953
 ---------------------------------------------------------------------

 SCF Done:  E(UB3LYP) =  -639.615282835     A.U. after   28 cycles

 The electronic state is 2-A.
 Alpha  occ. eigenvalues --  -14.23800 -14.20043 -14.18851 -14.16286 -14.14532
 Alpha  occ. eigenvalues --  -14.13969 -10.10740 -10.09820 -10.08021 -10.07281
 Alpha  occ. eigenvalues --  -10.07103 -10.06713 -10.05636 -10.03748  -0.88752
 Alpha  occ. eigenvalues --   -0.82190  -0.80424  -0.78383  -0.74386  -0.71733
 Alpha  occ. eigenvalues --   -0.65488  -0.61052  -0.56129  -0.52262  -0.48903
 Alpha  occ. eigenvalues --   -0.48203  -0.46377  -0.43218  -0.40203  -0.37644
 Alpha  occ. eigenvalues --   -0.36490  -0.35398  -0.32541  -0.32278  -0.31696
 Alpha  occ. eigenvalues --   -0.31336  -0.29766  -0.29220  -0.27533  -0.26700
 Alpha  occ. eigenvalues --   -0.23962  -0.23001  -0.18929  -0.16100  -0.15395
 Alpha  occ. eigenvalues --   -0.14229  -0.11928  -0.11369  -0.11009  -0.08599
 Alpha  occ. eigenvalues --    0.04278
 Alpha virt. eigenvalues --    0.07304   0.08561   0.09412   0.09869   0.10621
 Alpha virt. eigenvalues --    0.11618   0.12477   0.13008   0.13379   0.14021
 Alpha virt. eigenvalues --    0.14277   0.14921   0.15572   0.16553   0.17204

  Beta  occ. eigenvalues --  -14.23823 -14.20054 -14.18806 -14.16293 -14.14046
  Beta  occ. eigenvalues --  -14.13809 -10.10650 -10.09604 -10.07972 -10.07269
  Beta  occ. eigenvalues --  -10.07071 -10.06591 -10.05661 -10.03432  -0.88597
  Beta  occ. eigenvalues --   -0.81978  -0.80208  -0.77944  -0.74254  -0.71507
  Beta  occ. eigenvalues --   -0.64982  -0.60791  -0.55890  -0.51918  -0.48696
  Beta  occ. eigenvalues --   -0.47965  -0.46221  -0.43077  -0.40063  -0.37434
  Beta  occ. eigenvalues --   -0.36301  -0.35279  -0.32415  -0.31960  -0.31553
  Beta  occ. eigenvalues --   -0.30996  -0.29635  -0.28926  -0.27376  -0.26460
  Beta  occ. eigenvalues --   -0.23383  -0.22028  -0.18269  -0.15856  -0.15134
  Beta  occ. eigenvalues --   -0.13836  -0.11320  -0.10690  -0.10007  -0.07689
  Beta virt. eigenvalues --    0.07344   0.08462   0.09320   0.09788   0.10091
  Beta virt. eigenvalues --    0.10727   0.11706   0.12638   0.13012   0.13604
  Beta virt. eigenvalues --    0.14120   0.14591   0.15116   0.15776   0.16760

 Mulliken charges and spin densities:
               1          2
     1  C    0.127662  -0.507601
     2  N   -0.274958   0.097452
     3  C   -0.989394   0.236586
     4  C   -0.128014   0.034858
     5  N   -0.165741   0.231354
     6  C   -0.739090  -0.000215
     7  C    0.095011  -0.047941
     8  C    1.662918  -0.041748
     9  C   -0.944573   0.038511
    10  N   -0.397761   0.105255
    11  N   -0.279717   0.010313
    12  N   -0.229618  -0.011101
    13  C    0.182937   0.162445
    14  N   -0.170989  -0.015611
    15  H    0.132323   0.072172
    16  H   -0.006562   0.137300
    17  H   -0.221084   0.339475
    18  H    0.207858   0.032421
    19  H    0.086916   0.027910
    20  H    0.179148  -0.005682
    21  H    0.264648   0.028376
    22  H    0.164113   0.080925
    23  H    0.292701   0.006988
    24  H    0.151269  -0.012442
 Sum of Mulliken charges =  -1.00000   1.00000

 Dipole moment (field-independent basis, Debye):
    X=             -1.4798    Y=              1.6998    Z=             -0.5086  Tot=              2.3104
 Quadrupole moment (field-independent basis, Debye-Ang):
   XX=           -121.2949   YY=           -110.7552   ZZ=            -94.6167
   XY=             19.2846   XZ=              3.3528   YZ=             -0.4992

 Summary of Natural Population Analysis:

                                       Natural Population
                Natural  -----------------------------------------------
    Atom  No    Charge         Core      Valence    Rydberg      Total
 -----------------------------------------------------------------------
      C    1   -0.17627      0.99964     2.16817    0.00845     3.17627
      N    2   -0.34118      0.99972     2.82916    0.01231     3.84118
      C    3    0.08253      0.99945     1.90604    0.01198     2.91747
      C    4   -0.00609      0.99956     1.99225    0.01428     3.00609
      N    5   -0.16347      0.99967     2.64998    0.01382     3.66347
      C    6    0.15621      0.99947     1.82602    0.01830     2.84379
      C    7    0.06109      0.99943     1.92826    0.01122     2.93891
      C    8   -0.01879      0.99938     2.00947    0.00993     3.01879
      C    9    0.23160      0.99964     1.75033    0.01843     2.76840
      N   10   -0.36684      0.99971     2.85877    0.00835     3.86684
      N   11   -0.40476      0.99969     2.89508    0.00998     3.90476
      N   12   -0.29246      0.99966     2.78392    0.00889     3.79246
      C   13    0.15019      0.99969     1.83355    0.01656     2.84981
      N   14   -0.26231      0.99970     2.74956    0.01305     3.76231
      H   15    0.09950      0.00000     0.39892    0.00158     0.40050
      H   16    0.08263      0.00000     0.41598    0.00139     0.41737
      H   17    0.08885      0.00000     0.40983    0.00133     0.41115
      H   18    0.17454      0.00000     0.32266    0.00280     0.32546
      H   19    0.07658      0.00000     0.42127    0.00216     0.42342
      H   20    0.15993      0.00000     0.33841    0.00166     0.34007
      H   21    0.19959      0.00000     0.29790    0.00251     0.30041
      H   22    0.18427      0.00000     0.31363    0.00210     0.31573
      H   23    0.20405      0.00000     0.29406    0.00189     0.29595
      H   24    0.08058      0.00000     0.41838    0.00104     0.41942
 =======================================================================
   * Total *   -0.00000     13.99442    35.81160    0.19398    50.00000

 Normal termination of Gaussian 16 at Thu Dec 10 09:39:15 2020.
