 Gaussian 16, Revision A.03,

 -----------------------------------------------------------
 # opt freq B3LYP/6-31G(d) empiricaldispersion=gd3bj scf=xqc
 -----------------------------------------------------------

 ------------------------------
 CID_82509142_JID_6245_neutraal
 ------------------------------
 Symbolic Z-matrix:
 Charge =  0 Multiplicity = 1

 SCF Done:  E(RB3LYP) =  -669.903173316     A.U. after   15 cycles
 SCF Done:  E(RB3LYP) =  -669.913500456     A.U. after   13 cycles
 SCF Done:  E(RB3LYP) =  -669.914386504     A.U. after   11 cycles
 SCF Done:  E(RB3LYP) =  -669.914674465     A.U. after   11 cycles
 SCF Done:  E(RB3LYP) =  -669.915003957     A.U. after   12 cycles
 SCF Done:  E(RB3LYP) =  -669.915219168     A.U. after   12 cycles
 SCF Done:  E(RB3LYP) =  -669.915446476     A.U. after   12 cycles
 SCF Done:  E(RB3LYP) =  -669.915499421     A.U. after   11 cycles
 SCF Done:  E(RB3LYP) =  -669.915512353     A.U. after   11 cycles
 SCF Done:  E(RB3LYP) =  -669.915515386     A.U. after    9 cycles
 SCF Done:  E(RB3LYP) =  -669.915515993     A.U. after    8 cycles
 SCF Done:  E(RB3LYP) =  -669.915516069     A.U. after    7 cycles
 Optimization completed.
    -- Stationary point found.
 Normal termination of Gaussian 16 at Thu Dec 10 21:50:31 2020.

 --------------------------------------------------------------------
 #N Geom=AllCheck Guess=TCheck SCRF=Check GenChk RB3LYP/6-31G(d) Freq
 --------------------------------------------------------------------

 Structure from the checkpoint file:  "JID_6245.chk"
 ------------------------------
 CID_82509142_JID_6245_neutraal
 ------------------------------
 Charge =  0 Multiplicity = 1

 SCF Done:  E(RB3LYP) =  -669.915516069     A.U. after    1 cycles

  Exact polarizability: 238.463   3.471 153.223  -3.117  -1.994  88.651
 Approx polarizability: 350.668   0.065 269.353  -6.166  -6.328 132.342

                      1                      2                      3
                      A                      A                      A
 Frequencies --     31.1363                61.3440                68.8161
 Red. masses --      3.0333                 2.8529                 3.9692
 Frc consts  --      0.0017                 0.0063                 0.0111
 IR Inten    --      0.2365                 2.1905                 0.2002

                      4                      5                      6
                      A                      A                      A
 Frequencies --    111.2022               132.0891               194.2315
 Red. masses --      3.4487                 3.5061                 2.8075
 Frc consts  --      0.0251                 0.0360                 0.0624
 IR Inten    --      6.3408                 2.7466                 1.7858

                      7                      8                      9
                      A                      A                      A
 Frequencies --    208.3041               242.2989               250.4693
 Red. masses --      3.1116                 1.2558                 1.5789
 Frc consts  --      0.0795                 0.0434                 0.0584
 IR Inten    --      1.6873                 7.4647                25.6140

                     10                     11                     12
                      A                      A                      A
 Frequencies --    270.1769               291.2207               306.0135
 Red. masses --      1.3670                 2.1389                 1.7904
 Frc consts  --      0.0588                 0.1069                 0.0988
 IR Inten    --      0.1008                 2.6028                31.4172

                     13                     14                     15
                      A                      A                      A
 Frequencies --    320.4138               343.3556               349.3891
 Red. masses --      2.5690                 1.0953                 2.8123
 Frc consts  --      0.1554                 0.0761                 0.2023
 IR Inten    --      0.5528                 0.6718                 0.7860

                     16                     17                     18
                      A                      A                      A
 Frequencies --    379.0789               401.2598               438.6462
 Red. masses --      3.2928                 2.9319                 3.5928
 Frc consts  --      0.2788                 0.2781                 0.4073
 IR Inten    --      7.8453                 0.1338                 0.9310

                     19                     20                     21
                      A                      A                      A
 Frequencies --    453.6447               486.2139               487.4986
 Red. masses --      3.7749                 3.0468                 3.6870
 Frc consts  --      0.4577                 0.4244                 0.5163
 IR Inten    --      3.4954                 2.0216                 3.2931

                     22                     23                     24
                      A                      A                      A
 Frequencies --    512.2825               548.3113               612.5070
 Red. masses --      3.0367                 4.7803                 5.0028
 Frc consts  --      0.4695                 0.8468                 1.1058
 IR Inten    --      1.2787                 4.1713                 1.1025

                     25                     26                     27
                      A                      A                      A
 Frequencies --    649.2708               663.3065               699.0001
 Red. masses --      6.8350                 5.2919                 3.2971
 Frc consts  --      1.6976                 1.3718                 0.9491
 IR Inten    --      3.6604                 0.1514                 5.5085

                     28                     29                     30
                      A                      A                      A
 Frequencies --    758.7784               800.2237               805.7225
 Red. masses --      4.6094                 3.3203                 5.8417
 Frc consts  --      1.5636                 1.2527                 2.2344
 IR Inten    --      9.0966                 0.7074                 1.7613

                     31                     32                     33
                      A                      A                      A
 Frequencies --    843.0158               855.9755               880.9341
 Red. masses --      2.6920                 1.6870                 1.3299
 Frc consts  --      1.1272                 0.7283                 0.6081
 IR Inten    --      8.0362                23.8469                75.3318

                     34                     35                     36
                      A                      A                      A
 Frequencies --    898.7739               942.3450               950.0703
 Red. masses --      1.4043                 1.7448                 1.8581
 Frc consts  --      0.6683                 0.9129                 0.9882
 IR Inten    --      6.4885                 0.3275                 5.3105

                     37                     38                     39
                      A                      A                      A
 Frequencies --    954.7496               966.5168               976.2269
 Red. masses --      1.5093                 2.3890                 1.1984
 Frc consts  --      0.8106                 1.3149                 0.6729
 IR Inten    --     17.7646                 6.8170                 0.4984

                     40                     41                     42
                      A                      A                      A
 Frequencies --    991.0537               998.5892              1028.5850
 Red. masses --      1.3049                 3.2136                 2.1921
 Frc consts  --      0.7551                 1.8881                 1.3665
 IR Inten    --      0.6212                13.1527                14.9067

                     43                     44                     45
                      A                      A                      A
 Frequencies --   1060.0684              1064.6478              1076.7476
 Red. masses --      1.4165                 1.3917                 2.8355
 Frc consts  --      0.9378                 0.9294                 1.9369
 IR Inten    --      0.4863                 0.0002                10.0036

                     46                     47                     48
                      A                      A                      A
 Frequencies --   1125.1197              1154.2040              1175.1725
 Red. masses --      2.1058                 3.5411                 1.5881
 Frc consts  --      1.5706                 2.7794                 1.2922
 IR Inten    --      3.3454                19.0779                 6.6502

                     49                     50                     51
                      A                      A                      A
 Frequencies --   1192.3732              1206.8513              1243.0264
 Red. masses --      1.2775                 1.5551                 2.7089
 Frc consts  --      1.0701                 1.3345                 2.4660
 IR Inten    --      8.4614                17.5442                 2.8459

                     52                     53                     54
                      A                      A                      A
 Frequencies --   1252.5104              1287.8583              1298.2249
 Red. masses --      2.5025                 2.8240                 3.1113
 Frc consts  --      2.3130                 2.7596                 3.0895
 IR Inten    --      4.5895                25.5894                 5.0417

                     55                     56                     57
                      A                      A                      A
 Frequencies --   1305.5852              1323.9935              1345.2037
 Red. masses --      1.9683                 1.5180                 2.1561
 Frc consts  --      1.9767                 1.5678                 2.2988
 IR Inten    --      9.2237                 8.9778                12.8094

                     58                     59                     60
                      A                      A                      A
 Frequencies --   1398.3721              1427.9777              1429.0297
 Red. masses --      2.1852                 1.2104                 1.2809
 Frc consts  --      2.5176                 1.4542                 1.5411
 IR Inten    --     18.2780                 3.7704                 5.6665

                     61                     62                     63
                      A                      A                      A
 Frequencies --   1430.7692              1455.4595              1460.8365
 Red. masses --      3.9422                 2.1960                 1.2537
 Frc consts  --      4.7548                 2.7409                 1.5763
 IR Inten    --      0.1647                18.2782                 4.4510

                     64                     65                     66
                      A                      A                      A
 Frequencies --   1473.7915              1513.1373              1516.3665
 Red. masses --      4.6028                 1.0495                 1.0455
 Frc consts  --      5.8904                 1.4157                 1.4164
 IR Inten    --      0.4487                 0.0010                 0.1612

                     67                     68                     69
                      A                      A                      A
 Frequencies --   1520.0077              1525.6158              1533.7695
 Red. masses --      1.0863                 1.0914                 1.2270
 Frc consts  --      1.4788                 1.4967                 1.7006
 IR Inten    --      1.6407                 5.9135                11.4873

                     70                     71                     72
                      A                      A                      A
 Frequencies --   1538.2155              1539.6908              1551.1048
 Red. masses --      2.0660                 1.0499                 1.0647
 Frc consts  --      2.8801                 1.4664                 1.5093
 IR Inten    --     21.2713                 5.5603                11.7436

                     73                     74                     75
                      A                      A                      A
 Frequencies --   1599.0119              1638.5841              1679.3888
 Red. masses --      6.6632                 5.8799                 6.2089
 Frc consts  --     10.0378                 9.3016                10.3173
 IR Inten    --      0.9899                29.3934                40.9602

                     76                     77                     78
                      A                      A                      A
 Frequencies --   1696.8531              3004.4794              3046.9229
 Red. masses --      1.1009                 1.0676                 1.0349
 Frc consts  --      1.8676                 5.6782                 5.6606
 IR Inten    --     38.7201                46.3036                22.5682

                     79                     80                     81
                      A                      A                      A
 Frequencies --   3047.1960              3054.5856              3054.6349
 Red. masses --      1.0350                 1.0655                 1.0634
 Frc consts  --      5.6625                 5.8573                 5.8461
 IR Inten    --     25.3284                27.0357                21.3726

                     82                     83                     84
                      A                      A                      A
 Frequencies --   3113.7038              3114.3171              3119.3868
 Red. masses --      1.1024                 1.1025                 1.1029
 Frc consts  --      6.2972                 6.3000                 6.3231
 IR Inten    --      4.0015                 4.0551                25.6652

                     85                     86                     87
                      A                      A                      A
 Frequencies --   3122.2526              3126.2916              3129.0028
 Red. masses --      1.1016                 1.1023                 1.1015
 Frc consts  --      6.3272                 6.3478                 6.3538
 IR Inten    --     93.2719                16.9777                45.9809

                     88                     89                     90
                      A                      A                      A
 Frequencies --   3189.1514              3212.6050              3213.4477
 Red. masses --      1.0892                 1.0912                 1.0888
 Frc consts  --      6.5272                 6.6357                 6.6240
 IR Inten    --     13.5332                 1.5891                 0.8177

                     91                     92                     93
                      A                      A                      A
 Frequencies --   3235.5745              3472.0690              3560.4557
 Red. masses --      1.0924                 1.0506                 1.0920
 Frc consts  --      6.7379                 7.4625                 8.1564
 IR Inten    --     12.5320                 0.6812                 0.3065

 - Thermochemistry -
 -------------------
 Temperature   298.150 Kelvin.  Pressure   1.00000 Atm.
 Atom     1 has atomic number  6 and mass  12.00000

 Molecular mass:   215.14225 amu.
 Principal axes and moments of inertia in atomic units:
                           1         2         3
     Eigenvalues --  1567.629026533.830897666.22219
           X            0.99998   0.00645   0.00065
           Y           -0.00645   0.99998   0.00206
           Z           -0.00064  -0.00206   1.00000
 This molecule is an asymmetric top.
 Rotational symmetry number  1.
 Warning -- assumption of classical behavior for rotation
           may cause significant error
 Rotational temperatures (Kelvin)      0.05525     0.01326     0.01130
 Rotational constants (GHZ):           1.15126     0.27621     0.23541
 Zero-point vibrational energy     741796.5 (Joules/Mol)
                                  177.29361 (Kcal/Mol)
 Warning -- explicit consideration of  24 degrees of freedom as
           vibrations may cause significant error
 Vibrational temperatures:     44.80    88.26    99.01   160.00   190.05
          (Kelvin)            279.46   299.70   348.61   360.37   388.72
                              419.00   440.29   461.00   494.01   502.69
                              545.41   577.32   631.11   652.69   699.55
                              701.40   737.06   788.90   881.26   934.16
                              954.35  1005.71  1091.71  1151.34  1159.26
                             1212.91  1231.56  1267.47  1293.14  1355.82
                             1366.94  1373.67  1390.60  1404.57  1425.91
                             1436.75  1479.90  1525.20  1531.79  1549.20
                             1618.80  1660.64  1690.81  1715.56  1736.39
                             1788.44  1802.08  1852.94  1867.86  1878.45
                             1904.93  1935.45  2011.95  2054.54  2056.06
                             2058.56  2094.08  2101.82  2120.46  2177.07
                             2181.71  2186.95  2195.02  2206.75  2213.15
                             2215.27  2231.69  2300.62  2357.56  2416.27
                             2441.39  4322.78  4383.84  4384.24  4394.87
                             4394.94  4479.93  4480.81  4488.10  4492.23
                             4498.04  4501.94  4588.48  4622.22  4623.43
                             4655.27  4995.53  5122.70

 Zero-point correction=                           0.282535 (Hartree/Particle)
 Thermal correction to Energy=                    0.297509
 Thermal correction to Enthalpy=                  0.298453
 Thermal correction to Gibbs Free Energy=         0.240610
 Sum of electronic and zero-point Energies=           -669.632981
 Sum of electronic and thermal Energies=              -669.618007
 Sum of electronic and thermal Enthalpies=            -669.617063
 Sum of electronic and thermal Free Energies=         -669.674906

                     E (Thermal)             CV                S
                      KCal/Mol        Cal/Mol-Kelvin    Cal/Mol-Kelvin
 Total                  186.690             59.068            121.741
 Electronic               0.000              0.000              0.000
 Translational            0.889              2.981             42.002
 Rotational               0.889              2.981             32.729
 Vibrational            184.912             53.107             47.010
 Vibration     1          0.594              1.983              5.756
 Vibration     2          0.597              1.973              4.413
 Vibration     3          0.598              1.969              4.187
 Vibration     4          0.607              1.940              3.248
 Vibration     5          0.612              1.921              2.915
 Vibration     6          0.635              1.848              2.187
 Vibration     7          0.642              1.828              2.058
 Vibration     8          0.658              1.775              1.786
 Vibration     9          0.663              1.762              1.727
 Vibration    10          0.674              1.728              1.595
 Vibration    11          0.687              1.690              1.467
 Vibration    12          0.696              1.662              1.384
 Vibration    13          0.706              1.634              1.308
 Vibration    14          0.722              1.589              1.197
 Vibration    15          0.727              1.576              1.169
 Vibration    16          0.749              1.515              1.043
 Vibration    17          0.767              1.467              0.958
 Vibration    18          0.799              1.386              0.831
 Vibration    19          0.812              1.353              0.785
 Vibration    20          0.842              1.281              0.694
 Vibration    21          0.843              1.278              0.690
 Vibration    22          0.867              1.223              0.628
 Vibration    23          0.904              1.143              0.548
 Vibration    24          0.972              1.005              0.429

 Optimization completed.
    -- Stationary point found.
 Normal termination of Gaussian 16 at Thu Dec 10 22:00:59 2020.

 ----------------------------------------------------------------------
 # B3LYP/6-311++G(d,p) empiricaldispersion=gd3bj scf=xqc pop=npa geom=c
 heck
 ----------------------------------------------------------------------

 --------------------------------------
 CID_82509142_JID_6245_Energie_neutraal
 --------------------------------------
 Structure from the checkpoint file:  "JID_6245.chk"
 Charge =  0 Multiplicity = 1

 SCF Done:  E(RB3LYP) =  -670.094879270     A.U. after   16 cycles
 Normal termination of Gaussian 16 at Thu Dec 10 22:05:41 2020.

 ----------------------------------------------------------------------
 # B3LYP/6-311++G(d,p) empiricaldispersion=gd3bj scf=xqc pop=npa geom=c
 heck
 ----------------------------------------------------------------------

 ------------------------------------
 CID_82509142_JID_6245_Energie_kation
 ------------------------------------
 Structure from the checkpoint file:  "JID_6245.chk"
 Charge =  1 Multiplicity = 2

 SCF Done:  E(UB3LYP) =  -669.795946463     A.U. after   32 cycles
 Normal termination of Gaussian 16 at Thu Dec 10 22:23:02 2020.
 Gaussian 16:  ES64L-G16RevA.03 25-Dec-2016

 ----------------------------------------------------------------------
 # B3LYP/6-311++G(d,p) empiricaldispersion=gd3bj scf=xqc pop=npa geom=c
 heck
 ----------------------------------------------------------------------

 -----------------------------------
 CID_82509142_JID_6245_Energie_anion
 -----------------------------------
 Structure from the checkpoint file:  "JID_6245.chk"
 Charge = -1 Multiplicity = 2

                         Standard orientation:
 ---------------------------------------------------------------------
 Center     Atomic      Atomic             Coordinates (Angstroms)
 Number     Number       Type             X           Y           Z
 ---------------------------------------------------------------------
      1          6           0        3.328703   -1.365692    1.307540
      2          6           0        3.181651   -0.549098    0.005026
      3          6           0        4.346332    0.452619   -0.067962
      4          6           0        3.282852   -1.496181   -1.210572
      5          6           0        1.809277    0.141800   -0.005918
      6          6           0        0.655713   -0.618402    0.057308
      7          6           0       -0.627683   -0.021055    0.051207
      8          6           0       -1.844090   -0.728915    0.117009
      9          6           0       -3.016263   -0.005953    0.099246
     10          7           0       -3.045894    1.360192    0.017332
     11          7           0       -1.938891    2.045542   -0.037133
     12          6           0       -0.736217    1.397252   -0.023137
     13          6           0        0.446179    2.173329   -0.089467
     14          6           0        1.676387    1.560111   -0.080187
     15          6           0       -4.379994   -0.652655    0.184738
     16          7           0       -4.337280   -2.056755   -0.232772
     17          1           0        4.303423   -1.866862    1.332664
     18          1           0        2.553943   -2.133774    1.393913
     19          1           0        3.255637   -0.715078    2.185834
     20          1           0        5.296835   -0.091223   -0.056587
     21          1           0        4.316307    1.046570   -0.987986
     22          1           0        4.347868    1.138986    0.785849
     23          1           0        2.506241   -2.266953   -1.189006
     24          1           0        3.177630   -0.939620   -2.148272
     25          1           0        4.256555   -1.999883   -1.218719
     26          1           0        0.710370   -1.701971    0.115048
     27          1           0       -1.876523   -1.812222    0.179215
     28          1           0        0.344571    3.252328   -0.146406
     29          1           0        2.565739    2.176290   -0.130642
     30          1           0       -4.712064   -0.627678    1.231499
     31          1           0       -5.083728   -0.016856   -0.375050
     32          1           0       -5.230079   -2.500357   -0.028951
     33          1           0       -4.215350   -2.107508   -1.243377
 ---------------------------------------------------------------------

 SCF Done:  E(UB3LYP) =  -670.112892296     A.U. after   23 cycles

 The electronic state is 2-A.
 Alpha  occ. eigenvalues --  -14.18928 -14.15393 -14.14710 -10.07715 -10.07242
 Alpha  occ. eigenvalues --  -10.05692 -10.05461 -10.05441 -10.04510 -10.04120
 Alpha  occ. eigenvalues --  -10.03172 -10.03070 -10.02365 -10.01470 -10.00959
 Alpha  occ. eigenvalues --  -10.00651  -0.83901  -0.77583  -0.72652  -0.69177
 Alpha  occ. eigenvalues --   -0.65952  -0.62005  -0.59872  -0.58208  -0.58157
 Alpha  occ. eigenvalues --   -0.54035  -0.51304  -0.47245  -0.45266  -0.43105
 Alpha  occ. eigenvalues --   -0.38961  -0.38467  -0.36147  -0.34880  -0.33703
 Alpha  occ. eigenvalues --   -0.33626  -0.32128  -0.30922  -0.29226  -0.28994
 Alpha  occ. eigenvalues --   -0.28944  -0.27890  -0.26643  -0.26486  -0.26472
 Alpha  occ. eigenvalues --   -0.25718  -0.24530  -0.23254  -0.22969  -0.20512
 Alpha  occ. eigenvalues --   -0.19705  -0.19436  -0.15510  -0.14492  -0.13755
 Alpha  occ. eigenvalues --   -0.10861  -0.08535  -0.05729   0.04092
 Alpha virt. eigenvalues --    0.07146   0.07524   0.09239   0.09630   0.10140
 Alpha virt. eigenvalues --    0.10699   0.11456   0.11776   0.11904   0.12013
 Alpha virt. eigenvalues --    0.12730   0.13207   0.13436   0.14070   0.14535

  Beta  occ. eigenvalues --  -14.18928 -14.15017 -14.14106 -10.07728 -10.07240
  Beta  occ. eigenvalues --  -10.05689 -10.05449 -10.05429 -10.04580 -10.04223
  Beta  occ. eigenvalues --  -10.03214 -10.02898 -10.02375 -10.01283 -10.00666
  Beta  occ. eigenvalues --  -10.00294  -0.83016  -0.77560  -0.72447  -0.68957
  Beta  occ. eigenvalues --   -0.65403  -0.61641  -0.59587  -0.58178  -0.58052
  Beta  occ. eigenvalues --   -0.53804  -0.50629  -0.47004  -0.45006  -0.42920
  Beta  occ. eigenvalues --   -0.38887  -0.38307  -0.35995  -0.34736  -0.33608
  Beta  occ. eigenvalues --   -0.33560  -0.32036  -0.30781  -0.29102  -0.28863
  Beta  occ. eigenvalues --   -0.28769  -0.27684  -0.26499  -0.26469  -0.26302
  Beta  occ. eigenvalues --   -0.24795  -0.24337  -0.23059  -0.22892  -0.20331
  Beta  occ. eigenvalues --   -0.19314  -0.18239  -0.14298  -0.13890  -0.13431
  Beta  occ. eigenvalues --   -0.09802  -0.06687  -0.05074
  Beta virt. eigenvalues --    0.07117   0.07484   0.09212   0.09544   0.10110
  Beta virt. eigenvalues --    0.10549   0.10715   0.11442   0.11838   0.11889
  Beta virt. eigenvalues --    0.11992   0.12750   0.13320   0.13567   0.14106

 Mulliken charges and spin densities:
               1          2
     1  C   -0.685390  -0.018180
     2  C    0.600218   0.055836
     3  C   -0.418282  -0.012816
     4  C   -0.688518  -0.013946
     5  C    0.677128   0.119907
     6  C   -0.064731   0.138390
     7  C    1.737042  -0.018800
     8  C    0.174681   0.325383
     9  C   -0.261508  -0.075040
    10  N   -0.136341   0.175950
    11  N   -0.002417   0.261507
    12  C   -2.156884  -0.090679
    13  C   -0.732681   0.214163
    14  C   -0.447026  -0.022390
    15  C   -0.503589  -0.016843
    16  N   -0.371544  -0.002474
    17  H    0.113777   0.004787
    18  H    0.144588  -0.002100
    19  H    0.134331   0.001863
    20  H    0.134348  -0.000506
    21  H    0.124256   0.003522
    22  H    0.124534   0.004240
    23  H    0.143538  -0.001572
    24  H    0.134850   0.001053
    25  H    0.115450   0.003460
    26  H    0.036571  -0.012327
    27  H    0.163399  -0.019876
    28  H    0.135337  -0.017046
    29  H    0.099148   0.000229
    30  H    0.134977   0.008589
    31  H    0.136711   0.004373
    32  H    0.209057   0.000819
    33  H    0.194971   0.000522
 Sum of Mulliken charges =  -1.00000   1.00000

 Dipole moment (field-independent basis, Debye):
    X=              4.4553    Y=             -5.1286    Z=             -0.5409  Tot=              6.8151
 Quadrupole moment (field-independent basis, Debye-Ang):
   XX=           -130.8751   YY=           -121.9068   ZZ=           -105.6534
   XY=             14.9499   XZ=              2.1129   YZ=              1.9221

 Summary of Natural Population Analysis:

                                       Natural Population
                Natural  -----------------------------------------------
    Atom  No    Charge         Core      Valence    Rydberg      Total
 -----------------------------------------------------------------------
      C    1   -0.27713      0.99964     2.27196    0.00553     3.27713
      C    2   -0.05111      0.99957     2.04260    0.00894     3.05111
      C    3   -0.28384      0.99964     2.27858    0.00561     3.28384
      C    4   -0.27707      0.99964     2.27190    0.00552     3.27707
      C    5    0.00996      0.99950     1.97860    0.01194     2.99004
      C    6   -0.05585      0.99949     2.05147    0.00490     3.05585
      C    7   -0.04430      0.99951     2.03271    0.01209     3.04430
      C    8   -0.04579      0.99946     2.03681    0.00953     3.04579
      C    9    0.04979      0.99952     1.93611    0.01458     2.95021
      N   10   -0.10384      0.99970     2.57964    0.02449     3.60384
      N   11   -0.02095      0.99970     2.51223    0.00902     3.52095
      C   12    0.03431      0.99949     1.94958    0.01662     2.96569
      C   13   -0.03551      0.99953     2.02501    0.01096     3.03551
      C   14   -0.12097      0.99953     2.11329    0.00814     3.12097
      C   15   -0.09848      0.99960     2.08783    0.01105     3.09848
      N   16   -0.42130      0.99978     2.91185    0.00968     3.92130
      H   17    0.08794      0.00000     0.41106    0.00100     0.41206
      H   18    0.10033      0.00000     0.39885    0.00081     0.39967
      H   19    0.10037      0.00000     0.39892    0.00070     0.39963
      H   20    0.09208      0.00000     0.40707    0.00085     0.40792
      H   21    0.10004      0.00000     0.39912    0.00085     0.39996
      H   22    0.10014      0.00000     0.39901    0.00085     0.39986
      H   23    0.10025      0.00000     0.39893    0.00082     0.39975
      H   24    0.10022      0.00000     0.39907    0.00071     0.39978
      H   25    0.08795      0.00000     0.41106    0.00100     0.41205
      H   26    0.08391      0.00000     0.41430    0.00179     0.41609
      H   27    0.09699      0.00000     0.40073    0.00227     0.40301
      H   28    0.09250      0.00000     0.40483    0.00267     0.40750
      H   29    0.09037      0.00000     0.40827    0.00135     0.40963
      H   30    0.08802      0.00000     0.41041    0.00157     0.41198
      H   31    0.08425      0.00000     0.41318    0.00257     0.41575
      H   32    0.16682      0.00000     0.33149    0.00169     0.33318
      H   33    0.17010      0.00000     0.32813    0.00177     0.32990
 =======================================================================
   * Total *    0.00025     15.99329    41.81458    0.19188    57.99975

 Normal termination of Gaussian 16 at Thu Dec 10 22:32:26 2020.
