 Gaussian 16, Revision A.03,

 -----------------------------------------------------------
 # opt freq B3LYP/6-31G(d) empiricaldispersion=gd3bj scf=xqc
 -----------------------------------------------------------

 ------------------------------
 CID_63306780_JID_5078_neutraal
 ------------------------------
 Symbolic Z-matrix:
 Charge =  0 Multiplicity = 1

 SCF Done:  E(RB3LYP) =  -1364.40008435     A.U. after   15 cycles
 SCF Done:  E(RB3LYP) =  -1364.40525345     A.U. after   12 cycles
 SCF Done:  E(RB3LYP) =  -1364.40582340     A.U. after   12 cycles
 SCF Done:  E(RB3LYP) =  -1364.40597066     A.U. after   11 cycles
 SCF Done:  E(RB3LYP) =  -1364.40602235     A.U. after   11 cycles
 SCF Done:  E(RB3LYP) =  -1364.40605021     A.U. after   11 cycles
 SCF Done:  E(RB3LYP) =  -1364.40606200     A.U. after    9 cycles
 SCF Done:  E(RB3LYP) =  -1364.40607702     A.U. after   10 cycles
 SCF Done:  E(RB3LYP) =  -1364.40608394     A.U. after   10 cycles
 SCF Done:  E(RB3LYP) =  -1364.40608706     A.U. after    9 cycles
 SCF Done:  E(RB3LYP) =  -1364.40608823     A.U. after    9 cycles
 SCF Done:  E(RB3LYP) =  -1364.40609016     A.U. after   10 cycles
 SCF Done:  E(RB3LYP) =  -1364.40609121     A.U. after   10 cycles
 SCF Done:  E(RB3LYP) =  -1364.40609193     A.U. after    9 cycles
 SCF Done:  E(RB3LYP) =  -1364.40609210     A.U. after    8 cycles
 Optimization completed.
    -- Stationary point found.
 Normal termination of Gaussian 16 at Thu Dec 10 14:44:44 2020.

 --------------------------------------------------------------------
 #N Geom=AllCheck Guess=TCheck SCRF=Check GenChk RB3LYP/6-31G(d) Freq
 --------------------------------------------------------------------

 Structure from the checkpoint file:  "JID_5078.chk"
 ------------------------------
 CID_63306780_JID_5078_neutraal
 ------------------------------
 Charge =  0 Multiplicity = 1

 SCF Done:  E(RB3LYP) =  -1364.40609210     A.U. after    1 cycles

  Exact polarizability: 258.428  16.022 152.999  -2.689   0.578  68.396
 Approx polarizability: 363.722  32.735 278.601  -6.309   0.544 109.941

                      1                      2                      3
                      A                      A                      A
 Frequencies --     19.4580                39.0399                57.1809
 Red. masses --      7.5380                 6.5430                 6.3649
 Frc consts  --      0.0017                 0.0059                 0.0123
 IR Inten    --      0.0914                 1.2238                 1.0539

                      4                      5                      6
                      A                      A                      A
 Frequencies --     78.0055               121.1148               139.1616
 Red. masses --      4.2336                 4.7801                 1.3232
 Frc consts  --      0.0152                 0.0413                 0.0151
 IR Inten    --      2.0900                 4.3014                 0.5353

                      7                      8                      9
                      A                      A                      A
 Frequencies --    163.9301               172.4198               220.6022
 Red. masses --      4.6611                 2.5963                 6.0478
 Frc consts  --      0.0738                 0.0455                 0.1734
 IR Inten    --      3.8905                 1.3723                 0.6012

                     10                     11                     12
                      A                      A                      A
 Frequencies --    257.0498               283.2695               316.3755
 Red. masses --      2.9302                 7.2520                10.8462
 Frc consts  --      0.1141                 0.3429                 0.6396
 IR Inten    --      4.8367                 0.7173                 0.0836

                     13                     14                     15
                      A                      A                      A
 Frequencies --    397.2357               447.1160               475.9125
 Red. masses --      4.5316                 3.2073                 6.4337
 Frc consts  --      0.4213                 0.3778                 0.8585
 IR Inten    --      6.9547                 5.0834                 3.8550

                     16                     17                     18
                      A                      A                      A
 Frequencies --    482.2346               517.8580               529.4132
 Red. masses --      4.7225                 2.9872                 5.3314
 Frc consts  --      0.6470                 0.4720                 0.8804
 IR Inten    --     10.7275                 0.7076                10.1919

                     19                     20                     21
                      A                      A                      A
 Frequencies --    544.9293               553.6616               574.5690
 Red. masses --      2.3916                 1.2480                 2.0989
 Frc consts  --      0.4184                 0.2254                 0.4082
 IR Inten    --     51.1495                39.1949                25.3937

                     22                     23                     24
                      A                      A                      A
 Frequencies --    595.4431               612.9962               632.8922
 Red. masses --      5.0174                 8.4872                 6.6620
 Frc consts  --      1.0481                 1.8790                 1.5722
 IR Inten    --     54.2962                33.7932                26.0972

                     25                     26                     27
                      A                      A                      A
 Frequencies --    682.8245               743.8038               752.5965
 Red. masses --      7.7246                 3.2453                 6.7219
 Frc consts  --      2.1220                 1.0578                 2.2432
 IR Inten    --     46.7048                13.6616                40.8603

                     28                     29                     30
                      A                      A                      A
 Frequencies --    809.5835               817.2906               871.7895
 Red. masses --      1.2728                 5.1315                 4.3359
 Frc consts  --      0.4915                 2.0195                 1.9416
 IR Inten    --     19.1142                 1.9442                 2.0977

                     31                     32                     33
                      A                      A                      A
 Frequencies --    957.3693               985.2476              1022.0807
 Red. masses --      1.3355                 1.3439                 1.5493
 Frc consts  --      0.7212                 0.7686                 0.9536
 IR Inten    --      0.0205                 0.0473                 8.0780

                     34                     35                     36
                      A                      A                      A
 Frequencies --   1024.7840              1069.3346              1078.1910
 Red. masses --      1.6694                12.0090                 1.5606
 Frc consts  --      1.0329                 8.0907                 1.0689
 IR Inten    --      1.6454               176.5367                 2.5239

                     37                     38                     39
                      A                      A                      A
 Frequencies --   1101.9943              1118.2524              1131.8294
 Red. masses --      2.3826                 4.5819                 2.6082
 Frc consts  --      1.7048                 3.3758                 1.9686
 IR Inten    --      0.7283                35.4956                28.9578

                     40                     41                     42
                      A                      A                      A
 Frequencies --   1186.6295              1210.2424              1267.4519
 Red. masses --      1.8269                 2.7328                 1.1481
 Frc consts  --      1.5157                 2.3583                 1.0867
 IR Inten    --     12.0245                 8.5121                17.0404

                     43                     44                     45
                      A                      A                      A
 Frequencies --   1271.9926              1287.3409              1308.3578
 Red. masses --      2.1833                 2.2828                 2.6601
 Frc consts  --      2.0813                 2.2290                 2.6829
 IR Inten    --     12.3862               114.3702                 1.7209

                     46                     47                     48
                      A                      A                      A
 Frequencies --   1320.3809              1359.0303              1390.2441
 Red. masses --      2.1469                 1.8618                 4.1204
 Frc consts  --      2.2053                 2.0260                 4.6921
 IR Inten    --      5.6558                62.2812               154.0529

                     49                     50                     51
                      A                      A                      A
 Frequencies --   1447.5918              1462.3020              1485.1106
 Red. masses --      1.2672                 1.8171                 1.9710
 Frc consts  --      1.5645                 2.2893                 2.5613
 IR Inten    --      7.2003               250.6374                10.9294

                     52                     53                     54
                      A                      A                      A
 Frequencies --   1499.3815              1505.8436              1514.0456
 Red. masses --      2.0149                 2.1134                 1.0451
 Frc consts  --      2.6689                 2.8235                 1.4115
 IR Inten    --    180.8982                17.3517                10.2016

                     55                     56                     57
                      A                      A                      A
 Frequencies --   1528.6588              1540.1520              1637.2925
 Red. masses --      1.2237                 1.1319                 6.0386
 Frc consts  --      1.6848                 1.5819                 9.5377
 IR Inten    --     19.4690                41.7244                 4.8594

                     58                     59                     60
                      A                      A                      A
 Frequencies --   1652.1493              1669.3727              2982.8161
 Red. masses --      5.9927                 8.5771                 1.0678
 Frc consts  --      9.6377                14.0831                 5.5975
 IR Inten    --    167.0689               554.5252                26.6578

                     61                     62                     63
                      A                      A                      A
 Frequencies --   3012.8109              3043.9733              3093.7941
 Red. masses --      1.0921                 1.0386                 1.1006
 Frc consts  --      5.8406                 5.6698                 6.2064
 IR Inten    --     23.1042                17.2178                13.2283

                     64                     65                     66
                      A                      A                      A
 Frequencies --   3135.7229              3187.9758              3192.5203
 Red. masses --      1.1001                 1.0881                 1.0913
 Frc consts  --      6.3731                 6.5155                 6.5534
 IR Inten    --     19.0431                 8.5057                20.5197

                     67                     68                     69
                      A                      A                      A
 Frequencies --   3220.8417              3527.2938              3636.1253
 Red. masses --      1.0965                 1.0756                 1.0795
 Frc consts  --      6.7018                 7.8844                 8.4088
 IR Inten    --     21.5922               309.4964                74.4775

 - Thermochemistry -
 -------------------
 Temperature   298.150 Kelvin.  Pressure   1.00000 Atm.
 Atom     1 has atomic number  6 and mass  12.00000

 Molecular mass:   238.03469 amu.
 Principal axes and moments of inertia in atomic units:
                           1         2         3
     Eigenvalues --  1154.115659699.28473**********
           X            0.99995  -0.00988   0.00050
           Y            0.00988   0.99995   0.00181
           Z           -0.00052  -0.00180   1.00000
 This molecule is an asymmetric top.
 Rotational symmetry number  1.
 Warning -- assumption of classical behavior for rotation
           may cause significant error
 Rotational temperatures (Kelvin)      0.07505     0.00893     0.00801
 Rotational constants (GHZ):           1.56374     0.18607     0.16689
 Zero-point vibrational energy     496308.4 (Joules/Mol)
                                  118.62055 (Kcal/Mol)
 Warning -- explicit consideration of  23 degrees of freedom as
           vibrations may cause significant error
 Vibrational temperatures:     28.00    56.17    82.27   112.23   174.26
          (Kelvin)            200.22   235.86   248.07   317.40   369.84
                              407.56   455.19   571.53   643.30   684.73
                              693.83   745.08   761.71   784.03   796.60
                              826.68   856.71   881.96   910.59   982.43
                             1070.17  1082.82  1164.81  1175.90  1254.31
                             1377.44  1417.55  1470.55  1474.44  1538.53
                             1551.28  1585.52  1608.92  1628.45  1707.30
                             1741.27  1823.58  1830.11  1852.20  1882.44
                             1899.73  1955.34  2000.25  2082.76  2103.93
                             2136.74  2157.28  2166.57  2178.37  2199.40
                             2215.94  2355.70  2377.07  2401.85  4291.61
                             4334.76  4379.60  4451.28  4511.61  4586.79
                             4593.32  4634.07  5074.99  5231.57

 Zero-point correction=                           0.189034 (Hartree/Particle)
 Thermal correction to Energy=                    0.203088
 Thermal correction to Enthalpy=                  0.204032
 Thermal correction to Gibbs Free Energy=         0.145603
 Sum of electronic and zero-point Energies=          -1364.217058
 Sum of electronic and thermal Energies=             -1364.203005
 Sum of electronic and thermal Enthalpies=           -1364.202060
 Sum of electronic and thermal Free Energies=        -1364.260489

                     E (Thermal)             CV                S
                      KCal/Mol        Cal/Mol-Kelvin    Cal/Mol-Kelvin
 Total                  127.439             51.805            122.973
 Electronic               0.000              0.000              0.000
 Translational            0.889              2.981             42.303
 Rotational               0.889              2.981             33.159
 Vibrational            125.662             45.844             47.511
 Vibration     1          0.593              1.986              6.689
 Vibration     2          0.594              1.981              5.307
 Vibration     3          0.596              1.975              4.552
 Vibration     4          0.599              1.964              3.940
 Vibration     5          0.609              1.932              3.083
 Vibration     6          0.615              1.914              2.815
 Vibration     7          0.623              1.887              2.504
 Vibration     8          0.626              1.876              2.409
 Vibration     9          0.647              1.810              1.954
 Vibration    10          0.667              1.751              1.682
 Vibration    11          0.682              1.705              1.514
 Vibration    12          0.703              1.642              1.329
 Vibration    13          0.764              1.476              0.973
 Vibration    14          0.806              1.367              0.805
 Vibration    15          0.833              1.303              0.721
 Vibration    16          0.838              1.289              0.704
 Vibration    17          0.873              1.210              0.615
 Vibration    18          0.884              1.185              0.589
 Vibration    19          0.900              1.151              0.555
 Vibration    20          0.909              1.132              0.537
 Vibration    21          0.931              1.086              0.496
 Vibration    22          0.953              1.041              0.458
 Vibration    23          0.972              1.004              0.428

                           ! Non-Optimized Parameters !
 Normal termination of Gaussian 16 at Thu Dec 10 14:50:52 2020.

 ----------------------------------------------------------------------
 # B3LYP/6-311++G(d,p) empiricaldispersion=gd3bj scf=xqc pop=npa geom=c
 heck
 ----------------------------------------------------------------------

 --------------------------------------
 CID_63306780_JID_5078_Energie_neutraal
 --------------------------------------
 Structure from the checkpoint file:  "JID_5078.chk"
 Charge =  0 Multiplicity = 1

 SCF Done:  E(RB3LYP) =  -1364.61102690     A.U. after   14 cycles
 Normal termination of Gaussian 16 at Thu Dec 10 14:53:08 2020.

 ----------------------------------------------------------------------
 # B3LYP/6-311++G(d,p) empiricaldispersion=gd3bj scf=xqc pop=npa geom=c
 heck
 ----------------------------------------------------------------------

 ------------------------------------
 CID_63306780_JID_5078_Energie_kation
 ------------------------------------
 Structure from the checkpoint file:  "JID_5078.chk"
 Charge =  1 Multiplicity = 2

 SCF Done:  E(UB3LYP) =  -1364.33907390     A.U. after   25 cycles
 Normal termination of Gaussian 16 at Thu Dec 10 14:58:29 2020.
 Gaussian 16:  ES64L-G16RevA.03 25-Dec-2016

 ----------------------------------------------------------------------
 # B3LYP/6-311++G(d,p) empiricaldispersion=gd3bj scf=xqc pop=npa geom=c
 heck
 ----------------------------------------------------------------------

 -----------------------------------
 CID_63306780_JID_5078_Energie_anion
 -----------------------------------
 Structure from the checkpoint file:  "JID_5078.chk"
 Charge = -1 Multiplicity = 2

                         Standard orientation:
 ---------------------------------------------------------------------
 Center     Atomic      Atomic             Coordinates (Angstroms)
 Number     Number       Type             X           Y           Z
 ---------------------------------------------------------------------
      1          6           0       -3.114467    2.472650    0.002534
      2          6           0       -3.429438    1.000008   -0.022798
      3          6           0       -2.410368    0.030483    0.026944
      4          7           0       -2.645003   -1.283634    0.002825
      5          6           0       -3.911760   -1.710375   -0.069287
      6          6           0       -4.994944   -0.840275   -0.121908
      7          6           0       -4.741101    0.530826   -0.098568
      8          6           0       -0.955563    0.455142    0.098326
      9          7           0       -0.107448   -0.702541    0.234979
     10          6           0        1.237740   -0.665139    0.113893
     11          7           0        1.987082   -1.728724    0.035544
     12          7           0        3.303097   -1.336502   -0.039549
     13          6           0        3.660954   -0.035149   -0.039113
     14         16           0        5.188920    0.599972   -0.135437
     15         16           0        2.123703    0.874940    0.086971
     16          1           0       -2.593644    2.758489    0.924995
     17          1           0       -2.464916    2.761343   -0.833185
     18          1           0       -4.028204    3.069475   -0.063252
     19          1           0       -4.054350   -2.788180   -0.085362
     20          1           0       -6.008532   -1.223376   -0.179925
     21          1           0       -5.562041    1.242113   -0.139408
     22          1           0       -0.703515    1.032682   -0.807163
     23          1           0       -0.814937    1.142038    0.947128
     24          1           0       -0.582882   -1.596799    0.141399
     25          1           0        4.000646   -2.065589   -0.106498
 ---------------------------------------------------------------------

 SCF Done:  E(UB3LYP) =  -1364.61291876     A.U. after   33 cycles
 SCF Done:  E(UB3LYP) =  -1364.61292848     a.u. after    8 cycles

 The electronic state is 2-A.
 Alpha  occ. eigenvalues --  -88.77402 -88.68096 -14.27971 -14.23132 -14.22846
 Alpha  occ. eigenvalues --  -14.17134 -10.16438 -10.14981 -10.11001 -10.08893
 Alpha  occ. eigenvalues --  -10.07802 -10.07222 -10.06582 -10.05501 -10.04779
 Alpha  occ. eigenvalues --   -7.86037  -7.76824  -5.82357  -5.82008  -5.81536
 Alpha  occ. eigenvalues --   -5.73239  -5.72623  -5.72406  -0.94214  -0.85338
 Alpha  occ. eigenvalues --   -0.81725  -0.74250  -0.70272  -0.69649  -0.66459
 Alpha  occ. eigenvalues --   -0.61313  -0.59707  -0.57624  -0.51471  -0.51231
 Alpha  occ. eigenvalues --   -0.48846  -0.48211  -0.42866  -0.39424  -0.38590
 Alpha  occ. eigenvalues --   -0.37145  -0.36601  -0.34532  -0.34070  -0.32906
 Alpha  occ. eigenvalues --   -0.31737  -0.30061  -0.29540  -0.28445  -0.27340
 Alpha  occ. eigenvalues --   -0.26972  -0.26419  -0.24194  -0.23915  -0.20280
 Alpha  occ. eigenvalues --   -0.19931  -0.16941  -0.14606  -0.14301  -0.13559
 Alpha  occ. eigenvalues --   -0.10627  -0.08955   0.04614
 Alpha virt. eigenvalues --    0.06622   0.07052   0.07920   0.08679   0.09453
 Alpha virt. eigenvalues --    0.09791   0.09979   0.10353   0.10855   0.11181
 Alpha virt. eigenvalues --    0.12265   0.12294   0.13252   0.13623   0.13882

  Beta  occ. eigenvalues --  -88.77394 -88.68083 -14.27919 -14.23188 -14.22850
  Beta  occ. eigenvalues --  -14.16722 -10.16343 -10.14610 -10.11009 -10.08795
  Beta  occ. eigenvalues --  -10.07730 -10.07218 -10.06575 -10.05503 -10.04428
  Beta  occ. eigenvalues --   -7.86030  -7.76812  -5.82361  -5.82013  -5.81493
  Beta  occ. eigenvalues --   -5.73245  -5.72567  -5.72399  -0.94101  -0.85225
  Beta  occ. eigenvalues --   -0.81221  -0.74056  -0.70063  -0.69283  -0.66170
  Beta  occ. eigenvalues --   -0.61182  -0.59539  -0.57425  -0.51285  -0.50965
  Beta  occ. eigenvalues --   -0.48609  -0.47963  -0.42780  -0.39282  -0.38449
  Beta  occ. eigenvalues --   -0.36945  -0.36414  -0.34255  -0.33790  -0.32763
  Beta  occ. eigenvalues --   -0.31629  -0.29972  -0.29459  -0.28260  -0.27122
  Beta  occ. eigenvalues --   -0.26155  -0.25872  -0.23808  -0.23547  -0.20279
  Beta  occ. eigenvalues --   -0.19469  -0.15116  -0.14209  -0.13845  -0.12829
  Beta  occ. eigenvalues --   -0.10594  -0.08725
  Beta virt. eigenvalues --    0.06874   0.07862   0.08656   0.08772   0.09441
  Beta virt. eigenvalues --    0.09767   0.10091   0.10137   0.10335   0.11066
  Beta virt. eigenvalues --    0.11149   0.12268   0.12659   0.13251   0.13555

 Mulliken charges and spin densities:
               1          2
     1  C   -0.404453  -0.370767
     2  C    0.055296   0.259400
     3  C   -0.585678   0.166464
     4  N   -0.114944   0.201881
     5  C   -0.082511   0.012367
     6  C   -0.133173  -0.095382
     7  C    0.111419   0.165475
     8  C   -0.405048  -0.054122
     9  N   -0.008960   0.013815
    10  C   -0.072914   0.037148
    11  N   -0.093619  -0.028558
    12  N   -0.107056   0.026644
    13  C    0.363864   0.149218
    14  S   -0.875843   0.076063
    15  S   -0.002184   0.048284
    16  H    0.113042   0.016465
    17  H    0.089545   0.045005
    18  H    0.037057   0.115295
    19  H    0.130302  -0.003322
    20  H    0.068566   0.055631
    21  H    0.006074   0.076977
    22  H    0.045129   0.110830
    23  H    0.190250  -0.023705
    24  H    0.345260  -0.000425
    25  H    0.330579  -0.000681
 Sum of Mulliken charges =  -1.00000   1.00000

 Dipole moment (field-independent basis, Debye):
    X=             -3.0674    Y=             -0.4652    Z=              0.8287  Tot=              3.2112
 Quadrupole moment (field-independent basis, Debye-Ang):
   XX=           -203.1968   YY=           -118.4095   ZZ=           -115.7309
   XY=            -10.8976   XZ=             -1.3411   YZ=              3.2817

 Summary of Natural Population Analysis:

                                       Natural Population
                Natural  -----------------------------------------------
    Atom  No    Charge         Core      Valence    Rydberg      Total
 -----------------------------------------------------------------------
      C    1   -0.29461      0.99965     2.28919    0.00577     3.29461
      C    2   -0.03968      0.99947     2.03131    0.00890     3.03968
      C    3    0.11836      0.99950     1.86816    0.01398     2.88164
      N    4   -0.20988      0.99965     2.69880    0.01142     3.70988
      C    5    0.03664      0.99960     1.95013    0.01363     2.96336
      C    6   -0.13055      0.99956     2.12125    0.00973     3.13055
      C    7   -0.02481      0.99953     2.01554    0.00974     3.02481
      C    8   -0.10180      0.99959     2.09148    0.01072     3.10180
      N    9   -0.31829      0.99963     2.80734    0.01131     3.81829
      C   10    0.15279      0.99963     1.82765    0.01993     2.84721
      N   11   -0.19927      0.99964     2.68704    0.01259     3.69927
      N   12   -0.19706      0.99960     2.68197    0.01549     3.69706
      C   13   -0.00361      0.99969     1.98563    0.01829     3.00361
      S   14   -0.12370      4.99952     3.10774    0.01644     8.12370
      S   15    0.15560      4.99942     2.82645    0.01852     7.84440
      H   16    0.09912      0.00000     0.39984    0.00104     0.40088
      H   17    0.10199      0.00000     0.39682    0.00118     0.39801
      H   18    0.10104      0.00000     0.39809    0.00086     0.39896
      H   19    0.08163      0.00000     0.41725    0.00112     0.41837
      H   20    0.09530      0.00000     0.40372    0.00097     0.40470
      H   21    0.08977      0.00000     0.40924    0.00099     0.41023
      H   22    0.09817      0.00000     0.40026    0.00157     0.40183
      H   23    0.09619      0.00000     0.40251    0.00129     0.40381
      H   24    0.21697      0.00000     0.28118    0.00185     0.28303
      H   25    0.19967      0.00000     0.29880    0.00153     0.30033
 =======================================================================
   * Total *   -0.00000     22.99369    38.79742    0.20889    62.00000

 Normal termination of Gaussian 16 at Thu Dec 10 16:04:11 2020.
