 Gaussian 16, Revision A.03,

 -----------------------------------------------------------
 # opt freq B3LYP/6-31G(d) empiricaldispersion=gd3bj scf=xqc
 -----------------------------------------------------------

 ------------------------------
 CID_61271828_JID_7449_neutraal
 ------------------------------
 Symbolic Z-matrix:
 Charge =  0 Multiplicity = 1

 SCF Done:  E(RB3LYP) =  -748.756274353     A.U. after   15 cycles
 SCF Done:  E(RB3LYP) =  -748.764881048     A.U. after   12 cycles
 SCF Done:  E(RB3LYP) =  -748.766079690     A.U. after   13 cycles
 SCF Done:  E(RB3LYP) =  -748.766697443     A.U. after   12 cycles
 SCF Done:  E(RB3LYP) =  -748.767131791     A.U. after   12 cycles
 SCF Done:  E(RB3LYP) =  -748.767581233     A.U. after   11 cycles
 SCF Done:  E(RB3LYP) =  -748.767685494     A.U. after   11 cycles
 SCF Done:  E(RB3LYP) =  -748.767749669     A.U. after   11 cycles
 SCF Done:  E(RB3LYP) =  -748.767826000     A.U. after   11 cycles
 SCF Done:  E(RB3LYP) =  -748.767861328     A.U. after   12 cycles
 SCF Done:  E(RB3LYP) =  -748.768665726     A.U. after   10 cycles
 SCF Done:  E(RB3LYP) =  -748.768672469     A.U. after    9 cycles
 SCF Done:  E(RB3LYP) =  -748.768674903     A.U. after    8 cycles
 SCF Done:  E(RB3LYP) =  -748.768675833     A.U. after    8 cycles
 SCF Done:  E(RB3LYP) =  -748.768675926     A.U. after    7 cycles
 Optimization completed.
    -- Stationary point found.
 Normal termination of Gaussian 16 at Sun Dec 13 12:55:59 2020.

 --------------------------------------------------------------------
 #N Geom=AllCheck Guess=TCheck SCRF=Check GenChk RB3LYP/6-31G(d) Freq
 --------------------------------------------------------------------

 Structure from the checkpoint file:  "JID_7449.chk"
 ------------------------------
 CID_61271828_JID_7449_neutraal
 ------------------------------
 Charge =  0 Multiplicity = 1

 SCF Done:  E(RB3LYP) =  -748.768675926     A.U. after    1 cycles

  Exact polarizability: 179.482   4.691 164.832   7.704   1.088 123.665
 Approx polarizability: 224.011  13.196 280.496  12.385  -8.056 181.830

                      1                      2                      3
                      A                      A                      A
 Frequencies --     30.9374                52.7923                76.8218
 Red. masses --      3.5268                 3.2261                 2.6136
 Frc consts  --      0.0020                 0.0053                 0.0091
 IR Inten    --      0.0122                 0.5525                 0.7701

                      4                      5                      6
                      A                      A                      A
 Frequencies --     83.7681               130.3650               142.6186
 Red. masses --      3.7200                 2.3493                 4.1630
 Frc consts  --      0.0154                 0.0235                 0.0499
 IR Inten    --      0.3825                 3.9159                 2.7933

                      7                      8                      9
                      A                      A                      A
 Frequencies --    174.1824               188.2924               204.2765
 Red. masses --      2.9751                 2.6939                 2.0925
 Frc consts  --      0.0532                 0.0563                 0.0514
 IR Inten    --      3.7736                 2.5012                 6.9129

                     10                     11                     12
                      A                      A                      A
 Frequencies --    227.9722               235.8220               260.8010
 Red. masses --      2.8681                 1.7576                 1.4248
 Frc consts  --      0.0878                 0.0576                 0.0571
 IR Inten    --      4.2910                 5.3770                 2.8256

                     13                     14                     15
                      A                      A                      A
 Frequencies --    274.5147               290.6210               297.1138
 Red. masses --      1.5907                 3.4153                 2.8610
 Frc consts  --      0.0706                 0.1700                 0.1488
 IR Inten    --     20.6292                 2.4369                 1.8991

                     16                     17                     18
                      A                      A                      A
 Frequencies --    316.9551               331.8651               335.3029
 Red. masses --      2.4300                 2.0225                 2.0721
 Frc consts  --      0.1438                 0.1312                 0.1373
 IR Inten    --      2.7177                17.3922                 0.4212

                     19                     20                     21
                      A                      A                      A
 Frequencies --    348.0293               386.9563               412.8874
 Red. masses --      1.4809                 2.7725                 3.5753
 Frc consts  --      0.1057                 0.2446                 0.3591
 IR Inten    --     11.5407                 1.9745                 3.3894

                     22                     23                     24
                      A                      A                      A
 Frequencies --    438.1384               493.2192               513.3568
 Red. masses --      2.4094                 1.9749                 2.3647
 Frc consts  --      0.2725                 0.2831                 0.3672
 IR Inten    --      2.3246                 0.6155                 1.0360

                     25                     26                     27
                      A                      A                      A
 Frequencies --    543.1488               573.1294               603.2796
 Red. masses --      2.9829                 3.2050                 4.5890
 Frc consts  --      0.5185                 0.6203                 0.9840
 IR Inten    --      2.6851                 5.9067                31.6084

                     28                     29                     30
                      A                      A                      A
 Frequencies --    604.0830               694.3629               710.9635
 Red. masses --      4.0313                 6.0295                 3.3227
 Frc consts  --      0.8667                 1.7128                 0.9896
 IR Inten    --      3.6420                11.5528                 7.5086

                     31                     32                     33
                      A                      A                      A
 Frequencies --    740.6035               759.2571               789.6722
 Red. masses --      3.0399                 4.4237                 1.6012
 Frc consts  --      0.9824                 1.5025                 0.5883
 IR Inten    --     27.5270                31.8197               254.9269

                     34                     35                     36
                      A                      A                      A
 Frequencies --    816.3564               819.9625               836.2512
 Red. masses --      1.4867                 1.7618                 1.6689
 Frc consts  --      0.5838                 0.6979                 0.6876
 IR Inten    --      8.8856                17.5662                 9.2381

                     37                     38                     39
                      A                      A                      A
 Frequencies --    858.0166               873.7361               887.8662
 Red. masses --      2.1092                 1.6851                 2.3961
 Frc consts  --      0.9149                 0.7580                 1.1129
 IR Inten    --      2.5575                 1.0561                 5.0952

                     40                     41                     42
                      A                      A                      A
 Frequencies --    965.5357               970.5310               977.4093
 Red. masses --      2.6926                 2.0975                 2.2899
 Frc consts  --      1.4789                 1.1641                 1.2889
 IR Inten    --      5.8407                 8.7150                 3.1522

                     43                     44                     45
                      A                      A                      A
 Frequencies --   1007.5918              1022.7941              1038.0703
 Red. masses --      2.0580                 2.2432                 1.8757
 Frc consts  --      1.2310                 1.3826                 1.1909
 IR Inten    --      2.0193                 6.2831                 1.0240

                     46                     47                     48
                      A                      A                      A
 Frequencies --   1044.7043              1081.3459              1097.5667
 Red. masses --      1.9513                 1.9005                 2.0149
 Frc consts  --      1.2548                 1.3093                 1.4301
 IR Inten    --      2.0662                17.7304                 2.9955

                     49                     50                     51
                      A                      A                      A
 Frequencies --   1106.6493              1115.4014              1131.2085
 Red. masses --      2.2144                 1.8407                 1.9608
 Frc consts  --      1.5978                 1.3492                 1.4783
 IR Inten    --      2.0016                 0.5523                 1.7760

                     52                     53                     54
                      A                      A                      A
 Frequencies --   1137.7925              1157.5386              1170.1638
 Red. masses --      1.9236                 1.9810                 1.5204
 Frc consts  --      1.4672                 1.5639                 1.2266
 IR Inten    --      3.5609                19.0570                 6.6119

                     55                     56                     57
                      A                      A                      A
 Frequencies --   1185.6815              1217.6114              1241.6664
 Red. masses --      2.6092                 1.9844                 1.2828
 Frc consts  --      2.1612                 1.7334                 1.1652
 IR Inten    --      2.0107                24.9950                 1.0466

                     58                     59                     60
                      A                      A                      A
 Frequencies --   1251.1183              1257.7346              1274.2882
 Red. masses --      1.2609                 4.1229                 1.2462
 Frc consts  --      1.1628                 3.8427                 1.1923
 IR Inten    --      3.9174               170.2306                 4.0170

                     61                     62                     63
                      A                      A                      A
 Frequencies --   1277.9348              1301.3948              1317.6180
 Red. masses --      1.9996                 3.0405                 1.2160
 Frc consts  --      1.9240                 3.0340                 1.2438
 IR Inten    --      6.1146                59.7279                 0.3814

                     64                     65                     66
                      A                      A                      A
 Frequencies --   1327.1370              1331.3942              1371.5543
 Red. masses --      1.2315                 1.1460                 1.5536
 Frc consts  --      1.2780                 1.1968                 1.7219
 IR Inten    --      1.8575                 2.4710                22.2531

                     67                     68                     69
                      A                      A                      A
 Frequencies --   1376.7160              1388.4184              1395.5551
 Red. masses --      1.3482                 1.3905                 1.3738
 Frc consts  --      1.5055                 1.5792                 1.5764
 IR Inten    --      3.9268                 2.0679                 0.0990

                     70                     71                     72
                      A                      A                      A
 Frequencies --   1398.8590              1413.1922              1416.2479
 Red. masses --      1.4057                 1.4585                 1.4172
 Frc consts  --      1.6206                 1.7161                 1.6747
 IR Inten    --      4.2663                 3.5145                 5.5326

                     73                     74                     75
                      A                      A                      A
 Frequencies --   1419.2027              1433.4813              1438.8162
 Red. masses --      1.3716                 1.4470                 1.2907
 Frc consts  --      1.6277                 1.7519                 1.5743
 IR Inten    --      2.2633                 9.7627                 0.3733

                     76                     77                     78
                      A                      A                      A
 Frequencies --   1457.3077              1474.6840              1510.3926
 Red. masses --      2.8341                 1.2103                 1.0753
 Frc consts  --      3.5463                 1.5508                 1.4453
 IR Inten    --     12.7749                 1.2882                 1.4162

                     79                     80                     81
                      A                      A                      A
 Frequencies --   1513.6860              1517.0395              1517.8699
 Red. masses --      1.0815                 1.0881                 1.0880
 Frc consts  --      1.4600                 1.4754                 1.4769
 IR Inten    --      0.7043                 0.3402                 3.7217

                     82                     83                     84
                      A                      A                      A
 Frequencies --   1520.4573              1526.2667              1532.4318
 Red. masses --      1.0888                 1.0757                 1.0625
 Frc consts  --      1.4831                 1.4764                 1.4701
 IR Inten    --      4.6672                 2.2832                 7.5466

                     85                     86                     87
                      A                      A                      A
 Frequencies --   1533.3843              1539.6348              1542.7599
 Red. masses --      1.0519                 1.0786                 1.0639
 Frc consts  --      1.4572                 1.5064                 1.4920
 IR Inten    --      8.6188                10.1386                 6.9302

                     88                     89                     90
                      A                      A                      A
 Frequencies --   1550.3641              1672.7004              1742.2503
 Red. masses --      1.0725                 1.1830                 8.3030
 Frc consts  --      1.5189                 1.9502                14.8493
 IR Inten    --      9.8694               130.2344                38.5652

                     91                     92                     93
                      A                      A                      A
 Frequencies --   1776.3169              3014.8656              3019.2122
 Red. masses --      8.9312                 1.0652                 1.0680
 Frc consts  --     16.6036                 5.7047                 5.7359
 IR Inten    --    324.3157                22.4553                19.8011

                     94                     95                     96
                      A                      A                      A
 Frequencies --   3020.0045              3028.4216              3034.4578
 Red. masses --      1.0623                 1.0641                 1.0523
 Frc consts  --      5.7083                 5.7502                 5.7090
 IR Inten    --     19.7734                18.5663                56.7227

                     97                     98                     99
                      A                      A                      A
 Frequencies --   3036.8303              3046.0164              3052.4862
 Red. masses --      1.0645                 1.0680                 1.0661
 Frc consts  --      5.7843                 5.8381                 5.8525
 IR Inten    --     18.7158                16.4186                 2.7640

                    100                    101                    102
                      A                      A                      A
 Frequencies --   3053.8894              3056.1402              3060.7616
 Red. masses --      1.0723                 1.0584                 1.0924
 Frc consts  --      5.8923                 5.8244                 6.0298
 IR Inten    --     20.9707                20.3403                75.2903

                    103                    104                    105
                      A                      A                      A
 Frequencies --   3065.3483              3072.0558              3082.3898
 Red. masses --      1.1006                 1.0965                 1.0990
 Frc consts  --      6.0931                 6.0970                 6.1521
 IR Inten    --     52.6177                41.8926                78.4639

                    106                    107                    108
                      A                      A                      A
 Frequencies --   3089.3377              3091.2531              3105.5398
 Red. masses --      1.0935                 1.0978                 1.0931
 Frc consts  --      6.1491                 6.1809                 6.2115
 IR Inten    --     18.6011                24.6005                26.0154

                    109                    110                    111
                      A                      A                      A
 Frequencies --   3121.6048              3136.2329              3142.9242
 Red. masses --      1.1014                 1.1029                 1.0881
 Frc consts  --      6.3234                 6.3915                 6.3329
 IR Inten    --     33.6939                20.0459                21.4322

                    112                    113                    114
                      A                      A                      A
 Frequencies --   3204.1013              3499.4123              3624.7581
 Red. masses --      1.0975                 1.0526                 1.0911
 Frc consts  --      6.6385                 7.5944                 8.4467
 IR Inten    --     12.2924                15.5853                13.0612

 - Thermochemistry -
 -------------------
 Temperature   298.150 Kelvin.  Pressure   1.00000 Atm.
 Atom     1 has atomic number  6 and mass  12.00000

 Molecular mass:   237.18411 amu.
 Principal axes and moments of inertia in atomic units:
                           1         2         3
     Eigenvalues --  2287.499516100.021546816.04674
           X            0.99989  -0.01280   0.00715
           Y            0.01250   0.99912   0.03997
           Z           -0.00765  -0.03987   0.99918
 This molecule is an asymmetric top.
 Rotational symmetry number  1.
 Warning -- assumption of classical behavior for rotation
           may cause significant error
 Rotational temperatures (Kelvin)      0.03786     0.01420     0.01271
 Rotational constants (GHZ):           0.78896     0.29586     0.26478
 Zero-point vibrational energy     945072.7 (Joules/Mol)
                                  225.87779 (Kcal/Mol)
 Warning -- explicit consideration of  28 degrees of freedom as
           vibrations may cause significant error
 Vibrational temperatures:     44.51    75.96   110.53   120.52   187.57
          (Kelvin)            205.20   250.61   270.91   293.91   328.00
                              339.30   375.23   394.97   418.14   427.48
                              456.03   477.48   482.43   500.74   556.74
                              594.05   630.38   709.63   738.61   781.47
                              824.61   867.98   869.14   999.03  1022.92
                             1065.56  1092.40  1136.16  1174.55  1179.74
                             1203.18  1234.49  1257.11  1277.44  1389.19
                             1396.38  1406.27  1449.70  1471.57  1493.55
                             1503.10  1555.82  1579.15  1592.22  1604.81
                             1627.56  1637.03  1665.44  1683.60  1705.93
                             1751.87  1786.48  1800.08  1809.60  1833.42
                             1838.66  1872.42  1895.76  1909.45  1915.58
                             1973.36  1980.79  1997.62  2007.89  2012.65
                             2033.27  2037.66  2041.92  2062.46  2070.14
                             2096.74  2121.74  2173.12  2177.86  2182.68
                             2183.88  2187.60  2195.96  2204.83  2206.20
                             2215.19  2219.69  2230.63  2406.64  2506.71
                             2555.72  4337.72  4343.97  4345.11  4357.22
                             4365.91  4369.32  4382.54  4391.85  4393.87
                             4397.10  4403.75  4410.35  4420.00  4434.87
                             4444.87  4447.62  4468.18  4491.29  4512.34
                             4521.97  4609.99  5034.87  5215.22

 Zero-point correction=                           0.359959 (Hartree/Particle)
 Thermal correction to Energy=                    0.377067
 Thermal correction to Enthalpy=                  0.378011
 Thermal correction to Gibbs Free Energy=         0.315823
 Sum of electronic and zero-point Energies=           -748.408717
 Sum of electronic and thermal Energies=              -748.391609
 Sum of electronic and thermal Enthalpies=            -748.390665
 Sum of electronic and thermal Free Energies=         -748.452853

                     E (Thermal)             CV                S
                      KCal/Mol        Cal/Mol-Kelvin    Cal/Mol-Kelvin
 Total                  236.613             67.017            130.886
 Electronic               0.000              0.000              0.000
 Translational            0.889              2.981             42.292
 Rotational               0.889              2.981             32.919
 Vibrational            234.835             61.055             55.674
 Vibration     1          0.594              1.984              5.768
 Vibration     2          0.596              1.976              4.710
 Vibration     3          0.599              1.965              3.970
 Vibration     4          0.601              1.960              3.801
 Vibration     5          0.612              1.923              2.941
 Vibration     6          0.616              1.911              2.768
 Vibration     7          0.627              1.874              2.390
 Vibration     8          0.633              1.856              2.245
 Vibration     9          0.640              1.834              2.094
 Vibration    10          0.651              1.798              1.895
 Vibration    11          0.655              1.786              1.834
 Vibration    12          0.669              1.744              1.656
 Vibration    13          0.677              1.720              1.568
 Vibration    14          0.687              1.691              1.470
 Vibration    15          0.691              1.679              1.433
 Vibration    16          0.704              1.641              1.326
 Vibration    17          0.714              1.612              1.251
 Vibration    18          0.716              1.605              1.234
 Vibration    19          0.726              1.579              1.175
 Vibration    20          0.755              1.498              1.012
 Vibration    21          0.777              1.442              0.916
 Vibration    22          0.798              1.387              0.832
 Vibration    23          0.849              1.265              0.675
 Vibration    24          0.868              1.220              0.626
 Vibration    25          0.898              1.155              0.559
 Vibration    26          0.929              1.089              0.498
 Vibration    27          0.962              1.025              0.444
 Vibration    28          0.963              1.023              0.443

                           ! Non-Optimized Parameters !
 Normal termination of Gaussian 16 at Sun Dec 13 13:13:25 2020.

 ----------------------------------------------------------------------
 # B3LYP/6-311++G(d,p) empiricaldispersion=gd3bj scf=xqc pop=npa geom=c
 heck
 ----------------------------------------------------------------------

 --------------------------------------
 CID_61271828_JID_7449_Energie_neutraal
 --------------------------------------
 Structure from the checkpoint file:  "JID_7449.chk"
 Charge =  0 Multiplicity = 1

 SCF Done:  E(RB3LYP) =  -748.980168536     A.U. after   16 cycles
 Normal termination of Gaussian 16 at Sun Dec 13 13:23:28 2020.

 ----------------------------------------------------------------------
 # B3LYP/6-311++G(d,p) empiricaldispersion=gd3bj scf=xqc pop=npa geom=c
 heck
 ----------------------------------------------------------------------

 ------------------------------------
 CID_61271828_JID_7449_Energie_kation
 ------------------------------------
 Structure from the checkpoint file:  "JID_7449.chk"
 Charge =  1 Multiplicity = 2

 SCF Done:  E(UB3LYP) =  -748.710032251     A.U. after   24 cycles
 Normal termination of Gaussian 16 at Sun Dec 13 13:45:00 2020.
 Gaussian 16:  ES64L-G16RevA.03 25-Dec-2016

 ----------------------------------------------------------------------
 # B3LYP/6-311++G(d,p) empiricaldispersion=gd3bj scf=xqc pop=npa geom=c
 heck
 ----------------------------------------------------------------------

 -----------------------------------
 CID_61271828_JID_7449_Energie_anion
 -----------------------------------
 Structure from the checkpoint file:  "JID_7449.chk"
 Charge = -1 Multiplicity = 2

                         Standard orientation:
 ---------------------------------------------------------------------
 Center     Atomic      Atomic             Coordinates (Angstroms)
 Number     Number       Type             X           Y           Z
 ---------------------------------------------------------------------
      1          6           0        4.041958   -1.382561    1.400714
      2          6           0        2.837619   -1.752652    0.527731
      3          6           0        2.036412   -0.577556    0.048415
      4          6           0        2.354109    0.732865   -0.093022
      5          6           0        1.176144    1.422935   -0.619444
      6          8           0        1.019102    2.637348   -0.738627
      7          7           0        0.216012    0.442894   -0.870935
      8          7           0        0.691513   -0.807607   -0.373812
      9          6           0        0.583263   -1.862270   -1.399813
     10          6           0       -1.190525    0.822012   -0.607790
     11          6           0       -2.206649   -0.045621   -1.370125
     12          6           0       -2.760216   -1.283099   -0.637895
     13          6           0       -3.966709   -0.969239    0.260607
     14          6           0       -3.648512   -0.187768    1.540719
     15          6           0       -2.879953    1.129010    1.350524
     16          6           0       -1.419147    0.939251    0.909973
     17          7           0        3.498137    1.487598    0.174356
     18          1           0        4.776635   -0.799365    0.837647
     19          1           0        4.540951   -2.288066    1.759986
     20          1           0        3.731650   -0.803252    2.277989
     21          1           0        3.193268   -2.338284   -0.333283
     22          1           0        2.170551   -2.418676    1.090756
     23          1           0       -0.461160   -2.016049   -1.661106
     24          1           0        1.152339   -1.603249   -2.303506
     25          1           0        0.967269   -2.794158   -0.979979
     26          1           0       -1.231936    1.827419   -1.036168
     27          1           0       -3.058887    0.594181   -1.631924
     28          1           0       -1.750677   -0.327142   -2.325291
     29          1           0       -1.974572   -1.766314   -0.043659
     30          1           0       -3.076967   -2.017653   -1.389567
     31          1           0       -4.457088   -1.909870    0.544241
     32          1           0       -4.703312   -0.408428   -0.333302
     33          1           0       -3.061933   -0.829821    2.214041
     34          1           0       -4.592314    0.019216    2.062484
     35          1           0       -2.883209    1.663088    2.308760
     36          1           0       -3.411849    1.781390    0.643157
     37          1           0       -1.008867    0.044188    1.393014
     38          1           0       -0.815380    1.786240    1.254172
     39          1           0        3.252058    2.475424    0.146717
     40          1           0        3.964221    1.258346    1.043015
 ---------------------------------------------------------------------

 SCF Done:  E(UB3LYP) =  -748.966577981     A.U. after   33 cycles
 SCF Done:  E(UB3LYP) =  -748.966577981     a.u. after    1 cycles

 The electronic state is 2-A.
 Alpha  occ. eigenvalues --  -18.98635 -14.27025 -14.26200 -14.21623 -10.15868
 Alpha  occ. eigenvalues --  -10.11432 -10.10913 -10.10856 -10.10103 -10.09164
 Alpha  occ. eigenvalues --  -10.07770 -10.07518 -10.07447 -10.07187 -10.07124
 Alpha  occ. eigenvalues --  -10.07060 -10.07045  -0.95410  -0.90568  -0.81252
 Alpha  occ. eigenvalues --   -0.77028  -0.72748  -0.69759  -0.68007  -0.67033
 Alpha  occ. eigenvalues --   -0.64030  -0.58201  -0.56980  -0.56303  -0.53929
 Alpha  occ. eigenvalues --   -0.48842  -0.48421  -0.47361  -0.45405  -0.40925
 Alpha  occ. eigenvalues --   -0.40111  -0.38903  -0.38369  -0.37497  -0.36549
 Alpha  occ. eigenvalues --   -0.36419  -0.34810  -0.34447  -0.34214  -0.32593
 Alpha  occ. eigenvalues --   -0.32138  -0.31585  -0.30925  -0.30502  -0.29311
 Alpha  occ. eigenvalues --   -0.28632  -0.27951  -0.27222  -0.26338  -0.25846
 Alpha  occ. eigenvalues --   -0.24576  -0.23646  -0.23335  -0.22876  -0.22335
 Alpha  occ. eigenvalues --   -0.21861  -0.21466  -0.16278  -0.14286  -0.10508
 Alpha  occ. eigenvalues --    0.04269
 Alpha virt. eigenvalues --    0.05219   0.06572   0.07345   0.07441   0.07656
 Alpha virt. eigenvalues --    0.08237   0.08987   0.09592   0.10017   0.10205
 Alpha virt. eigenvalues --    0.10680   0.11012   0.11246   0.12267   0.12357

  Beta  occ. eigenvalues --  -18.98588 -14.27012 -14.26196 -14.21598 -10.15817
  Beta  occ. eigenvalues --  -10.11425 -10.10892 -10.10782 -10.10087 -10.09166
  Beta  occ. eigenvalues --  -10.07763 -10.07504 -10.07437 -10.07169 -10.07102
  Beta  occ. eigenvalues --  -10.07046 -10.06998  -0.95348  -0.90500  -0.81209
  Beta  occ. eigenvalues --   -0.76983  -0.72715  -0.69683  -0.67963  -0.67006
  Beta  occ. eigenvalues --   -0.63973  -0.58136  -0.56907  -0.56272  -0.53865
  Beta  occ. eigenvalues --   -0.48789  -0.48355  -0.47314  -0.45352  -0.40887
  Beta  occ. eigenvalues --   -0.40054  -0.38840  -0.38312  -0.37452  -0.36508
  Beta  occ. eigenvalues --   -0.36353  -0.34769  -0.34416  -0.34168  -0.32539
  Beta  occ. eigenvalues --   -0.32088  -0.31545  -0.30887  -0.30411  -0.29269
  Beta  occ. eigenvalues --   -0.28599  -0.27837  -0.27144  -0.26286  -0.25810
  Beta  occ. eigenvalues --   -0.24536  -0.23621  -0.23274  -0.22783  -0.22294
  Beta  occ. eigenvalues --   -0.21820  -0.21410  -0.16217  -0.14134  -0.10278
  Beta virt. eigenvalues --    0.06084   0.06598   0.06995   0.07634   0.07954
  Beta virt. eigenvalues --    0.08266   0.08716   0.09164   0.09921   0.10151
  Beta virt. eigenvalues --    0.10572   0.10869   0.11257   0.11497   0.12302

 Mulliken charges and spin densities:
               1          2
     1  C    1.289085  -1.997877
     2  C   -1.843642   1.584115
     3  C    0.861896  -0.572667
     4  C    0.151665  -0.220504
     5  C   -0.099853  -0.180003
     6  O   -0.355268   0.019168
     7  N    0.411439   0.014685
     8  N    0.202406  -0.003601
     9  C   -0.070073  -0.251351
    10  C   -1.022595   0.356030
    11  C   -0.045818  -0.516608
    12  C   -0.540268   0.507441
    13  C    1.116976  -1.705914
    14  C   -0.244720  -0.109444
    15  C   -0.517055   0.148451
    16  C    0.376443  -0.239378
    17  N   -0.384683   0.004385
    18  H   -0.020689   0.176967
    19  H   -0.835710   0.994025
    20  H   -0.291577   0.453406
    21  H    0.078669   0.088174
    22  H    0.236219  -0.076081
    23  H   -0.187341   0.344536
    24  H    0.114843   0.062108
    25  H    0.160166  -0.018832
    26  H    0.188830   0.051844
    27  H   -0.001248   0.131021
    28  H    0.107951   0.083266
    29  H    0.349977  -0.229186
    30  H   -0.463019   0.645513
    31  H   -0.420160   0.586881
    32  H   -0.050524   0.196137
    33  H    0.149648  -0.012769
    34  H   -0.173026   0.327821
    35  H    0.113375   0.046380
    36  H    0.072631   0.060731
    37  H    0.130512   0.019800
    38  H    0.204447  -0.018401
    39  H    0.197531   0.051828
    40  H    0.052558   0.197899
 Sum of Mulliken charges =  -1.00000   1.00000

 Dipole moment (field-independent basis, Debye):
    X=             -1.9609    Y=              1.4493    Z=             -0.9092  Tot=              2.6023
 Quadrupole moment (field-independent basis, Debye-Ang):
   XX=           -216.1244   YY=           -149.9811   ZZ=           -142.6548
   XY=             -4.9069   XZ=            -16.3044   YZ=              5.9919

 Summary of Natural Population Analysis:

                                       Natural Population
                Natural  -----------------------------------------------
    Atom  No    Charge         Core      Valence    Rydberg      Total
 -----------------------------------------------------------------------
      C    1   -0.28498      0.99967     2.27959    0.00571     3.28498
      C    2   -0.20963      0.99960     2.20095    0.00908     3.20963
      C    3    0.09659      0.99945     1.89201    0.01195     2.90341
      C    4    0.01342      0.99933     1.97544    0.01181     2.98658
      C    5    0.32286      0.99957     1.65466    0.02292     2.67714
      O    6   -0.33395      0.99988     3.32861    0.00546     4.33395
      N    7   -0.16552      0.99963     2.65341    0.01248     3.66552
      N    8   -0.15691      0.99968     2.64605    0.01118     3.65691
      C    9   -0.17610      0.99963     2.16823    0.00825     3.17610
      C   10   -0.00399      0.99956     1.99085    0.01358     3.00399
      C   11   -0.19866      0.99960     2.18949    0.00956     3.19866
      C   12   -0.20151      0.99962     2.19181    0.01009     3.20151
      C   13   -0.18598      0.99962     2.17740    0.00897     3.18598
      C   14   -0.18783      0.99962     2.17915    0.00905     3.18783
      C   15   -0.19217      0.99963     2.18431    0.00823     3.19217
      C   16   -0.20303      0.99961     2.19559    0.00784     3.20303
      N   17   -0.40445      0.99972     2.89439    0.01034     3.90445
      H   18    0.10069      0.00000     0.39799    0.00133     0.39931
      H   19    0.10456      0.00000     0.39326    0.00218     0.39544
      H   20    0.09868      0.00000     0.39964    0.00167     0.40132
      H   21    0.10313      0.00000     0.39567    0.00120     0.39687
      H   22    0.10275      0.00000     0.39606    0.00119     0.39725
      H   23    0.10123      0.00000     0.39724    0.00154     0.39877
      H   24    0.08968      0.00000     0.40916    0.00116     0.41032
      H   25    0.09637      0.00000     0.40293    0.00071     0.40363
      H   26    0.11155      0.00000     0.38686    0.00158     0.38845
      H   27    0.09913      0.00000     0.39973    0.00115     0.40087
      H   28    0.10573      0.00000     0.39290    0.00137     0.39427
      H   29    0.09735      0.00000     0.40109    0.00156     0.40265
      H   30    0.10234      0.00000     0.39592    0.00174     0.39766
      H   31    0.09981      0.00000     0.39880    0.00139     0.40019
      H   32    0.09157      0.00000     0.40707    0.00136     0.40843
      H   33    0.09133      0.00000     0.40764    0.00103     0.40867
      H   34    0.09740      0.00000     0.40162    0.00098     0.40260
      H   35    0.09825      0.00000     0.40094    0.00081     0.40175
      H   36    0.09377      0.00000     0.40529    0.00094     0.40623
      H   37    0.10260      0.00000     0.39643    0.00097     0.39740
      H   38    0.10611      0.00000     0.39305    0.00085     0.39389
      H   39    0.19023      0.00000     0.30797    0.00180     0.30977
      H   40    0.18760      0.00000     0.31061    0.00179     0.31240
 =======================================================================
   * Total *    0.00000     16.99343    47.79980    0.20677    65.00000

 Normal termination of Gaussian 16 at Sun Dec 13 14:12:46 2020.
