 Gaussian 16, Revision A.03,

 -----------------------------------------------------------
 # opt freq B3LYP/6-31G(d) empiricaldispersion=gd3bj scf=xqc
 -----------------------------------------------------------

 ------------------------------
 CID_62740987_JID_2458_neutraal
 ------------------------------
 Symbolic Z-matrix:
 Charge =  0 Multiplicity = 1

 SCF Done:  E(RB3LYP) =  -486.609135650     A.U. after   13 cycles
 SCF Done:  E(RB3LYP) =  -486.612436786     A.U. after   10 cycles
 SCF Done:  E(RB3LYP) =  -486.611465649     A.U. after   11 cycles
 SCF Done:  E(RB3LYP) =  -486.612635430     A.U. after   10 cycles
 SCF Done:  E(RB3LYP) =  -486.613433856     A.U. after   10 cycles
 SCF Done:  E(RB3LYP) =  -486.613420010     A.U. after   10 cycles
 SCF Done:  E(RB3LYP) =  -486.613583894     A.U. after   10 cycles
 SCF Done:  E(RB3LYP) =  -486.613612366     A.U. after    9 cycles
 SCF Done:  E(RB3LYP) =  -486.613628289     A.U. after    9 cycles
 SCF Done:  E(RB3LYP) =  -486.613637211     A.U. after    9 cycles
 SCF Done:  E(RB3LYP) =  -486.613640844     A.U. after    7 cycles
 SCF Done:  E(RB3LYP) =  -486.613641659     A.U. after    7 cycles
 SCF Done:  E(RB3LYP) =  -486.613641797     A.U. after    6 cycles
 Optimization completed.
    -- Stationary point found.
 Normal termination of Gaussian 16 at Wed Dec  9 17:29:20 2020.

 --------------------------------------------------------------------
 #N Geom=AllCheck Guess=TCheck SCRF=Check GenChk RB3LYP/6-31G(d) Freq
 --------------------------------------------------------------------

 Structure from the checkpoint file:  "JID_2458.chk"
 ------------------------------
 CID_62740987_JID_2458_neutraal
 ------------------------------
 Charge =  0 Multiplicity = 1

 SCF Done:  E(RB3LYP) =  -486.613641797     A.U. after    1 cycles

  Exact polarizability: 128.683   1.209 111.058   0.087   0.150 106.273
 Approx polarizability: 165.095   1.940 160.901  -0.092  -0.074 160.386

                      1                      2                      3
                      A                      A                      A
 Frequencies --     91.4480               111.2651               128.9512
 Red. masses --      2.8412                 2.6372                 2.5145
 Frc consts  --      0.0140                 0.0192                 0.0246
 IR Inten    --      2.3347                 1.3773                 1.9795

                      4                      5                      6
                      A                      A                      A
 Frequencies --    148.5536               191.3920               219.5731
 Red. masses --      2.2196                 2.7489                 1.2854
 Frc consts  --      0.0289                 0.0593                 0.0365
 IR Inten    --      4.6442                 3.8479                27.9821

                      7                      8                      9
                      A                      A                      A
 Frequencies --    238.1312               265.9264               296.1182
 Red. masses --      1.4253                 2.4013                 1.5962
 Frc consts  --      0.0476                 0.1001                 0.0825
 IR Inten    --      8.4879                 0.6506                 0.5618

                     10                     11                     12
                      A                      A                      A
 Frequencies --    323.2268               363.9474               381.8994
 Red. masses --      1.9917                 2.6323                 2.7436
 Frc consts  --      0.1226                 0.2054                 0.2358
 IR Inten    --      0.4157                 2.5872                 0.4413

                     13                     14                     15
                      A                      A                      A
 Frequencies --    408.2737               447.3780               471.2075
 Red. masses --      1.9456                 2.6138                 1.9313
 Frc consts  --      0.1911                 0.3082                 0.2527
 IR Inten    --      0.1605                 0.3832                 1.0743

                     16                     17                     18
                      A                      A                      A
 Frequencies --    494.2012               578.9129               682.7378
 Red. masses --      2.0116                 3.0242                 2.5691
 Frc consts  --      0.2895                 0.5971                 0.7056
 IR Inten    --      0.3249                 2.7690                 4.9345

                     19                     20                     21
                      A                      A                      A
 Frequencies --    770.0946               781.3450               797.3660
 Red. masses --      2.2552                 2.6034                 2.3426
 Frc consts  --      0.7880                 0.9364                 0.8775
 IR Inten    --      1.6988                 3.1860                 4.4395

                     22                     23                     24
                      A                      A                      A
 Frequencies --    825.2222               845.2000               854.3982
 Red. masses --      1.3549                 1.8228                 1.6169
 Frc consts  --      0.5436                 0.7672                 0.6954
 IR Inten    --      1.3708                44.8877                32.6332

                     25                     26                     27
                      A                      A                      A
 Frequencies --    876.7527               895.6649               907.8471
 Red. masses --      1.9759                 2.5516                 1.6424
 Frc consts  --      0.8949                 1.2060                 0.7976
 IR Inten    --     11.9357                 4.2947                 4.0694

                     28                     29                     30
                      A                      A                      A
 Frequencies --    925.5738               942.7108               956.2611
 Red. masses --      2.0993                 2.5410                 1.9815
 Frc consts  --      1.0596                 1.3305                 1.0676
 IR Inten    --      4.0145                 0.9590                 9.5130

                     31                     32                     33
                      A                      A                      A
 Frequencies --    968.6410               976.7495               985.6062
 Red. masses --      1.8153                 2.0023                 1.7669
 Frc consts  --      1.0035                 1.1255                 1.0113
 IR Inten    --      8.8485                 1.7976                 3.4553

                     34                     35                     36
                      A                      A                      A
 Frequencies --   1002.1207              1033.6025              1054.6989
 Red. masses --      1.6918                 1.9374                 1.7011
 Frc consts  --      1.0010                 1.2195                 1.1149
 IR Inten    --      1.2433                 0.3199                 3.9908

                     37                     38                     39
                      A                      A                      A
 Frequencies --   1071.1940              1083.4458              1097.3506
 Red. masses --      1.6019                 1.9008                 2.2139
 Frc consts  --      1.0830                 1.3146                 1.5707
 IR Inten    --      1.8970                 2.0206                 7.3294

                     40                     41                     42
                      A                      A                      A
 Frequencies --   1129.6859              1139.4478              1158.7216
 Red. masses --      1.5235                 1.6270                 1.1944
 Frc consts  --      1.1456                 1.2446                 0.9448
 IR Inten    --      0.7421                 0.8243                 0.0924

                     43                     44                     45
                      A                      A                      A
 Frequencies --   1160.4026              1176.5939              1206.6510
 Red. masses --      1.2375                 1.4216                 1.8561
 Frc consts  --      0.9818                 1.1595                 1.5923
 IR Inten    --      0.4357                 2.1907                 0.8026

                     46                     47                     48
                      A                      A                      A
 Frequencies --   1225.8255              1259.5579              1276.7976
 Red. masses --      1.7518                 1.7067                 1.3074
 Frc consts  --      1.5509                 1.5953                 1.2557
 IR Inten    --      1.4053                 1.2462                 0.2564

                     49                     50                     51
                      A                      A                      A
 Frequencies --   1281.5618              1297.0296              1308.9449
 Red. masses --      1.6135                 1.3945                 1.3641
 Frc consts  --      1.5613                 1.3822                 1.3770
 IR Inten    --      2.9491                 0.1462                 0.1595

                     52                     53                     54
                      A                      A                      A
 Frequencies --   1321.5121              1332.3598              1343.9882
 Red. masses --      1.4376                 1.2922                 1.5506
 Frc consts  --      1.4792                 1.3516                 1.6502
 IR Inten    --      1.1244                 0.1877                 0.1974

                     55                     56                     57
                      A                      A                      A
 Frequencies --   1353.5300              1362.5176              1368.9117
 Red. masses --      1.5521                 1.4035                 1.3264
 Frc consts  --      1.6753                 1.5351                 1.4644
 IR Inten    --      1.1053                 0.0686                 3.3239

                     58                     59                     60
                      A                      A                      A
 Frequencies --   1379.4228              1403.6796              1412.3791
 Red. masses --      1.4528                 1.3205                 1.3530
 Frc consts  --      1.6287                 1.5330                 1.5902
 IR Inten    --      1.6868                 2.5496                 2.2124

                     61                     62                     63
                      A                      A                      A
 Frequencies --   1437.1281              1448.8707              1508.8923
 Red. masses --      1.3087                 1.3626                 1.0832
 Frc consts  --      1.5925                 1.6853                 1.4530
 IR Inten    --      9.2738                11.4058                 4.1703

                     64                     65                     66
                      A                      A                      A
 Frequencies --   1512.3835              1516.1658              1524.0433
 Red. masses --      1.0749                 1.0872                 1.0699
 Frc consts  --      1.4486                 1.4725                 1.4641
 IR Inten    --      2.6856                 0.9446                 1.0725

                     67                     68                     69
                      A                      A                      A
 Frequencies --   1527.4810              1530.5600              1543.6821
 Red. masses --      1.0832                 1.0837                 1.0788
 Frc consts  --      1.4891                 1.4958                 1.5146
 IR Inten    --      4.4311                 3.6346                 8.6005

                     70                     71                     72
                      A                      A                      A
 Frequencies --   1546.8250              1556.2414              1695.1131
 Red. masses --      1.0556                 1.0983                 1.0873
 Frc consts  --      1.4881                 1.5672                 1.8407
 IR Inten    --      1.6830                 3.5457                39.9282

                     73                     74                     75
                      A                      A                      A
 Frequencies --   2980.5742              3008.4725              3029.8671
 Red. masses --      1.0706                 1.0657                 1.0689
 Frc consts  --      5.6038                 5.6831                 5.7812
 IR Inten    --     70.5706                24.3275                65.5180

                     76                     77                     78
                      A                      A                      A
 Frequencies --   3040.6415              3055.5666              3056.8685
 Red. masses --      1.0433                 1.0910                 1.0642
 Frc consts  --      5.6831                 6.0012                 5.8591
 IR Inten    --     27.0352                 8.3914                36.3557

                     79                     80                     81
                      A                      A                      A
 Frequencies --   3058.7276              3059.0078              3064.2539
 Red. masses --      1.0731                 1.0854                 1.0654
 Frc consts  --      5.9150                 5.9841                 5.8938
 IR Inten    --     32.1890                23.5200                45.6229

                     82                     83                     84
                      A                      A                      A
 Frequencies --   3066.5229              3086.5282              3091.9845
 Red. masses --      1.0702                 1.0857                 1.0976
 Frc consts  --      5.9292                 6.0940                 6.1823
 IR Inten    --     40.7073                74.5335                33.1193

                     85                     86                     87
                      A                      A                      A
 Frequencies --   3095.1983              3102.9478              3110.6545
 Red. masses --      1.0992                 1.0916                 1.0934
 Frc consts  --      6.2045                 6.1925                 6.2333
 IR Inten    --     29.3933                62.0780                42.7411

                     88                     89                     90
                      A                      A                      A
 Frequencies --   3112.1551              3118.5270              3135.4928
 Red. masses --      1.1038                 1.0975                 1.0950
 Frc consts  --      6.2988                 6.2886                 6.3428
 IR Inten    --     36.2170                50.2338                37.0324

                     91                     92                     93
                      A                      A                      A
 Frequencies --   3147.1343              3473.4355              3554.9034
 Red. masses --      1.0975                 1.0500                 1.0919
 Frc consts  --      6.4045                 7.4636                 8.1299
 IR Inten    --     24.7199                 2.1010                 0.1754

 - Thermochemistry -
 -------------------
 Temperature   298.150 Kelvin.  Pressure   1.00000 Atm.
 Atom     1 has atomic number  6 and mass  12.00000

 Molecular mass:   167.16740 amu.
 Principal axes and moments of inertia in atomic units:
                           1         2         3
     Eigenvalues --  1261.289982465.252262814.34488
           X            0.99996  -0.00688   0.00590
           Y            0.00692   0.99996  -0.00594
           Z           -0.00586   0.00598   0.99996
 This molecule is an asymmetric top.
 Rotational symmetry number  1.
 Warning -- assumption of classical behavior for rotation
           may cause significant error
 Rotational temperatures (Kelvin)      0.06867     0.03513     0.03078
 Rotational constants (GHZ):           1.43087     0.73207     0.64127
 Zero-point vibrational energy     814605.2 (Joules/Mol)
                                  194.69532 (Kcal/Mol)
 Warning -- explicit consideration of  17 degrees of freedom as
           vibrations may cause significant error
 Vibrational temperatures:    131.57   160.09   185.53   213.74   275.37
          (Kelvin)            315.92   342.62   382.61   426.05   465.05
                              523.64   549.47   587.41   643.68   677.96
                              711.05   832.93   982.31  1107.99  1124.18
                             1147.23  1187.31  1216.05  1229.29  1261.45
                             1288.66  1306.19  1331.69  1356.35  1375.85
                             1393.66  1405.32  1418.07  1441.83  1487.12
                             1517.48  1541.21  1558.84  1578.84  1625.37
                             1639.41  1667.14  1669.56  1692.86  1736.10
                             1763.69  1812.22  1837.03  1843.88  1866.14
                             1883.28  1901.36  1916.97  1933.70  1947.43
                             1960.36  1969.56  1984.68  2019.58  2032.10
                             2067.71  2084.60  2170.96  2175.98  2181.42
                             2192.76  2197.70  2202.13  2221.01  2225.54
                             2239.08  2438.89  4288.38  4328.52  4359.30
                             4374.80  4396.28  4398.15  4400.83  4401.23
                             4408.78  4412.04  4440.83  4448.68  4453.30
                             4464.45  4475.54  4477.70  4486.86  4511.27
                             4528.02  4997.50  5114.71

 Zero-point correction=                           0.310267 (Hartree/Particle)
 Thermal correction to Energy=                    0.322168
 Thermal correction to Enthalpy=                  0.323112
 Thermal correction to Gibbs Free Energy=         0.273556
 Sum of electronic and zero-point Energies=           -486.303375
 Sum of electronic and thermal Energies=              -486.291474
 Sum of electronic and thermal Enthalpies=            -486.290529
 Sum of electronic and thermal Free Energies=         -486.340086

                     E (Thermal)             CV                S
                      KCal/Mol        Cal/Mol-Kelvin    Cal/Mol-Kelvin
 Total                  202.164             48.625            104.300
 Electronic               0.000              0.000              0.000
 Translational            0.889              2.981             41.250
 Rotational               0.889              2.981             30.549
 Vibrational            200.386             42.663             32.501
 Vibration     1          0.602              1.955              3.629
 Vibration     2          0.607              1.940              3.247
 Vibration     3          0.611              1.924              2.962
 Vibration     4          0.618              1.904              2.691
 Vibration     5          0.634              1.852              2.214
 Vibration     6          0.647              1.811              1.963
 Vibration     7          0.656              1.782              1.817
 Vibration     8          0.672              1.736              1.623
 Vibration     9          0.690              1.681              1.439
 Vibration    10          0.708              1.629              1.294
 Vibration    11          0.737              1.546              1.105
 Vibration    12          0.751              1.509              1.032
 Vibration    13          0.773              1.452              0.933
 Vibration    14          0.807              1.367              0.804
 Vibration    15          0.828              1.314              0.734
 Vibration    16          0.850              1.263              0.673
 Vibration    17          0.935              1.077              0.487

 Optimization completed.
    -- Stationary point found.
 Normal termination of Gaussian 16 at Wed Dec  9 17:39:51 2020.

 ----------------------------------------------------------------------
 # B3LYP/6-311++G(d,p) empiricaldispersion=gd3bj scf=xqc pop=npa geom=c
 heck
 ----------------------------------------------------------------------

 --------------------------------------
 CID_62740987_JID_2458_Energie_neutraal
 --------------------------------------
 Structure from the checkpoint file:  "JID_2458.chk"
 Charge =  0 Multiplicity = 1

 SCF Done:  E(RB3LYP) =  -486.751381393     A.U. after   13 cycles
 Normal termination of Gaussian 16 at Wed Dec  9 17:44:04 2020.

 ----------------------------------------------------------------------
 # B3LYP/6-311++G(d,p) empiricaldispersion=gd3bj scf=xqc pop=npa geom=c
 heck
 ----------------------------------------------------------------------

 ------------------------------------
 CID_62740987_JID_2458_Energie_kation
 ------------------------------------
 Structure from the checkpoint file:  "JID_2458.chk"
 Charge =  1 Multiplicity = 2

 SCF Done:  E(UB3LYP) =  -486.429800587     A.U. after   26 cycles
 Normal termination of Gaussian 16 at Wed Dec  9 17:55:59 2020.
 Gaussian 16:  ES64L-G16RevA.03 25-Dec-2016

 ----------------------------------------------------------------------
 # B3LYP/6-311++G(d,p) empiricaldispersion=gd3bj scf=xqc pop=npa geom=c
 heck
 ----------------------------------------------------------------------

 -----------------------------------
 CID_62740987_JID_2458_Energie_anion
 -----------------------------------
 Structure from the checkpoint file:  "JID_2458.chk"
 Charge = -1 Multiplicity = 2

                         Standard orientation:
 ---------------------------------------------------------------------
 Center     Atomic      Atomic             Coordinates (Angstroms)
 Number     Number       Type             X           Y           Z
 ---------------------------------------------------------------------
      1          6           0        2.747936   -1.325555    0.878345
      2          6           0        2.401047   -1.056162   -0.586775
      3          6           0        0.900344   -0.923376   -0.897365
      4          6           0        0.112115    0.276840   -0.320652
      5          6           0       -0.269117    0.099796    1.195757
      6          6           0       -1.811879    0.091611    1.205478
      7          6           0       -2.308615   -1.216638    0.544343
      8          6           0       -2.046266   -0.964755   -0.973520
      9          6           0       -1.311698    0.392994   -0.974573
     10          6           0       -2.119160    1.133823    0.113780
     11          6           0        0.856991    1.602925   -0.612512
     12          7           0        1.987519    1.862314    0.288952
     13          1           0        2.519922   -0.453742    1.495902
     14          1           0        3.817398   -1.540898    0.988377
     15          1           0        2.194402   -2.188884    1.270394
     16          1           0        2.933832   -0.157937   -0.912877
     17          1           0        2.778548   -1.887310   -1.199379
     18          1           0        0.789612   -0.890217   -1.991729
     19          1           0        0.412053   -1.851381   -0.573435
     20          1           0        0.147164   -0.819038    1.616661
     21          1           0        0.104366    0.925224    1.812638
     22          1           0       -2.245101    0.279156    2.192397
     23          1           0       -1.767861   -2.090512    0.924253
     24          1           0       -3.373331   -1.380521    0.742769
     25          1           0       -1.486667   -1.768842   -1.454820
     26          1           0       -2.991591   -0.863636   -1.518433
     27          1           0       -1.279811    0.868122   -1.960963
     28          1           0       -3.185052    1.212704   -0.129276
     29          1           0       -1.742715    2.132963    0.354934
     30          1           0        1.262202    1.539332   -1.630665
     31          1           0        0.129095    2.430640   -0.625153
     32          1           0        2.520233    2.656331   -0.061686
     33          1           0        1.640480    2.143232    1.203580
 ---------------------------------------------------------------------

 SCF Done:  E(UB3LYP) =  -486.736239623     A.U. after   28 cycles

 The electronic state is 2-A.
 Alpha  occ. eigenvalues --  -14.17991 -10.07812 -10.07082 -10.06280 -10.06158
 Alpha  occ. eigenvalues --  -10.05685 -10.05627 -10.05502 -10.05379 -10.05189
 Alpha  occ. eigenvalues --  -10.05179 -10.04713  -0.78070  -0.75760  -0.68322
 Alpha  occ. eigenvalues --   -0.63863  -0.62341  -0.59514  -0.55857  -0.54522
 Alpha  occ. eigenvalues --   -0.48555  -0.46214  -0.44573  -0.41116  -0.39466
 Alpha  occ. eigenvalues --   -0.38278  -0.37372  -0.34202  -0.33865  -0.32423
 Alpha  occ. eigenvalues --   -0.32219  -0.30263  -0.28799  -0.27364  -0.26710
 Alpha  occ. eigenvalues --   -0.25782  -0.24611  -0.24148  -0.23859  -0.23030
 Alpha  occ. eigenvalues --   -0.22385  -0.21729  -0.21343  -0.19389  -0.19108
 Alpha  occ. eigenvalues --   -0.18193  -0.13052   0.04585
 Alpha virt. eigenvalues --    0.06905   0.07352   0.07676   0.09165   0.09208
 Alpha virt. eigenvalues --    0.09373   0.09861   0.09971   0.11444   0.11952
 Alpha virt. eigenvalues --    0.12258   0.12395   0.12772   0.13640   0.14004

  Beta  occ. eigenvalues --  -14.17947 -10.07788 -10.07085 -10.06275 -10.06149
  Beta  occ. eigenvalues --  -10.05670 -10.05614 -10.05493 -10.05369 -10.05167
  Beta  occ. eigenvalues --  -10.05158 -10.04702  -0.78019  -0.75709  -0.68298
  Beta  occ. eigenvalues --   -0.63833  -0.62312  -0.59481  -0.55819  -0.54452
  Beta  occ. eigenvalues --   -0.48510  -0.46170  -0.44527  -0.41076  -0.39417
  Beta  occ. eigenvalues --   -0.38250  -0.37329  -0.34160  -0.33842  -0.32403
  Beta  occ. eigenvalues --   -0.32147  -0.30238  -0.28767  -0.27334  -0.26685
  Beta  occ. eigenvalues --   -0.25758  -0.24581  -0.24118  -0.23837  -0.23005
  Beta  occ. eigenvalues --   -0.22358  -0.21703  -0.21318  -0.19360  -0.19086
  Beta  occ. eigenvalues --   -0.18169  -0.13008
  Beta virt. eigenvalues --    0.06752   0.07726   0.08141   0.08201   0.09481
  Beta virt. eigenvalues --    0.09713   0.09906   0.10240   0.10481   0.11951
  Beta virt. eigenvalues --    0.12407   0.12642   0.12763   0.13111   0.13974

 Mulliken charges and spin densities:
               1          2
     1  C   -0.124000  -0.442953
     2  C   -0.278469   0.173707
     3  C   -0.872198   0.109853
     4  C    0.363890   0.700796
     5  C    0.264747  -1.003743
     6  C   -0.859209   1.211682
     7  C    0.566018  -1.121814
     8  C    0.197882  -0.751116
     9  C   -0.095637   0.671007
    10  C    0.897717  -1.632533
    11  C    1.440513  -2.396615
    12  N   -0.569519   0.160080
    13  H    0.111833   0.048076
    14  H   -0.069414   0.204842
    15  H    0.035316   0.076316
    16  H    0.134938  -0.009130
    17  H   -0.125554   0.271796
    18  H   -0.053523   0.213577
    19  H    0.210535  -0.073628
    20  H    0.185801  -0.044439
    21  H   -0.264460   0.374198
    22  H   -0.534590   0.769880
    23  H   -0.083265   0.208275
    24  H   -0.118218   0.272698
    25  H    0.052538   0.078783
    26  H   -0.294084   0.453219
    27  H   -0.070869   0.311769
    28  H   -0.315282   0.484973
    29  H   -0.084924   0.221037
    30  H   -0.156717   0.345550
    31  H   -0.226405   0.369219
    32  H   -0.223918   0.476899
    33  H   -0.041473   0.267741
 Sum of Mulliken charges =  -1.00000   1.00000

 Dipole moment (field-independent basis, Debye):
    X=              1.0880    Y=             -3.7546    Z=             -0.9190  Tot=              4.0156
 Quadrupole moment (field-independent basis, Debye-Ang):
   XX=           -138.5364   YY=           -124.0766   ZZ=           -113.8711
   XY=             -4.2961   XZ=              0.3750   YZ=             -2.2547

 Summary of Natural Population Analysis:

                                       Natural Population
                Natural  -----------------------------------------------
    Atom  No    Charge         Core      Valence    Rydberg      Total
 -----------------------------------------------------------------------
      C    1   -0.28579      0.99966     2.28187    0.00427     3.28579
      C    2   -0.18770      0.99963     2.18059    0.00748     3.18770
      C    3   -0.18624      0.99957     2.17665    0.01002     3.18624
      C    4   -0.03923      0.99954     2.02302    0.01668     3.03923
      C    5   -0.18860      0.99959     2.17848    0.01053     3.18860
      C    6   -0.11191      0.99960     2.09968    0.01263     3.11191
      C    7   -0.19166      0.99963     2.18368    0.00835     3.19166
      C    8   -0.19447      0.99962     2.18595    0.00889     3.19447
      C    9   -0.10493      0.99957     2.09290    0.01246     3.10493
      C   10   -0.19164      0.99961     2.18237    0.00966     3.19164
      C   11   -0.08537      0.99955     2.07251    0.01330     3.08537
      N   12   -0.42589      0.99977     2.91462    0.01150     3.92589
      H   13    0.10598      0.00000     0.39259    0.00143     0.39402
      H   14    0.09347      0.00000     0.40566    0.00088     0.40653
      H   15    0.08946      0.00000     0.40943    0.00110     0.41054
      H   16    0.10238      0.00000     0.39591    0.00171     0.39762
      H   17    0.08802      0.00000     0.41089    0.00109     0.41198
      H   18    0.09645      0.00000     0.40232    0.00124     0.40355
      H   19    0.09421      0.00000     0.40444    0.00135     0.40579
      H   20    0.10028      0.00000     0.39816    0.00156     0.39972
      H   21    0.09865      0.00000     0.39958    0.00177     0.40135
      H   22    0.10036      0.00000     0.39835    0.00129     0.39964
      H   23    0.09500      0.00000     0.40388    0.00113     0.40500
      H   24    0.09903      0.00000     0.39977    0.00120     0.40097
      H   25    0.09981      0.00000     0.39914    0.00105     0.40019
      H   26    0.09890      0.00000     0.39990    0.00120     0.40110
      H   27    0.10261      0.00000     0.39620    0.00119     0.39739
      H   28    0.09975      0.00000     0.39886    0.00140     0.40025
      H   29    0.10259      0.00000     0.39578    0.00163     0.39741
      H   30    0.08991      0.00000     0.40879    0.00129     0.41009
      H   31    0.08448      0.00000     0.41313    0.00239     0.41552
      H   32    0.17760      0.00000     0.31970    0.00271     0.32240
      H   33    0.17450      0.00000     0.32281    0.00269     0.32550
 =======================================================================
   * Total *    0.00000     11.99535    34.84757    0.15708    47.00000

 Normal termination of Gaussian 16 at Wed Dec  9 18:08:38 2020.
